export TMOUT=5400
export TMPDIR=/tmp
export PTMPDIR=/tmp/ptmp
 argument  1 = ALA_ASN_1.nw
                                         
                                         


             Northwest Computational Chemistry Package (NWChem) 7.2.0
             --------------------------------------------------------


                    Environmental Molecular Sciences Laboratory
                       Pacific Northwest National Laboratory
                                Richland, WA 99352

                              Copyright (c) 1994-2022
                       Pacific Northwest National Laboratory
                            Battelle Memorial Institute

             NWChem is an open-source computational chemistry package
                        distributed under the terms of the
                      Educational Community License (ECL) 2.0
             A copy of the license is included with this distribution
                              in the LICENSE.TXT file

                                  ACKNOWLEDGMENT
                                  --------------

            This software and its documentation were developed at the
            EMSL at Pacific Northwest National Laboratory, a multiprogram
            national laboratory, operated for the U.S. Department of Energy
            by Battelle under Contract Number DE-AC05-76RL01830. Support
            for this work was provided by the Department of Energy Office
            of Biological and Environmental Research, Office of Basic
            Energy Sciences, and the Office of Advanced Scientific Computing.


           Job information
           ---------------

    hostname        = nova18-45
    program         = /opt/rit/el9/20230413/app/linux-rhel9-x86_64_v3/gcc-11.2.1/nwchem-7.2.0-oxtctbuhfuzyfaoziquq6bki22grib3g/bin/nwchem
    date            = Wed Jun 25 13:23:39 2025

    compiled        = Wed_May_17_23:46:39_2023
    source          = /tmp/root/spack-stage/spack-stage-nwchem-7.2.0-oxtctbuhfuzyfaoziquq6bki22grib3g/spack-src
    nwchem branch   = 7.2.0
    nwchem revision = d0d141fd
    ga revision     = 5.8.0
    use scalapack   = T
    input           = ALA_ASN_1.nw
    prefix          = ALA_ASN_1.
    data base       = ./ALA_ASN_1.db
    status          = startup
    nproc           =        8
    time left       =     -1s



           Memory information
           ------------------

    heap     =   26214396 doubles =    200.0 Mbytes
    stack    =   26214401 doubles =    200.0 Mbytes
    global   =   52428800 doubles =    400.0 Mbytes (distinct from heap & stack)
    total    =  104857597 doubles =    800.0 Mbytes
    verify   = yes
    hardfail = no 


           Directory information
           ---------------------

  0 permanent = .
  0 scratch   = .




                                NWChem Input Module
                                -------------------



 Scaling coordinates for geometry "geometry" by  1.889725989
 (inverse scale =  0.529177249)

 C1  symmetry detected

          ------
          auto-z
          ------
  no constraints, skipping    0.0000000000000000     
  no constraints, skipping    0.0000000000000000     


                             Geometry "geometry" -> ""
                             -------------------------

 Output coordinates in angstroms (scale by  1.889725989 to convert to a.u.)

  No.       Tag          Charge          X              Y              Z
 ---- ---------------- ---------- -------------- -------------- --------------
    1 H                    1.0000     3.29039087    -1.63653328    -1.67406802
    2 C                    6.0000     2.82706544    -2.07675913    -0.79150145
    3 H                    1.0000     3.17172498    -1.54827205     0.09650317
    4 H                    1.0000     3.09087097    -3.13008968    -0.72695393
    5 C                    6.0000     1.32840545    -1.93404032    -0.90363779
    6 O                    8.0000     0.83327142    -1.34267372    -1.85261926
    7 N                    7.0000     0.59862276    -2.46073142     0.07941904
    8 H                    1.0000     1.08000502    -2.92706325     0.83006193
    9 C                    6.0000    -0.87115888    -2.41630400     0.12098971
   10 H                    1.0000    -1.25055869    -2.80004793    -0.82824019
   11 C                    6.0000    -1.33962650    -3.35257640     1.24142046
   12 H                    1.0000    -0.96252248    -4.36084062     1.06786406
   13 H                    1.0000    -0.98348031    -2.99095553     2.20746820
   14 H                    1.0000    -2.43035638    -3.38485959     1.25714077
   15 C                    6.0000    -1.46002418    -0.99538036     0.29223122
   16 O                    8.0000    -2.66353313    -0.79786813     0.14962293
   17 N                    7.0000    -0.61926421     0.00000316     0.58511228
   18 H                    1.0000     0.36119542    -0.24222425     0.65042533
   19 C                    6.0000    -0.94707151     1.42182445     0.73235558
   20 H                    1.0000    -1.85553447     1.50069137     1.33128633
   21 C                    6.0000     0.20787654     2.07675567     1.51609413
   22 H                    1.0000     0.03067610     3.14740406     1.62208004
   23 H                    1.0000     0.25459668     1.64485995     2.51512582
   24 C                    6.0000     1.54875743     1.84779531     0.84163391
   25 O                    8.0000     2.24768370     0.89014206     1.12926615
   26 N                    7.0000     1.90701126     2.66326647    -0.11756106
   27 H                    1.0000     1.23136531     3.33784289    -0.45538824
   28 H                    1.0000     2.76420184     2.46225709    -0.59801244
   29 C                    6.0000    -1.24901302     2.14113901    -0.60876742
   30 O                    8.0000    -0.82783270     3.27524167    -0.82801224
   31 N                    7.0000    -1.93969131     1.50041321    -1.54126350
   32 H                    1.0000    -2.29964387     0.57652960    -1.34482463
   33 H                    1.0000    -2.10765931     1.95718091    -2.42138623

      Atomic Mass 
      ----------- 

      H                  1.007825
      C                 12.000000
      O                 15.994910
      N                 14.003070


 Effective nuclear repulsion energy (a.u.)    1344.9210516492

            Nuclear Dipole moment (a.u.) 
            ----------------------------
        X                 Y               Z
 ---------------- ---------------- ----------------
     0.0000000000    -0.0000000000    -0.0000000000



                                Z-matrix (autoz)
                                -------- 

 Units are Angstrom for bonds and degrees for angles

      Type          Name      I     J     K     L     M      Value
      ----------- --------  ----- ----- ----- ----- ----- ----------
    1 Stretch                  1     2                       1.08968
    2 Stretch                  2     3                       1.08933
    3 Stretch                  2     4                       1.08778
    4 Stretch                  2     5                       1.50961
    5 Stretch                  5     6                       1.22288
    6 Stretch                  5     7                       1.33281
    7 Stretch                  7     8                       1.00631
    8 Stretch                  7     9                       1.47104
    9 Stretch                  9    10                       1.09190
   10 Stretch                  9    11                       1.53344
   11 Stretch                  9    15                       1.54761
   12 Stretch                 11    12                       1.09038
   13 Stretch                 11    13                       1.09126
   14 Stretch                 11    14                       1.09132
   15 Stretch                 15    16                       1.22792
   16 Stretch                 15    17                       1.33546
   17 Stretch                 17    18                       1.01205
   18 Stretch                 17    19                       1.46653
   19 Stretch                 19    20                       1.09098
   20 Stretch                 19    21                       1.54178
   21 Stretch                 19    29                       1.55151
   22 Stretch                 21    22                       1.09038
   23 Stretch                 21    23                       1.08939
   24 Stretch                 21    24                       1.51832
   25 Stretch                 24    25                       1.21997
   26 Stretch                 24    26                       1.30897
   27 Stretch                 26    27                       1.01276
   28 Stretch                 26    28                       1.00300
   29 Stretch                 29    30                       1.22949
   30 Stretch                 29    31                       1.32556
   31 Stretch                 31    32                       1.01080
   32 Stretch                 31    33                       1.00572
   33 Bend                     1     2     3               109.25162
   34 Bend                     1     2     4               109.64224
   35 Bend                     1     2     5               108.89011
   36 Bend                     2     5     6               120.35237
   37 Bend                     2     5     7               116.83552
   38 Bend                     3     2     4               110.16230
   39 Bend                     3     2     5               109.19521
   40 Bend                     4     2     5               109.67668
   41 Bend                     5     7     8               118.12431
   42 Bend                     5     7     9               123.77903
   43 Bend                     6     5     7               122.80485
   44 Bend                     7     9    10               108.17918
   45 Bend                     7     9    11               107.90551
   46 Bend                     7     9    15               114.26949
   47 Bend                     8     7     9               118.09082
   48 Bend                     9    11    12               110.03733
   49 Bend                     9    11    13               110.16912
   50 Bend                     9    11    14               109.50705
   51 Bend                     9    15    16               120.51529
   52 Bend                     9    15    17               117.97276
   53 Bend                    10     9    11               108.32830
   54 Bend                    10     9    15               106.65790
   55 Bend                    11     9    15               111.31518
   56 Bend                    12    11    13               109.53959
   57 Bend                    12    11    14               108.69912
   58 Bend                    13    11    14               108.85868
   59 Bend                    15    17    18               116.46656
   60 Bend                    15    17    19               127.15132
   61 Bend                    16    15    17               121.50900
   62 Bend                    17    19    20               108.13972
   63 Bend                    17    19    21               107.18352
   64 Bend                    17    19    29               113.96634
   65 Bend                    18    17    19               116.23899
   66 Bend                    19    21    22               110.16808
   67 Bend                    19    21    23               109.26179
   68 Bend                    19    21    24               111.81993
   69 Bend                    19    29    30               121.00583
   70 Bend                    19    29    31               119.03761
   71 Bend                    20    19    21               108.30062
   72 Bend                    20    19    29               106.19880
   73 Bend                    21    19    29               112.84527
   74 Bend                    21    24    25               121.30504
   75 Bend                    21    24    26               118.24729
   76 Bend                    22    21    23               107.88532
   77 Bend                    22    21    24               109.55857
   78 Bend                    23    21    24               108.04175
   79 Bend                    24    26    27               118.47708
   80 Bend                    24    26    28               117.39145
   81 Bend                    25    24    26               120.33158
   82 Bend                    27    26    28               122.94625
   83 Bend                    29    31    32               119.38225
   84 Bend                    29    31    33               118.88905
   85 Bend                    30    29    31               119.92777
   86 Bend                    32    31    33               121.71638
   87 Torsion                  1     2     5     6          -3.00643
   88 Torsion                  1     2     5     7         177.94658
   89 Torsion                  2     5     7     8          -0.55374
   90 Torsion                  2     5     7     9        -179.65619
   91 Torsion                  3     2     5     6         116.21133
   92 Torsion                  3     2     5     7         -62.83565
   93 Torsion                  4     2     5     6        -122.98497
   94 Torsion                  4     2     5     7          57.96805
   95 Torsion                  5     7     9    10          52.06023
   96 Torsion                  5     7     9    11         169.05624
   97 Torsion                  5     7     9    15         -66.56157
   98 Torsion                  6     5     7     8        -179.57532
   99 Torsion                  6     5     7     9           1.32224
  100 Torsion                  7     9    11    12         -57.27251
  101 Torsion                  7     9    11    13          63.60656
  102 Torsion                  7     9    11    14        -176.69435
  103 Torsion                  7     9    15    16         169.47823
  104 Torsion                  7     9    15    17          -9.90624
  105 Torsion                  8     7     9    10        -127.04249
  106 Torsion                  8     7     9    11         -10.04649
  107 Torsion                  8     7     9    15         114.33570
  108 Torsion                  9    15    17    18           1.66153
  109 Torsion                  9    15    17    19         177.12096
  110 Torsion                 10     9    11    12          59.62675
  111 Torsion                 10     9    11    13        -179.49418
  112 Torsion                 10     9    11    14         -59.79509
  113 Torsion                 10     9    15    16          49.99718
  114 Torsion                 10     9    15    17        -129.38730
  115 Torsion                 11     9    15    16         -67.97793
  116 Torsion                 11     9    15    17         112.63759
  117 Torsion                 12    11     9    15         176.58915
  118 Torsion                 13    11     9    15         -62.53178
  119 Torsion                 14    11     9    15          57.16731
  120 Torsion                 15    17    19    20          44.74264
  121 Torsion                 15    17    19    21         161.30518
  122 Torsion                 15    17    19    29         -73.09015
  123 Torsion                 16    15    17    18        -177.71649
  124 Torsion                 16    15    17    19          -2.25706
  125 Torsion                 17    19    21    22         177.92719
  126 Torsion                 17    19    21    23         -63.71839
  127 Torsion                 17    19    21    24          55.83953
  128 Torsion                 17    19    29    30        -138.94120
  129 Torsion                 17    19    29    31          39.10565
  130 Torsion                 18    17    19    20        -139.78898
  131 Torsion                 18    17    19    21         -23.22644
  132 Torsion                 18    17    19    29         102.37822
  133 Torsion                 19    21    24    25         -91.62062
  134 Torsion                 19    21    24    26          84.47400
  135 Torsion                 19    29    31    32           3.28280
  136 Torsion                 19    29    31    33        -177.97172
  137 Torsion                 20    19    21    22         -65.61646
  138 Torsion                 20    19    21    23          52.73796
  139 Torsion                 20    19    21    24         172.29588
  140 Torsion                 20    19    29    30         102.11630
  141 Torsion                 20    19    29    31         -79.83686
  142 Torsion                 21    19    29    30         -16.38666
  143 Torsion                 21    19    29    31         161.66018
  144 Torsion                 21    24    26    27          -7.83553
  145 Torsion                 21    24    26    28        -175.76972
  146 Torsion                 22    21    19    29          51.65310
  147 Torsion                 22    21    24    25         145.94289
  148 Torsion                 22    21    24    26         -37.96249
  149 Torsion                 23    21    19    29         170.00753
  150 Torsion                 23    21    24    25          28.65303
  151 Torsion                 23    21    24    26        -155.25236
  152 Torsion                 24    21    19    29         -70.43455
  153 Torsion                 25    24    26    27         168.29853
  154 Torsion                 25    24    26    28           0.36434
  155 Torsion                 30    29    31    32        -178.64884
  156 Torsion                 30    29    31    33           0.09663


            XYZ format geometry
            -------------------
    33
 geometry
 H                     3.29039087    -1.63653328    -1.67406802
 C                     2.82706544    -2.07675913    -0.79150145
 H                     3.17172498    -1.54827205     0.09650317
 H                     3.09087097    -3.13008968    -0.72695393
 C                     1.32840545    -1.93404032    -0.90363779
 O                     0.83327142    -1.34267372    -1.85261926
 N                     0.59862276    -2.46073142     0.07941904
 H                     1.08000502    -2.92706325     0.83006193
 C                    -0.87115888    -2.41630400     0.12098971
 H                    -1.25055869    -2.80004793    -0.82824019
 C                    -1.33962650    -3.35257640     1.24142046
 H                    -0.96252248    -4.36084062     1.06786406
 H                    -0.98348031    -2.99095553     2.20746820
 H                    -2.43035638    -3.38485959     1.25714077
 C                    -1.46002418    -0.99538036     0.29223122
 O                    -2.66353313    -0.79786813     0.14962293
 N                    -0.61926421     0.00000316     0.58511228
 H                     0.36119542    -0.24222425     0.65042533
 C                    -0.94707151     1.42182445     0.73235558
 H                    -1.85553447     1.50069137     1.33128633
 C                     0.20787654     2.07675567     1.51609413
 H                     0.03067610     3.14740406     1.62208004
 H                     0.25459668     1.64485995     2.51512582
 C                     1.54875743     1.84779531     0.84163391
 O                     2.24768370     0.89014206     1.12926615
 N                     1.90701126     2.66326647    -0.11756106
 H                     1.23136531     3.33784289    -0.45538824
 H                     2.76420184     2.46225709    -0.59801244
 C                    -1.24901302     2.14113901    -0.60876742
 O                    -0.82783270     3.27524167    -0.82801224
 N                    -1.93969131     1.50041321    -1.54126350
 H                    -2.29964387     0.57652960    -1.34482463
 H                    -2.10765931     1.95718091    -2.42138623

 ==============================================================================
                                internuclear distances
 ------------------------------------------------------------------------------
       center one      |      center two      | atomic units |  angstroms
 ------------------------------------------------------------------------------
    2 C                |   1 H                |     2.05919  |     1.08968
    3 H                |   2 C                |     2.05854  |     1.08933
    4 H                |   2 C                |     2.05561  |     1.08778
    5 C                |   2 C                |     2.85275  |     1.50961
    6 O                |   5 C                |     2.31091  |     1.22288
    7 N                |   5 C                |     2.51865  |     1.33281
    8 H                |   7 N                |     1.90165  |     1.00631
    9 C                |   7 N                |     2.77986  |     1.47104
   10 H                |   9 C                |     2.06339  |     1.09190
   11 C                |   9 C                |     2.89778  |     1.53344
   12 H                |  11 C                |     2.06052  |     1.09038
   13 H                |  11 C                |     2.06219  |     1.09126
   14 H                |  11 C                |     2.06230  |     1.09132
   15 C                |   9 C                |     2.92457  |     1.54761
   16 O                |  15 C                |     2.32043  |     1.22792
   17 N                |  15 C                |     2.52365  |     1.33546
   18 H                |  17 N                |     1.91249  |     1.01205
   19 C                |  17 N                |     2.77134  |     1.46653
   20 H                |  19 C                |     2.06166  |     1.09098
   21 C                |  19 C                |     2.91354  |     1.54178
   22 H                |  21 C                |     2.06051  |     1.09038
   23 H                |  21 C                |     2.05866  |     1.08939
   24 C                |  21 C                |     2.86920  |     1.51832
   25 O                |  24 C                |     2.30541  |     1.21997
   26 N                |  24 C                |     2.47359  |     1.30897
   27 H                |  26 N                |     1.91383  |     1.01276
   28 H                |  26 N                |     1.89540  |     1.00300
   29 C                |  19 C                |     2.93193  |     1.55151
   30 O                |  29 C                |     2.32340  |     1.22949
   31 N                |  29 C                |     2.50495  |     1.32556
   32 H                |  31 N                |     1.91013  |     1.01080
   33 H                |  31 N                |     1.90053  |     1.00572
 ------------------------------------------------------------------------------
                         number of included internuclear distances:         32
 ==============================================================================



 ==============================================================================
                                 internuclear angles
 ------------------------------------------------------------------------------
        center 1       |       center 2       |       center 3       |  degrees
 ------------------------------------------------------------------------------
    1 H                |   2 C                |   3 H                |   109.25
    1 H                |   2 C                |   4 H                |   109.64
    1 H                |   2 C                |   5 C                |   108.89
    3 H                |   2 C                |   4 H                |   110.16
    3 H                |   2 C                |   5 C                |   109.20
    4 H                |   2 C                |   5 C                |   109.68
    2 C                |   5 C                |   6 O                |   120.35
    2 C                |   5 C                |   7 N                |   116.84
    6 O                |   5 C                |   7 N                |   122.80
    5 C                |   7 N                |   8 H                |   118.12
    5 C                |   7 N                |   9 C                |   123.78
    8 H                |   7 N                |   9 C                |   118.09
    7 N                |   9 C                |  10 H                |   108.18
    7 N                |   9 C                |  11 C                |   107.91
    7 N                |   9 C                |  15 C                |   114.27
   10 H                |   9 C                |  11 C                |   108.33
   10 H                |   9 C                |  15 C                |   106.66
   11 C                |   9 C                |  15 C                |   111.32
    9 C                |  11 C                |  12 H                |   110.04
    9 C                |  11 C                |  13 H                |   110.17
    9 C                |  11 C                |  14 H                |   109.51
   12 H                |  11 C                |  13 H                |   109.54
   12 H                |  11 C                |  14 H                |   108.70
   13 H                |  11 C                |  14 H                |   108.86
    9 C                |  15 C                |  16 O                |   120.52
    9 C                |  15 C                |  17 N                |   117.97
   16 O                |  15 C                |  17 N                |   121.51
   15 C                |  17 N                |  18 H                |   116.47
   15 C                |  17 N                |  19 C                |   127.15
   18 H                |  17 N                |  19 C                |   116.24
   17 N                |  19 C                |  20 H                |   108.14
   17 N                |  19 C                |  21 C                |   107.18
   17 N                |  19 C                |  29 C                |   113.97
   20 H                |  19 C                |  21 C                |   108.30
   20 H                |  19 C                |  29 C                |   106.20
   21 C                |  19 C                |  29 C                |   112.85
   19 C                |  21 C                |  22 H                |   110.17
   19 C                |  21 C                |  23 H                |   109.26
   19 C                |  21 C                |  24 C                |   111.82
   22 H                |  21 C                |  23 H                |   107.89
   22 H                |  21 C                |  24 C                |   109.56
   23 H                |  21 C                |  24 C                |   108.04
   21 C                |  24 C                |  25 O                |   121.31
   21 C                |  24 C                |  26 N                |   118.25
   25 O                |  24 C                |  26 N                |   120.33
   24 C                |  26 N                |  27 H                |   118.48
   24 C                |  26 N                |  28 H                |   117.39
   27 H                |  26 N                |  28 H                |   122.95
   19 C                |  29 C                |  30 O                |   121.01
   19 C                |  29 C                |  31 N                |   119.04
   30 O                |  29 C                |  31 N                |   119.93
   29 C                |  31 N                |  32 H                |   119.38
   29 C                |  31 N                |  33 H                |   118.89
   32 H                |  31 N                |  33 H                |   121.72
 ------------------------------------------------------------------------------
                            number of included internuclear angles:         54
 ==============================================================================



  library name resolved from: environment
  library file name is: </opt/rit/el9/20230413/app/linux-rhel9-x86_64_v3/gcc-11.2.1/nwchem-7.2.0-oxtctbuhfuzyfaoziquq6bki22grib3g/share/nwchem/libraries/>
  


 Summary of "ao basis" -> "" (cartesian)
 ------------------------------------------------------------------------------
       Tag                 Description            Shells   Functions and Types
 ---------------- ------------------------------  ------  ---------------------
 *                        aug-cc-pvdz                 on all atoms 


                      Basis "ao basis" -> "ao basis" (cartesian)
                      -----
  H (Hydrogen)
  ------------
            Exponent  Coefficients 
       -------------- ---------------------------------------------------------
  1 S  1.30100000E+01  0.019685
  1 S  1.96200000E+00  0.137977
  1 S  4.44600000E-01  0.478148

  2 S  1.22000000E-01  1.000000

  3 S  2.97400000E-02  1.000000

  4 P  7.27000000E-01  1.000000

  5 P  1.41000000E-01  1.000000

  C (Carbon)
  ----------
            Exponent  Coefficients 
       -------------- ---------------------------------------------------------
  1 S  6.66500000E+03  0.000692
  1 S  1.00000000E+03  0.005329
  1 S  2.28000000E+02  0.027077
  1 S  6.47100000E+01  0.101718
  1 S  2.10600000E+01  0.274740
  1 S  7.49500000E+00  0.448564
  1 S  2.79700000E+00  0.285074
  1 S  5.21500000E-01  0.015204

  2 S  6.66500000E+03 -0.000146
  2 S  1.00000000E+03 -0.001154
  2 S  2.28000000E+02 -0.005725
  2 S  6.47100000E+01 -0.023312
  2 S  2.10600000E+01 -0.063955
  2 S  7.49500000E+00 -0.149981
  2 S  2.79700000E+00 -0.127262
  2 S  5.21500000E-01  0.544529

  3 S  1.59600000E-01  1.000000

  4 S  4.69000000E-02  1.000000

  5 P  9.43900000E+00  0.038109
  5 P  2.00200000E+00  0.209480
  5 P  5.45600000E-01  0.508557

  6 P  1.51700000E-01  1.000000

  7 P  4.04100000E-02  1.000000

  8 D  5.50000000E-01  1.000000

  9 D  1.51000000E-01  1.000000

  O (Oxygen)
  ----------
            Exponent  Coefficients 
       -------------- ---------------------------------------------------------
  1 S  1.17200000E+04  0.000710
  1 S  1.75900000E+03  0.005470
  1 S  4.00800000E+02  0.027837
  1 S  1.13700000E+02  0.104800
  1 S  3.70300000E+01  0.283062
  1 S  1.32700000E+01  0.448719
  1 S  5.02500000E+00  0.270952
  1 S  1.01300000E+00  0.015458

  2 S  1.17200000E+04 -0.000160
  2 S  1.75900000E+03 -0.001263
  2 S  4.00800000E+02 -0.006267
  2 S  1.13700000E+02 -0.025716
  2 S  3.70300000E+01 -0.070924
  2 S  1.32700000E+01 -0.165411
  2 S  5.02500000E+00 -0.116955
  2 S  1.01300000E+00  0.557368

  3 S  3.02300000E-01  1.000000

  4 S  7.89600000E-02  1.000000

  5 P  1.77000000E+01  0.043018
  5 P  3.85400000E+00  0.228913
  5 P  1.04600000E+00  0.508728

  6 P  2.75300000E-01  1.000000

  7 P  6.85600000E-02  1.000000

  8 D  1.18500000E+00  1.000000

  9 D  3.32000000E-01  1.000000

  N (Nitrogen)
  ------------
            Exponent  Coefficients 
       -------------- ---------------------------------------------------------
  1 S  9.04600000E+03  0.000700
  1 S  1.35700000E+03  0.005389
  1 S  3.09300000E+02  0.027406
  1 S  8.77300000E+01  0.103207
  1 S  2.85600000E+01  0.278723
  1 S  1.02100000E+01  0.448540
  1 S  3.83800000E+00  0.278238
  1 S  7.46600000E-01  0.015440

  2 S  9.04600000E+03 -0.000153
  2 S  1.35700000E+03 -0.001208
  2 S  3.09300000E+02 -0.005992
  2 S  8.77300000E+01 -0.024544
  2 S  2.85600000E+01 -0.067459
  2 S  1.02100000E+01 -0.158078
  2 S  3.83800000E+00 -0.121831
  2 S  7.46600000E-01  0.549003

  3 S  2.24800000E-01  1.000000

  4 S  6.12400000E-02  1.000000

  5 P  1.35500000E+01  0.039919
  5 P  2.91700000E+00  0.217169
  5 P  7.97300000E-01  0.510319

  6 P  2.18500000E-01  1.000000

  7 P  5.61100000E-02  1.000000

  8 D  8.17000000E-01  1.000000

  9 D  2.30000000E-01  1.000000



 Summary of "ao basis" -> "ao basis" (cartesian)
 ------------------------------------------------------------------------------
       Tag                 Description            Shells   Functions and Types
 ---------------- ------------------------------  ------  ---------------------
 H                        aug-cc-pvdz                5        9   3s2p
 C                        aug-cc-pvdz                9       25   4s3p2d
 O                        aug-cc-pvdz                9       25   4s3p2d
 N                        aug-cc-pvdz                9       25   4s3p2d


                                 NWChem SCF Module
                                 -----------------



  ao basis        = "ao basis"
  functions       =   569
  atoms           =    33
  closed shells   =    65
  open shells     =     0
  charge          =   0.00
  wavefunction    = RHF 
  input vectors   = atomic
  output vectors  = ./ALA_ASN_1.movecs
  use symmetry    = F
  symmetry adapt  = F


 Summary of "ao basis" -> "ao basis" (cartesian)
 ------------------------------------------------------------------------------
       Tag                 Description            Shells   Functions and Types
 ---------------- ------------------------------  ------  ---------------------
 H                        aug-cc-pvdz                5        9   3s2p
 C                        aug-cc-pvdz                9       25   4s3p2d
 O                        aug-cc-pvdz                9       25   4s3p2d
 N                        aug-cc-pvdz                9       25   4s3p2d



 Forming initial guess at       0.9s


 !! The overlap matrix has   3 vectors deemed linearly dependent with
    eigenvalues:
 3.39D-06 4.19D-06 8.69D-06


      Superposition of Atomic Density Guess
      -------------------------------------

 Sum of atomic energies:        -863.27065637

      Non-variational initial energy
      ------------------------------

 Total energy =    -874.108465
 1-e energy   =   -3847.744152
 2-e energy   =    1628.714636
 HOMO         =      -0.310526
 LUMO         =       0.004740


 Starting SCF solution at     217.1s



 ----------------------------------------------
         Quadratically convergent ROHF

 Convergence threshold     :          1.000E-04
 Maximum no. of iterations :           30
 Final Fock-matrix accuracy:          1.000E-10
 ----------------------------------------------


              iter       energy          gnorm     gmax       time
             ----- ------------------- --------- --------- --------
                 1     -867.1733357894  2.64D+00  2.07D-01    457.9
                 2     -867.5360064429  8.46D-01  4.08D-02    974.4
                 3     -867.5987661090  6.89D-02  4.56D-03   1719.2
                 4     -867.5994817552  4.40D-03  2.98D-04   2656.4
                 5     -867.5994853497  9.24D-06  5.51D-07   4271.4


       Final RHF  results 
       ------------------ 

         Total SCF energy =   -867.599485349733
      One-electron energy =  -3859.667976898403
      Two-electron energy =   1647.147439899476
 Nuclear repulsion energy =   1344.921051649195

        Time for solution =   4058.2s


             Final eigenvalues
             -----------------

              1      
    1  -20.5407
    2  -20.5327
    3  -20.5301
    4  -20.5283
    5  -15.6106
    6  -15.6066
    7  -15.5884
    8  -15.5871
    9  -11.3720
   10  -11.3670
   11  -11.3591
   12  -11.3580
   13  -11.3179
   14  -11.3104
   15  -11.2629
   16  -11.2547
   17  -11.2398
   18   -1.4064
   19   -1.3982
   20   -1.3931
   21   -1.3908
   22   -1.2659
   23   -1.2490
   24   -1.2262
   25   -1.2157
   26   -1.0824
   27   -1.0595
   28   -0.9954
   29   -0.9483
   30   -0.8986
   31   -0.8299
   32   -0.8158
   33   -0.8064
   34   -0.7859
   35   -0.7531
   36   -0.7349
   37   -0.7259
   38   -0.7040
   39   -0.6811
   40   -0.6767
   41   -0.6710
   42   -0.6489
   43   -0.6201
   44   -0.6169
   45   -0.6143
   46   -0.6058
   47   -0.5922
   48   -0.5862
   49   -0.5853
   50   -0.5731
   51   -0.5621
   52   -0.5498
   53   -0.5466
   54   -0.5402
   55   -0.5353
   56   -0.5287
   57   -0.5109
   58   -0.4526
   59   -0.4521
   60   -0.4312
   61   -0.4265
   62   -0.4175
   63   -0.4074
   64   -0.4064
   65   -0.3958
   66    0.0264
   67    0.0366
   68    0.0405
   69    0.0435
   70    0.0518
   71    0.0532
   72    0.0564
   73    0.0626
   74    0.0673
   75    0.0728

                       ROHF Final Molecular Orbital Analysis
                       -------------------------------------

 Vector   18  Occ=2.000000D+00  E=-1.406388D+00
              MO Center= -1.3D+00, -2.4D-01,  6.4D-02, r^2= 4.6D+00
   Bfn.  Coefficient  Atom+Function         Bfn.  Coefficient  Atom+Function  
  ----- ------------  ---------------      ----- ------------  ---------------
   250      0.304108  16 O  s               249      0.286384  16 O  s         
   224      0.206732  15 C  s         

 Vector   19  Occ=2.000000D+00  E=-1.398218D+00
              MO Center=  1.3D+00,  1.0D+00,  6.4D-01, r^2= 4.4D+00
   Bfn.  Coefficient  Atom+Function         Bfn.  Coefficient  Atom+Function  
  ----- ------------  ---------------      ----- ------------  ---------------
   411      0.328060  25 O  s               410      0.308745  25 O  s         
   385      0.219936  24 C  s         

 Vector   20  Occ=2.000000D+00  E=-1.393107D+00
              MO Center=  1.4D-01,  6.4D-01, -8.6D-01, r^2= 7.0D+00
   Bfn.  Coefficient  Atom+Function         Bfn.  Coefficient  Atom+Function  
  ----- ------------  ---------------      ----- ------------  ---------------
   504      0.260303  30 O  s               503      0.239410  30 O  s         
    80     -0.234153   6 O  s                79     -0.230981   6 O  s         
    54     -0.165470   5 C  s               478      0.164811  29 C  s         

 Vector   21  Occ=2.000000D+00  E=-1.390827D+00
              MO Center= -3.0D-01,  2.6D-01, -8.1D-01, r^2= 7.1D+00
   Bfn.  Coefficient  Atom+Function         Bfn.  Coefficient  Atom+Function  
  ----- ------------  ---------------      ----- ------------  ---------------
   504      0.240341  30 O  s                79      0.228843   6 O  s         
    80      0.228995   6 O  s               503      0.221560  30 O  s         
   250     -0.164630  16 O  s               139     -0.163504   9 C  s         
    54      0.161266   5 C  s               249     -0.157829  16 O  s         

 Vector   22  Occ=2.000000D+00  E=-1.265916D+00
              MO Center= -2.4D-01, -1.2D+00,  7.7D-02, r^2= 3.7D+00
   Bfn.  Coefficient  Atom+Function         Bfn.  Coefficient  Atom+Function  
  ----- ------------  ---------------      ----- ------------  ---------------
   105      0.284076   7 N  s               104      0.237890   7 N  s         
   274      0.225687  17 N  s               275      0.218194  17 N  s         
   250     -0.199413  16 O  s                80     -0.172510   6 O  s         
   139     -0.165242   9 C  s               249     -0.151455  16 O  s         

 Vector   23  Occ=2.000000D+00  E=-1.248968D+00
              MO Center= -1.9D-01, -9.1D-01,  1.0D-01, r^2= 4.3D+00
   Bfn.  Coefficient  Atom+Function         Bfn.  Coefficient  Atom+Function  
  ----- ------------  ---------------      ----- ------------  ---------------
   275     -0.300790  17 N  s               105      0.287058   7 N  s         
   104      0.244285   7 N  s               274     -0.243496  17 N  s         
   139     -0.153068   9 C  s         

 Vector   24  Occ=2.000000D+00  E=-1.226202D+00
              MO Center=  1.6D+00,  2.3D+00,  8.7D-02, r^2= 2.3D+00
   Bfn.  Coefficient  Atom+Function         Bfn.  Coefficient  Atom+Function  
  ----- ------------  ---------------      ----- ------------  ---------------
   435      0.351838  26 N  s               436      0.318925  26 N  s         
   411     -0.212944  25 O  s               410     -0.183193  25 O  s         
   389      0.173437  24 C  py              459      0.154923  27 H  s         
   343     -0.152655  21 C  s         

 Vector   25  Occ=2.000000D+00  E=-1.215686D+00
              MO Center= -1.4D+00,  1.7D+00, -1.1D+00, r^2= 2.8D+00
   Bfn.  Coefficient  Atom+Function         Bfn.  Coefficient  Atom+Function  
  ----- ------------  ---------------      ----- ------------  ---------------
   529      0.381568  31 N  s               528      0.351502  31 N  s         
   504     -0.201658  30 O  s               275     -0.161926  17 N  s         
   503     -0.161974  30 O  s               480      0.160037  29 C  s         
   552      0.155666  32 H  s               482     -0.150819  29 C  py        
   561      0.150186  33 H  s         

 Vector   26  Occ=2.000000D+00  E=-1.082446D+00
              MO Center= -3.4D-01, -3.0D-01,  5.8D-01, r^2= 6.8D+00
   Bfn.  Coefficient  Atom+Function         Bfn.  Coefficient  Atom+Function  
  ----- ------------  ---------------      ----- ------------  ---------------
   342      0.189259  21 C  s               308      0.183719  19 C  s         
   343      0.183530  21 C  s               138     -0.168217   9 C  s         

 Vector   27  Occ=2.000000D+00  E=-1.059466D+00
              MO Center= -2.3D-01, -7.9D-01,  6.3D-01, r^2= 7.9D+00
   Bfn.  Coefficient  Atom+Function         Bfn.  Coefficient  Atom+Function  
  ----- ------------  ---------------      ----- ------------  ---------------
   343      0.236869  21 C  s               342      0.193353  21 C  s         
   172      0.187299  11 C  s                12     -0.184253   2 C  s         
   138      0.178556   9 C  s         

 Vector   28  Occ=2.000000D+00  E=-9.953862D-01
              MO Center=  1.8D+00, -2.3D+00, -4.3D-01, r^2= 4.4D+00
   Bfn.  Coefficient  Atom+Function         Bfn.  Coefficient  Atom+Function  
  ----- ------------  ---------------      ----- ------------  ---------------
    11      0.326682   2 C  s                57      0.176772   5 C  px        
    55      0.161046   5 C  s               172      0.156137  11 C  s         
    44      0.153192   4 H  s         

 Vector   29  Occ=2.000000D+00  E=-9.483359D-01
              MO Center= -2.9D-01,  1.1D+00,  6.9D-01, r^2= 5.7D+00
   Bfn.  Coefficient  Atom+Function         Bfn.  Coefficient  Atom+Function  
  ----- ------------  ---------------      ----- ------------  ---------------
   343      0.343334  21 C  s               342      0.210267  21 C  s         
   308     -0.196642  19 C  s               348      0.194650  21 C  px        
   316      0.179050  19 C  pz        

 Vector   30  Occ=2.000000D+00  E=-8.986362D-01
              MO Center= -8.5D-01, -1.8D+00,  4.8D-01, r^2= 6.5D+00
   Bfn.  Coefficient  Atom+Function         Bfn.  Coefficient  Atom+Function  
  ----- ------------  ---------------      ----- ------------  ---------------
   139      0.303638   9 C  s               145      0.260490   9 C  py        
   172     -0.223532  11 C  s               309      0.200330  19 C  s         
   138      0.191249   9 C  s               173     -0.163946  11 C  s         

 Vector   31  Occ=2.000000D+00  E=-8.299211D-01
              MO Center= -4.0D-01,  2.2D-01, -1.1D-01, r^2= 7.6D+00
   Bfn.  Coefficient  Atom+Function         Bfn.  Coefficient  Atom+Function  
  ----- ------------  ---------------      ----- ------------  ---------------
   309      0.321844  19 C  s               486     -0.207006  29 C  pz        
   316     -0.187942  19 C  pz              478      0.162156  29 C  s         
   343      0.157684  21 C  s         

 Vector   32  Occ=2.000000D+00  E=-8.158257D-01
              MO Center=  6.6D-01, -8.6D-01, -7.9D-02, r^2= 7.8D+00
   Bfn.  Coefficient  Atom+Function         Bfn.  Coefficient  Atom+Function  
  ----- ------------  ---------------      ----- ------------  ---------------
   109      0.250802   7 N  pz              128      0.214535   8 H  s         
   105      0.185871   7 N  s                54     -0.174860   5 C  s         
   139     -0.156302   9 C  s         

 Vector   33  Occ=2.000000D+00  E=-8.064353D-01
              MO Center= -5.6D-02,  1.2D-01,  3.8D-01, r^2= 6.3D+00
   Bfn.  Coefficient  Atom+Function         Bfn.  Coefficient  Atom+Function  
  ----- ------------  ---------------      ----- ------------  ---------------
   225      0.254426  15 C  s               277     -0.232146  17 N  px        
   275     -0.192863  17 N  s               298     -0.187217  18 H  s         
   231      0.162720  15 C  py              128      0.153507   8 H  s         

 Vector   34  Occ=2.000000D+00  E=-7.859316D-01
              MO Center= -2.1D-01,  1.5D+00, -2.5D-01, r^2= 6.1D+00
   Bfn.  Coefficient  Atom+Function         Bfn.  Coefficient  Atom+Function  
  ----- ------------  ---------------      ----- ------------  ---------------
   480      0.192168  29 C  s               440      0.179552  26 N  pz        
   225      0.167633  15 C  s               277     -0.160017  17 N  px        
   478     -0.154134  29 C  s               552      0.154407  32 H  s         
   533     -0.150620  31 N  pz        

 Vector   35  Occ=2.000000D+00  E=-7.531154D-01
              MO Center= -2.3D-01,  1.9D+00, -3.9D-01, r^2= 5.7D+00
   Bfn.  Coefficient  Atom+Function         Bfn.  Coefficient  Atom+Function  
  ----- ------------  ---------------      ----- ------------  ---------------
   532      0.241291  31 N  py              552     -0.213859  32 H  s         
   459     -0.211250  27 H  s               438      0.191785  26 N  px        
   439     -0.164413  26 N  py              479      0.150879  29 C  s         

 Vector   36  Occ=2.000000D+00  E=-7.349340D-01
              MO Center= -4.3D-01, -4.9D-01,  1.1D-01, r^2= 6.5D+00
   Bfn.  Coefficient  Atom+Function         Bfn.  Coefficient  Atom+Function  
  ----- ------------  ---------------      ----- ------------  ---------------
   225      0.359320  15 C  s               145     -0.282612   9 C  py        
   144      0.233246   9 C  px              315     -0.220585  19 C  py        
   228      0.194762  15 C  py              277     -0.192056  17 N  px        
   479      0.160476  29 C  s               142     -0.152985   9 C  py        
   139     -0.151394   9 C  s               298     -0.150718  18 H  s         

 Vector   37  Occ=2.000000D+00  E=-7.258543D-01
              MO Center=  7.3D-02,  1.2D+00, -2.2D-01, r^2= 8.4D+00
   Bfn.  Coefficient  Atom+Function         Bfn.  Coefficient  Atom+Function  
  ----- ------------  ---------------      ----- ------------  ---------------
   438      0.249659  26 N  px              459     -0.203144  27 H  s         
   468      0.203300  28 H  s               343      0.175537  21 C  s         
   532     -0.172253  31 N  py              552      0.162290  32 H  s         
   561     -0.160253  33 H  s               144      0.155609   9 C  px        

 Vector   38  Occ=2.000000D+00  E=-7.039603D-01
              MO Center= -2.9D-01,  2.3D-03, -9.7D-02, r^2= 8.8D+00
   Bfn.  Coefficient  Atom+Function         Bfn.  Coefficient  Atom+Function  
  ----- ------------  ---------------      ----- ------------  ---------------
   315      0.240451  19 C  py              139     -0.206021   9 C  s         
   144      0.194286   9 C  px              225      0.163489  15 C  s         
   561      0.163501  33 H  s               107     -0.157941   7 N  px        
   141      0.157300   9 C  px              533     -0.151100  31 N  pz        

 Vector   39  Occ=2.000000D+00  E=-6.811200D-01
              MO Center=  1.2D-01, -1.4D-01, -5.4D-01, r^2= 8.8D+00
   Bfn.  Coefficient  Atom+Function         Bfn.  Coefficient  Atom+Function  
  ----- ------------  ---------------      ----- ------------  ---------------
    82      0.183968   6 O  px               80     -0.162695   6 O  s         
   533      0.153570  31 N  pz        

 Vector   40  Occ=2.000000D+00  E=-6.767386D-01
              MO Center=  3.0D-01, -2.2D-01, -6.9D-01, r^2= 8.9D+00
   Bfn.  Coefficient  Atom+Function         Bfn.  Coefficient  Atom+Function  
  ----- ------------  ---------------      ----- ------------  ---------------
    82      0.196244   6 O  px               80     -0.188622   6 O  s         
    17     -0.176400   2 C  px               14     -0.153788   2 C  px        
   504     -0.154067  30 O  s               507     -0.152975  30 O  py        
   533     -0.152820  31 N  pz               59     -0.151281   5 C  pz        

 Vector   41  Occ=2.000000D+00  E=-6.710237D-01
              MO Center=  5.6D-01, -2.6D-01,  5.6D-01, r^2= 8.4D+00
   Bfn.  Coefficient  Atom+Function         Bfn.  Coefficient  Atom+Function  
  ----- ------------  ---------------      ----- ------------  ---------------
   413      0.210208  25 O  px              162      0.170516  10 H  s         
   411      0.168427  25 O  s               389      0.165233  24 C  py        
   366      0.155504  22 H  s               139      0.151390   9 C  s         

 Vector   42  Occ=2.000000D+00  E=-6.488559D-01
              MO Center= -4.0D-01,  8.9D-02,  3.1D-01, r^2= 7.8D+00
   Bfn.  Coefficient  Atom+Function         Bfn.  Coefficient  Atom+Function  
  ----- ------------  ---------------      ----- ------------  ---------------
   252      0.243630  16 O  px              227     -0.174651  15 C  px        
   311      0.171204  19 C  px              250     -0.163323  16 O  s         
   413      0.162412  25 O  px              332     -0.155956  20 H  s         

 Vector   43  Occ=2.000000D+00  E=-6.200873D-01
              MO Center=  8.8D-01, -1.3D+00, -3.8D-01, r^2= 7.0D+00
   Bfn.  Coefficient  Atom+Function         Bfn.  Coefficient  Atom+Function  
  ----- ------------  ---------------      ----- ------------  ---------------
   139      0.268508   9 C  s                15      0.204771   2 C  py        
    83      0.181204   6 O  py               44     -0.179071   4 H  s         
    35      0.168560   3 H  s               252     -0.157550  16 O  px        

 Vector   44  Occ=2.000000D+00  E=-6.168575D-01
              MO Center= -4.1D-01, -1.1D-01,  2.2D-01, r^2= 1.0D+01
   Bfn.  Coefficient  Atom+Function         Bfn.  Coefficient  Atom+Function  
  ----- ------------  ---------------      ----- ------------  ---------------
   507      0.224763  30 O  py              176     -0.193203  11 C  py        
   196      0.172526  12 H  s               299      0.165483  18 H  s         
   276     -0.157557  17 N  s         

 Vector   45  Occ=2.000000D+00  E=-6.142922D-01
              MO Center= -6.1D-01,  9.9D-01, -2.5D-01, r^2= 8.8D+00
   Bfn.  Coefficient  Atom+Function         Bfn.  Coefficient  Atom+Function  
  ----- ------------  ---------------      ----- ------------  ---------------
   482      0.235372  29 C  py              507     -0.233058  30 O  py        
   252      0.191365  16 O  px              506     -0.176287  30 O  px        
   309     -0.162276  19 C  s               479      0.159350  29 C  s         
   504     -0.153799  30 O  s         

 Vector   46  Occ=2.000000D+00  E=-6.058031D-01
              MO Center=  4.0D-01,  1.2D+00,  4.5D-01, r^2= 6.0D+00
   Bfn.  Coefficient  Atom+Function         Bfn.  Coefficient  Atom+Function  
  ----- ------------  ---------------      ----- ------------  ---------------
   348      0.194537  21 C  px              390      0.175293  24 C  pz        
   415      0.152576  25 O  pz        

 Vector   47  Occ=2.000000D+00  E=-5.921906D-01
              MO Center= -6.4D-01, -1.8D-02,  3.5D-01, r^2= 8.2D+00
   Bfn.  Coefficient  Atom+Function         Bfn.  Coefficient  Atom+Function  
  ----- ------------  ---------------      ----- ------------  ---------------
   254      0.227858  16 O  pz              229      0.182400  15 C  pz        
   257      0.171501  16 O  pz        

 Vector   48  Occ=2.000000D+00  E=-5.862122D-01
              MO Center=  2.1D-01, -2.1D+00, -1.8D-01, r^2= 7.4D+00
   Bfn.  Coefficient  Atom+Function         Bfn.  Coefficient  Atom+Function  
  ----- ------------  ---------------      ----- ------------  ---------------
    84      0.246879   6 O  pz              175     -0.240011  11 C  px        
   214      0.212512  14 H  s                57     -0.209797   5 C  px        
    14      0.197066   2 C  px              215      0.175992  14 H  s         
    80     -0.157759   6 O  s         

 Vector   49  Occ=2.000000D+00  E=-5.852927D-01
              MO Center=  5.2D-01,  9.0D-01,  4.8D-01, r^2= 7.5D+00
   Bfn.  Coefficient  Atom+Function         Bfn.  Coefficient  Atom+Function  
  ----- ------------  ---------------      ----- ------------  ---------------
   414      0.275048  25 O  py              388      0.240373  24 C  px        
   343      0.182786  21 C  s               309     -0.163483  19 C  s         
   411     -0.161371  25 O  s         

 Vector   50  Occ=2.000000D+00  E=-5.731205D-01
              MO Center=  1.3D+00, -2.1D+00, -5.8D-01, r^2= 6.6D+00
   Bfn.  Coefficient  Atom+Function         Bfn.  Coefficient  Atom+Function  
  ----- ------------  ---------------      ----- ------------  ---------------
     2      0.284542   1 H  s                16     -0.265761   2 C  pz        
     1      0.240070   1 H  s                84     -0.232002   6 O  pz        
   175     -0.199300  11 C  px              214      0.185192  14 H  s         
   215      0.158399  14 H  s                44     -0.156507   4 H  s         
   106      0.150405   7 N  s         

 Vector   51  Occ=2.000000D+00  E=-5.621235D-01
              MO Center= -4.9D-01, -1.8D-01,  6.0D-01, r^2= 1.1D+01
   Bfn.  Coefficient  Atom+Function         Bfn.  Coefficient  Atom+Function  
  ----- ------------  ---------------      ----- ------------  ---------------
   196     -0.219355  12 H  s               197     -0.216219  12 H  s         
   176      0.213919  11 C  py              206      0.190772  13 H  s         
   376     -0.184329  23 H  s               367      0.181764  22 H  s         
   506     -0.174331  30 O  px              415     -0.155015  25 O  pz        
   205      0.152322  13 H  s         

 Vector   52  Occ=2.000000D+00  E=-5.498348D-01
              MO Center= -1.3D-01,  4.8D-01,  8.9D-01, r^2= 9.1D+00
   Bfn.  Coefficient  Atom+Function         Bfn.  Coefficient  Atom+Function  
  ----- ------------  ---------------      ----- ------------  ---------------
   375      0.272231  23 H  s               347      0.242266  21 C  pz        
   367     -0.223100  22 H  s               387     -0.184133  24 C  s         
   376      0.174557  23 H  s               215      0.170173  14 H  s         
   343      0.167344  21 C  s               346     -0.162248  21 C  py        

 Vector   53  Occ=2.000000D+00  E=-5.466138D-01
              MO Center=  5.7D-01, -1.7D+00,  1.6D-01, r^2= 9.5D+00
   Bfn.  Coefficient  Atom+Function         Bfn.  Coefficient  Atom+Function  
  ----- ------------  ---------------      ----- ------------  ---------------
    12      0.226070   2 C  s                15     -0.214257   2 C  py        
   215      0.215004  14 H  s                 1     -0.185212   1 H  s         
   175     -0.182963  11 C  px               44      0.179267   4 H  s         
   214      0.176718  14 H  s               205     -0.165865  13 H  s         
     2     -0.162742   1 H  s               139      0.157257   9 C  s         

 Vector   54  Occ=2.000000D+00  E=-5.402037D-01
              MO Center= -5.2D-01, -1.1D-01,  3.2D-01, r^2= 1.0D+01
   Bfn.  Coefficient  Atom+Function         Bfn.  Coefficient  Atom+Function  
  ----- ------------  ---------------      ----- ------------  ---------------
   343      0.295058  21 C  s               197      0.193872  12 H  s         
   177     -0.151699  11 C  pz              196      0.150010  12 H  s         

 Vector   55  Occ=2.000000D+00  E=-5.353390D-01
              MO Center=  3.4D-01, -7.5D-01,  1.4D-02, r^2= 9.6D+00
   Bfn.  Coefficient  Atom+Function         Bfn.  Coefficient  Atom+Function  
  ----- ------------  ---------------      ----- ------------  ---------------
    16      0.197659   2 C  pz               35      0.176057   3 H  s         
    13      0.173735   2 C  s               276      0.169193  17 N  s         
   311      0.165456  19 C  px        

 Vector   56  Occ=2.000000D+00  E=-5.287036D-01
              MO Center= -6.0D-02,  6.3D-01,  6.4D-01, r^2= 7.8D+00
   Bfn.  Coefficient  Atom+Function         Bfn.  Coefficient  Atom+Function  
  ----- ------------  ---------------      ----- ------------  ---------------
   311      0.213879  19 C  px              346     -0.181883  21 C  py        
   348     -0.162106  21 C  px              253      0.150076  16 O  py        

 Vector   57  Occ=2.000000D+00  E=-5.108510D-01
              MO Center= -6.5D-02, -1.8D+00, -2.1D-01, r^2= 6.4D+00
   Bfn.  Coefficient  Atom+Function         Bfn.  Coefficient  Atom+Function  
  ----- ------------  ---------------      ----- ------------  ---------------
   143      0.250288   9 C  pz              162     -0.227409  10 H  s         
    83     -0.188319   6 O  py               36      0.182984   3 H  s         
   177     -0.182539  11 C  pz              309      0.182399  19 C  s         
   254     -0.163444  16 O  pz               58     -0.158132   5 C  py        
   343     -0.154488  21 C  s         

 Vector   58  Occ=2.000000D+00  E=-4.525870D-01
              MO Center= -1.3D+00, -8.7D-01, -1.9D-01, r^2= 5.6D+00
   Bfn.  Coefficient  Atom+Function         Bfn.  Coefficient  Atom+Function  
  ----- ------------  ---------------      ----- ------------  ---------------
   253      0.407913  16 O  py              256      0.327145  16 O  py        
   139      0.232897   9 C  s                83     -0.214446   6 O  py        
   254      0.172174  16 O  pz              163     -0.167457  10 H  s         
    86     -0.160658   6 O  py        

 Vector   59  Occ=2.000000D+00  E=-4.521264D-01
              MO Center= -1.1D+00,  1.3D+00, -3.5D-01, r^2= 6.1D+00
   Bfn.  Coefficient  Atom+Function         Bfn.  Coefficient  Atom+Function  
  ----- ------------  ---------------      ----- ------------  ---------------
   508      0.358384  30 O  pz              511      0.282784  30 O  pz        
   254     -0.233978  16 O  pz              506      0.232631  30 O  px        
   279      0.214216  17 N  pz              282      0.204111  17 N  pz        
   257     -0.185038  16 O  pz              509      0.183539  30 O  px        
   253      0.152635  16 O  py        

 Vector   60  Occ=2.000000D+00  E=-4.312285D-01
              MO Center=  1.4D+00,  1.2D+00,  6.2D-01, r^2= 4.6D+00
   Bfn.  Coefficient  Atom+Function         Bfn.  Coefficient  Atom+Function  
  ----- ------------  ---------------      ----- ------------  ---------------
   413      0.382657  25 O  px              416      0.299891  25 O  px        
   415     -0.248357  25 O  pz              418     -0.194484  25 O  pz        
   345      0.185996  21 C  px              480     -0.173060  29 C  s         
   343     -0.168717  21 C  s               414      0.161855  25 O  py        
   440     -0.161851  26 N  pz        

 Vector   61  Occ=2.000000D+00  E=-4.265038D-01
              MO Center=  1.1D+00, -1.2D+00, -1.2D+00, r^2= 3.8D+00
   Bfn.  Coefficient  Atom+Function         Bfn.  Coefficient  Atom+Function  
  ----- ------------  ---------------      ----- ------------  ---------------
    82      0.484850   6 O  px               85      0.381712   6 O  px        
    13      0.238547   2 C  s                17      0.203202   2 C  px        
    14      0.201194   2 C  px              105      0.170471   7 N  s         
    84     -0.168029   6 O  pz              387     -0.164094  24 C  s         
   226     -0.158344  15 C  s         

 Vector   62  Occ=2.000000D+00  E=-4.175107D-01
              MO Center=  7.7D-01,  1.9D+00, -5.9D-02, r^2= 5.8D+00
   Bfn.  Coefficient  Atom+Function         Bfn.  Coefficient  Atom+Function  
  ----- ------------  ---------------      ----- ------------  ---------------
   415      0.344533  25 O  pz              418      0.274516  25 O  pz        
   439     -0.252793  26 N  py              531     -0.244630  31 N  px        
   442     -0.230187  26 N  py              534     -0.208407  31 N  px        
   440     -0.150190  26 N  pz        

 Vector   63  Occ=2.000000D+00  E=-4.073970D-01
              MO Center=  1.5D-01,  1.5D+00, -4.8D-01, r^2= 7.4D+00
   Bfn.  Coefficient  Atom+Function         Bfn.  Coefficient  Atom+Function  
  ----- ------------  ---------------      ----- ------------  ---------------
   531      0.259105  31 N  px              534      0.248822  31 N  px        
   506     -0.233144  30 O  px              440     -0.196513  26 N  pz        
   509     -0.192685  30 O  px              530     -0.188944  31 N  s         
   442     -0.166974  26 N  py              439     -0.157375  26 N  py        
   310      0.151665  19 C  s         

 Vector   64  Occ=2.000000D+00  E=-4.064101D-01
              MO Center= -4.6D-01, -6.2D-01, -1.9D-01, r^2= 6.8D+00
   Bfn.  Coefficient  Atom+Function         Bfn.  Coefficient  Atom+Function  
  ----- ------------  ---------------      ----- ------------  ---------------
   108      0.255719   7 N  py              111      0.238572   7 N  py        
   253     -0.221389  16 O  py              508     -0.206474  30 O  pz        
    83     -0.184466   6 O  py              163      0.178386  10 H  s         
   256     -0.175129  16 O  py              284     -0.171109  17 N  py        
   279      0.162171  17 N  pz              109      0.161337   7 N  pz        

 Vector   65  Occ=2.000000D+00  E=-3.957613D-01
              MO Center= -8.7D-01,  1.4D-01, -7.0D-02, r^2= 5.8D+00
   Bfn.  Coefficient  Atom+Function         Bfn.  Coefficient  Atom+Function  
  ----- ------------  ---------------      ----- ------------  ---------------
   279      0.345779  17 N  pz              282      0.317794  17 N  pz        
   254     -0.212083  16 O  pz              343      0.183398  21 C  s         
   257     -0.171029  16 O  pz              108     -0.167392   7 N  py        
   506     -0.161694  30 O  px              253      0.160334  16 O  py        
   111     -0.157841   7 N  py              508     -0.152965  30 O  pz        

 Vector   66  Occ=0.000000D+00  E= 2.638153D-02
              MO Center=  8.9D-01, -4.1D+00,  1.7D+00, r^2= 2.2D+01
   Bfn.  Coefficient  Atom+Function         Bfn.  Coefficient  Atom+Function  
  ----- ------------  ---------------      ----- ------------  ---------------
   300      3.592441  18 H  s               226      2.996173  15 C  s         
   234     -2.968128  15 C  py              106     -2.580472   7 N  s         
   198     -2.076707  12 H  s                46     -1.643730   4 H  s         
   173      1.549681  11 C  s                63      1.519525   5 C  px        
   377     -1.470146  23 H  s               207     -1.462085  13 H  s         

 Vector   67  Occ=0.000000D+00  E= 3.658177D-02
              MO Center= -2.7D-01,  3.6D-02,  2.5D+00, r^2= 3.3D+01
   Bfn.  Coefficient  Atom+Function         Bfn.  Coefficient  Atom+Function  
  ----- ------------  ---------------      ----- ------------  ---------------
   234      6.897081  15 C  py              300      5.560323  18 H  s         
   147     -4.048766   9 C  px              106      2.932880   7 N  s         
   377     -2.859985  23 H  s               198      2.813446  12 H  s         
   344     -2.599662  21 C  s               310     -2.472470  19 C  s         
   318      2.465930  19 C  py              207     -2.428123  13 H  s         

 Vector   68  Occ=0.000000D+00  E= 4.048152D-02
              MO Center=  2.4D+00, -1.5D-01, -7.3D-01, r^2= 3.6D+01
   Bfn.  Coefficient  Atom+Function         Bfn.  Coefficient  Atom+Function  
  ----- ------------  ---------------      ----- ------------  ---------------
   387      4.014251  24 C  s                63      3.751179   5 C  px        
   437     -3.556309  26 N  s               396     -2.552383  24 C  pz        
   149     -2.480930   9 C  pz              106      2.195165   7 N  s         
   470     -1.751718  28 H  s               173     -1.708557  11 C  s         
    56     -1.564975   5 C  s                 3     -1.493830   1 H  s         

 Vector   69  Occ=0.000000D+00  E= 4.345078D-02
              MO Center= -1.7D+00, -1.6D+00, -8.4D-01, r^2= 3.4D+01
   Bfn.  Coefficient  Atom+Function         Bfn.  Coefficient  Atom+Function  
  ----- ------------  ---------------      ----- ------------  ---------------
   480     -3.723507  29 C  s                63      3.393049   5 C  px        
   530      2.425754  31 N  s                13     -2.377554   2 C  s         
   140      2.165899   9 C  s               164      2.169537  10 H  s         
   216      2.126381  14 H  s               276     -2.081149  17 N  s         
    37     -1.840834   3 H  s               284      1.797998  17 N  py        

 Vector   70  Occ=0.000000D+00  E= 5.176037D-02
              MO Center=  1.0D+00, -1.1D-01, -1.0D-02, r^2= 4.3D+01
   Bfn.  Coefficient  Atom+Function         Bfn.  Coefficient  Atom+Function  
  ----- ------------  ---------------      ----- ------------  ---------------
   344     -3.523051  21 C  s               234      3.204223  15 C  py        
    46     -2.633778   4 H  s               334     -2.538707  20 H  s         
    56      2.249178   5 C  s               470      2.208447  28 H  s         
   149     -1.994486   9 C  pz              437      1.944332  26 N  s         
   164     -1.730967  10 H  s               147     -1.661474   9 C  px        

 Vector   71  Occ=0.000000D+00  E= 5.323108D-02
              MO Center= -1.1D+00,  6.3D-01, -3.2D-01, r^2= 4.0D+01
   Bfn.  Coefficient  Atom+Function         Bfn.  Coefficient  Atom+Function  
  ----- ------------  ---------------      ----- ------------  ---------------
   530      3.933702  31 N  s               368     -3.256408  22 H  s         
   489      2.760757  29 C  pz              563      2.593315  33 H  s         
   207      2.486990  13 H  s               198     -2.236838  12 H  s         
   387      2.140597  24 C  s               352      1.682411  21 C  py        
   130      1.532708   8 H  s               234     -1.490618  15 C  py        

 Vector   72  Occ=0.000000D+00  E= 5.642660D-02
              MO Center=  9.3D-01, -7.6D-01, -1.9D-01, r^2= 4.4D+01
   Bfn.  Coefficient  Atom+Function         Bfn.  Coefficient  Atom+Function  
  ----- ------------  ---------------      ----- ------------  ---------------
   106      3.270208   7 N  s               130      3.022937   8 H  s         
     3     -2.849232   1 H  s               216     -2.859749  14 H  s         
   368      2.407234  22 H  s               198      2.339636  12 H  s         
   387     -1.802046  24 C  s               437      1.741475  26 N  s         
   226     -1.695880  15 C  s                12      1.649294   2 C  s         

 Vector   73  Occ=0.000000D+00  E= 6.255636D-02
              MO Center= -1.3D+00, -7.0D-01,  7.9D-01, r^2= 3.6D+01
   Bfn.  Coefficient  Atom+Function         Bfn.  Coefficient  Atom+Function  
  ----- ------------  ---------------      ----- ------------  ---------------
   164      5.353030  10 H  s               377      4.745070  23 H  s         
   334     -4.575192  20 H  s               317     -3.436659  19 C  px        
   149      2.502446   9 C  pz              147      2.297723   9 C  px        
    63      2.210440   5 C  px              300     -2.173324  18 H  s         
   353     -1.837110  21 C  pz               46     -1.794286   4 H  s         

 Vector   74  Occ=0.000000D+00  E= 6.732461D-02
              MO Center=  1.0D+00, -1.8D+00,  5.7D-01, r^2= 3.8D+01
   Bfn.  Coefficient  Atom+Function         Bfn.  Coefficient  Atom+Function  
  ----- ------------  ---------------      ----- ------------  ---------------
   387      8.833828  24 C  s                37     -4.760787   3 H  s         
   480      4.276391  29 C  s               140     -4.233049   9 C  s         
   216     -4.219978  14 H  s                 3      4.104217   1 H  s         
   344     -3.874622  21 C  s               310     -3.754693  19 C  s         
    13      3.334148   2 C  s               226     -3.133187  15 C  s         

 Vector   75  Occ=0.000000D+00  E= 7.275233D-02
              MO Center= -2.7D-01,  1.0D+00,  8.7D-01, r^2= 4.1D+01
   Bfn.  Coefficient  Atom+Function         Bfn.  Coefficient  Atom+Function  
  ----- ------------  ---------------      ----- ------------  ---------------
   334      6.167662  20 H  s               480      4.947206  29 C  s         
   368     -4.483434  22 H  s               317      4.379859  19 C  px        
   352      2.672612  21 C  py              387     -2.646329  24 C  s         
    63      2.415825   5 C  px              164      2.388623  10 H  s         
   470      2.323448  28 H  s               130      2.283838   8 H  s         

 Vector   76  Occ=0.000000D+00  E= 7.463411D-02
              MO Center=  1.3D+00, -9.4D-01, -4.8D-02, r^2= 4.4D+01
   Bfn.  Coefficient  Atom+Function         Bfn.  Coefficient  Atom+Function  
  ----- ------------  ---------------      ----- ------------  ---------------
   198      5.210562  12 H  s                56      4.568720   5 C  s         
   147     -4.521825   9 C  px               63     -4.018552   5 C  px        
   461     -3.737506  27 H  s                46     -3.659422   4 H  s         
   207     -3.278221  13 H  s                37      3.224590   3 H  s         
   234      3.075161  15 C  py              164     -2.662955  10 H  s         

 Vector   77  Occ=0.000000D+00  E= 7.844371D-02
              MO Center=  5.6D-01, -5.5D-01,  7.6D-01, r^2= 4.1D+01
   Bfn.  Coefficient  Atom+Function         Bfn.  Coefficient  Atom+Function  
  ----- ------------  ---------------      ----- ------------  ---------------
   174      5.449926  11 C  s               368     -5.370093  22 H  s         
   377      4.758234  23 H  s                46      4.025023   4 H  s         
   164     -4.032631  10 H  s               300      3.496668  18 H  s         
   352      3.459787  21 C  py              149     -3.405599   9 C  pz        
   387     -3.413788  24 C  s                 3     -3.129556   1 H  s         

 Vector   78  Occ=0.000000D+00  E= 8.781543D-02
              MO Center=  4.1D-01, -4.7D-01, -4.1D-01, r^2= 4.0D+01
   Bfn.  Coefficient  Atom+Function         Bfn.  Coefficient  Atom+Function  
  ----- ------------  ---------------      ----- ------------  ---------------
   554     -5.760707  32 H  s                37      5.691904   3 H  s         
   130     -4.157299   8 H  s               164      4.150878  10 H  s         
   344      3.128167  21 C  s               149      3.026343   9 C  pz        
   216     -2.781039  14 H  s               480     -2.761187  29 C  s         
   334      2.717622  20 H  s               461      2.723760  27 H  s         

 Vector   79  Occ=0.000000D+00  E= 9.020634D-02
              MO Center=  2.5D-01, -1.5D+00,  7.8D-01, r^2= 3.8D+01
   Bfn.  Coefficient  Atom+Function         Bfn.  Coefficient  Atom+Function  
  ----- ------------  ---------------      ----- ------------  ---------------
   387      7.723834  24 C  s               174      7.482279  11 C  s         
   310     -6.198943  19 C  s               234      5.688356  15 C  py        
   207     -5.487270  13 H  s               216      5.041837  14 H  s         
    56     -5.002584   5 C  s               130      4.717142   8 H  s         
   344     -3.685147  21 C  s               106      3.499516   7 N  s         

 Vector   80  Occ=0.000000D+00  E= 1.003208D-01
              MO Center= -4.7D-01,  1.5D+00, -5.6D-01, r^2= 4.0D+01
   Bfn.  Coefficient  Atom+Function         Bfn.  Coefficient  Atom+Function  
  ----- ------------  ---------------      ----- ------------  ---------------
   387     14.360585  24 C  s               480      6.951933  29 C  s         
   344     -5.996708  21 C  s               461     -5.986335  27 H  s         
   554     -5.853799  32 H  s                63      4.558626   5 C  px        
   437     -4.247778  26 N  s               368      4.119270  22 H  s         
    13     -4.010855   2 C  s               147      3.951035   9 C  px        

 Vector   81  Occ=0.000000D+00  E= 1.037669D-01
              MO Center=  1.3D+00,  5.7D-01,  9.5D-01, r^2= 3.3D+01
   Bfn.  Coefficient  Atom+Function         Bfn.  Coefficient  Atom+Function  
  ----- ------------  ---------------      ----- ------------  ---------------
   387     29.360975  24 C  s               344    -11.883912  21 C  s         
    56      9.399883   5 C  s               437     -8.871359  26 N  s         
   300     -8.498748  18 H  s               394     -7.828551  24 C  px        
   310     -7.227198  19 C  s                13     -6.742274   2 C  s         
   226      6.156540  15 C  s               317     -5.002901  19 C  px        

 Vector   82  Occ=0.000000D+00  E= 1.159203D-01
              MO Center= -1.5D+00,  1.8D+00,  4.1D-01, r^2= 2.9D+01
   Bfn.  Coefficient  Atom+Function         Bfn.  Coefficient  Atom+Function  
  ----- ------------  ---------------      ----- ------------  ---------------
   480     26.544500  29 C  s               140     -9.873644   9 C  s         
   344     -8.943886  21 C  s               174      8.529895  11 C  s         
    56     -8.078907   5 C  s               319      7.610907  19 C  pz        
   488     -6.685679  29 C  py              284     -6.119046  17 N  py        
   317      5.723723  19 C  px              530     -5.329586  31 N  s         

 Vector   83  Occ=0.000000D+00  E= 1.176815D-01
              MO Center= -4.5D-01, -4.4D-01,  1.9D+00, r^2= 2.5D+01
   Bfn.  Coefficient  Atom+Function         Bfn.  Coefficient  Atom+Function  
  ----- ------------  ---------------      ----- ------------  ---------------
   300     14.847534  18 H  s               387     10.697917  24 C  s         
   174      8.860903  11 C  s               310     -8.712140  19 C  s         
   480      7.820351  29 C  s               344     -7.201400  21 C  s         
   140     -6.838001   9 C  s                56     -6.219998   5 C  s         
   437     -5.021778  26 N  s               334     -4.911702  20 H  s         

 Vector   84  Occ=0.000000D+00  E= 1.214712D-01
              MO Center=  9.4D-01, -1.3D+00, -9.9D-01, r^2= 3.3D+01
   Bfn.  Coefficient  Atom+Function         Bfn.  Coefficient  Atom+Function  
  ----- ------------  ---------------      ----- ------------  ---------------
   387    -16.914675  24 C  s                56     16.100006   5 C  s         
   234      9.656060  15 C  py              317      9.108189  19 C  px        
   276     -8.876622  17 N  s                65      7.775365   5 C  pz        
   310      7.435914  19 C  s               480      7.363335  29 C  s         
   147     -6.975272   9 C  px              149      6.087439   9 C  pz        

 Vector   85  Occ=0.000000D+00  E= 1.297122D-01
              MO Center=  4.6D-02, -2.3D-01,  9.1D-01, r^2= 3.3D+01
   Bfn.  Coefficient  Atom+Function         Bfn.  Coefficient  Atom+Function  
  ----- ------------  ---------------      ----- ------------  ---------------
   300     15.802629  18 H  s               344    -11.799564  21 C  s         
   318      7.437050  19 C  py               13     -5.749853   2 C  s         
   353      5.706963  21 C  pz              147     -5.670267   9 C  px        
    56      5.567796   5 C  s               284      5.441359  17 N  py        
   377     -5.365149  23 H  s               226      5.137844  15 C  s         

 Vector   86  Occ=0.000000D+00  E= 1.322387D-01
              MO Center=  1.1D-01, -2.7D+00,  7.8D-01, r^2= 2.9D+01
   Bfn.  Coefficient  Atom+Function         Bfn.  Coefficient  Atom+Function  
  ----- ------------  ---------------      ----- ------------  ---------------
   226     21.150562  15 C  s                56     18.183591   5 C  s         
   174    -14.554268  11 C  s               106    -13.136909   7 N  s         
    13    -12.081805   2 C  s               310     11.320837  19 C  s         
   140     10.860466   9 C  s               234    -10.130377  15 C  py        
   148     -7.163066   9 C  py              344     -6.986187  21 C  s         

 Vector   87  Occ=0.000000D+00  E= 1.393196D-01
              MO Center= -3.8D-01,  7.5D-01, -4.5D-01, r^2= 2.9D+01
   Bfn.  Coefficient  Atom+Function         Bfn.  Coefficient  Atom+Function  
  ----- ------------  ---------------      ----- ------------  ---------------
   489      7.337714  29 C  pz              276     -6.203452  17 N  s         
   283     -4.968395  17 N  px              174     -4.642655  11 C  s         
   334      4.222549  20 H  s               310     -4.146869  19 C  s         
   234     -3.816350  15 C  py              344     -3.797645  21 C  s         
   149      3.659189   9 C  pz              318     -3.644293  19 C  py        

 Vector   88  Occ=0.000000D+00  E= 1.423474D-01
              MO Center=  1.6D-01,  5.4D-01,  4.9D-01, r^2= 2.7D+01
   Bfn.  Coefficient  Atom+Function         Bfn.  Coefficient  Atom+Function  
  ----- ------------  ---------------      ----- ------------  ---------------
   344     -8.772644  21 C  s               226      8.273874  15 C  s         
   300      8.249490  18 H  s                13     -6.899999   2 C  s         
    63      6.507973   5 C  px              147      6.393113   9 C  px        
   318      5.409623  19 C  py              530     -4.688029  31 N  s         
   488     -4.394650  29 C  py              234     -4.283181  15 C  py        

 Vector   89  Occ=0.000000D+00  E= 1.472369D-01
              MO Center=  3.8D-01, -6.2D-01,  4.1D-02, r^2= 3.3D+01
   Bfn.  Coefficient  Atom+Function         Bfn.  Coefficient  Atom+Function  
  ----- ------------  ---------------      ----- ------------  ---------------
   437     11.196126  26 N  s                13     10.600364   2 C  s         
    63    -10.161334   5 C  px              140     -9.415937   9 C  s         
   276      9.293200  17 N  s               226     -8.661494  15 C  s         
   387     -8.073778  24 C  s               234     -7.113185  15 C  py        
   396      6.999318  24 C  pz              233     -4.992018  15 C  px        

 Vector   90  Occ=0.000000D+00  E= 1.490636D-01
              MO Center=  5.8D-01,  4.0D-01, -3.2D-01, r^2= 3.0D+01
   Bfn.  Coefficient  Atom+Function         Bfn.  Coefficient  Atom+Function  
  ----- ------------  ---------------      ----- ------------  ---------------
   344     12.399121  21 C  s               234    -10.936053  15 C  py        
   530      9.239089  31 N  s               480     -6.821018  29 C  s         
   394      5.341839  24 C  px              488      5.103764  29 C  py        
   317     -4.974076  19 C  px              487      4.924744  29 C  px        
   318     -4.680698  19 C  py              106     -4.239327   7 N  s         

 Vector   91  Occ=0.000000D+00  E= 1.504851D-01
              MO Center=  2.6D-01, -2.0D-01,  1.1D+00, r^2= 3.3D+01
   Bfn.  Coefficient  Atom+Function         Bfn.  Coefficient  Atom+Function  
  ----- ------------  ---------------      ----- ------------  ---------------
   234     15.605845  15 C  py              344    -13.907588  21 C  s         
   387     10.510533  24 C  s               318     10.358100  19 C  py        
   174      7.879055  11 C  s               480      7.556240  29 C  s         
   147     -6.956654   9 C  px              310     -6.121605  19 C  s         
   353      5.658951  21 C  pz              140     -5.389545   9 C  s         

 Vector   92  Occ=0.000000D+00  E= 1.531700D-01
              MO Center=  1.5D-01,  6.5D-01,  6.2D-01, r^2= 3.1D+01
   Bfn.  Coefficient  Atom+Function         Bfn.  Coefficient  Atom+Function  
  ----- ------------  ---------------      ----- ------------  ---------------
   344     14.117528  21 C  s               437    -11.399992  26 N  s         
[...]
  ----- ------------  ---------------      ----- ------------  ---------------
    12     13.454568   2 C  s                63     10.225053   5 C  px        
   387      9.913164  24 C  s                45     -9.480884   4 H  s         
   319     -8.750117  19 C  pz              276     -7.611946  17 N  s         
   317     -7.389560  19 C  px              318     -7.421883  19 C  py        
    56      7.334816   5 C  s               140      6.779160   9 C  s         

 Vector  160  Occ=0.000000D+00  E= 4.323830D-01
              MO Center= -7.8D-02, -1.2D+00, -4.5D-01, r^2= 2.1D+01
   Bfn.  Coefficient  Atom+Function         Bfn.  Coefficient  Atom+Function  
  ----- ------------  ---------------      ----- ------------  ---------------
   387     23.874197  24 C  s               226    -18.853169  15 C  s         
   480     16.501971  29 C  s               530    -15.849789  31 N  s         
   140    -13.648716   9 C  s               106     12.634947   7 N  s         
    56    -10.825754   5 C  s               437     -9.965362  26 N  s         
   310     -9.709984  19 C  s               163      9.300844  10 H  s         

 Vector  161  Occ=0.000000D+00  E= 4.357473D-01
              MO Center=  2.1D-01,  7.3D-01, -1.9D-01, r^2= 1.8D+01
   Bfn.  Coefficient  Atom+Function         Bfn.  Coefficient  Atom+Function  
  ----- ------------  ---------------      ----- ------------  ---------------
   344     19.747430  21 C  s               437    -13.683940  26 N  s         
   174    -13.572176  11 C  s               318     -7.969356  19 C  py        
   106     -7.437912   7 N  s               234     -7.277956  15 C  py        
   284     -6.958314  17 N  py              387      6.872362  24 C  s         
   226     -6.636019  15 C  s               173     -6.186647  11 C  s         

 Vector  162  Occ=0.000000D+00  E= 4.394064D-01
              MO Center= -2.3D-01,  4.0D-02, -1.6D-01, r^2= 2.0D+01
   Bfn.  Coefficient  Atom+Function         Bfn.  Coefficient  Atom+Function  
  ----- ------------  ---------------      ----- ------------  ---------------
   480     25.231308  29 C  s               530    -19.268587  31 N  s         
   387     18.344925  24 C  s               276    -12.987109  17 N  s         
   437     -9.512067  26 N  s               344     -8.444335  21 C  s         
   106      7.130270   7 N  s                13     -6.388091   2 C  s         
   234      6.410792  15 C  py              317      5.648420  19 C  px        

 Vector  163  Occ=0.000000D+00  E= 4.438904D-01
              MO Center=  5.2D-01, -5.1D-01, -1.4D-01, r^2= 2.0D+01
   Bfn.  Coefficient  Atom+Function         Bfn.  Coefficient  Atom+Function  
  ----- ------------  ---------------      ----- ------------  ---------------
   319     13.981852  19 C  pz              480     12.175501  29 C  s         
   140    -10.182130   9 C  s               344     -9.333097  21 C  s         
    13      6.136263   2 C  s               276      6.029633  17 N  s         
   235     -5.820736  15 C  pz              174      5.474656  11 C  s         
   351      5.337870  21 C  px              113     -4.623456   7 N  px        

 Vector  164  Occ=0.000000D+00  E= 4.474370D-01
              MO Center= -6.4D-01, -8.9D-01,  3.2D-01, r^2= 2.0D+01
   Bfn.  Coefficient  Atom+Function         Bfn.  Coefficient  Atom+Function  
  ----- ------------  ---------------      ----- ------------  ---------------
   480     23.599794  29 C  s               530    -16.398178  31 N  s         
   140    -13.232898   9 C  s               226    -12.293383  15 C  s         
   437    -11.799393  26 N  s                13     10.634640   2 C  s         
   387     10.485014  24 C  s               174      7.164734  11 C  s         
    12      6.677906   2 C  s               206     -6.620361  13 H  s         

 Vector  165  Occ=0.000000D+00  E= 4.527465D-01
              MO Center= -4.0D-01, -1.0D+00,  1.8D-01, r^2= 1.9D+01
   Bfn.  Coefficient  Atom+Function         Bfn.  Coefficient  Atom+Function  
  ----- ------------  ---------------      ----- ------------  ---------------
   276    -17.390284  17 N  s               234     17.011406  15 C  py        
   387     11.748081  24 C  s               437    -10.245240  26 N  s         
   173     10.155747  11 C  s               226      8.005258  15 C  s         
   300     -7.998391  18 H  s               480     -8.019274  29 C  s         
   140      7.891100   9 C  s               215     -7.708607  14 H  s         

 Vector  166  Occ=0.000000D+00  E= 4.545856D-01
              MO Center=  3.1D-01, -8.7D-01,  3.8D-01, r^2= 1.9D+01
   Bfn.  Coefficient  Atom+Function         Bfn.  Coefficient  Atom+Function  
  ----- ------------  ---------------      ----- ------------  ---------------
   480     13.229330  29 C  s               174     10.488453  11 C  s         
   387     -9.769881  24 C  s               113      9.266900   7 N  px        
   530     -8.971489  31 N  s               276     -7.888339  17 N  s         
   234      7.131307  15 C  py              317      6.871171  19 C  px        
   343      6.892079  21 C  s               235     -6.653786  15 C  pz        

 Vector  167  Occ=0.000000D+00  E= 4.590911D-01
              MO Center=  2.1D-01,  1.4D-01,  6.0D-02, r^2= 1.8D+01
   Bfn.  Coefficient  Atom+Function         Bfn.  Coefficient  Atom+Function  
  ----- ------------  ---------------      ----- ------------  ---------------
   106     12.748627   7 N  s               319      9.215716  19 C  pz        
    56     -8.253395   5 C  s                13     -8.120561   2 C  s         
   387     -7.569394  24 C  s               437      7.304038  26 N  s         
   284     -6.679510  17 N  py              113      6.539780   7 N  px        
   487     -6.275331  29 C  px              318      5.761943  19 C  py        

 Vector  168  Occ=0.000000D+00  E= 4.693058D-01
              MO Center=  5.1D-01, -8.7D-01,  2.7D-02, r^2= 2.0D+01
   Bfn.  Coefficient  Atom+Function         Bfn.  Coefficient  Atom+Function  
  ----- ------------  ---------------      ----- ------------  ---------------
   234     18.848114  15 C  py              387    -16.653479  24 C  s         
    13     13.805299   2 C  s               174     10.900828  11 C  s         
   276    -10.537536  17 N  s               226    -10.150886  15 C  s         
    63    -10.068258   5 C  px              147     -8.454332   9 C  px        
   106      7.258907   7 N  s               317      7.039741  19 C  px        

 Vector  169  Occ=0.000000D+00  E= 4.703129D-01
              MO Center= -2.8D-01, -4.1D-01,  4.0D-01, r^2= 1.9D+01
   Bfn.  Coefficient  Atom+Function         Bfn.  Coefficient  Atom+Function  
  ----- ------------  ---------------      ----- ------------  ---------------
   318     13.323042  19 C  py              234     12.949157  15 C  py        
   344    -11.896659  21 C  s                56      9.366270   5 C  s         
   147     -7.544161   9 C  px              284      7.485825  17 N  py        
   106      7.194759   7 N  s               489     -7.155473  29 C  pz        
   113     -6.924803   7 N  px              530     -6.588306  31 N  s         

 Vector  170  Occ=0.000000D+00  E= 4.757957D-01
              MO Center= -8.4D-02, -1.4D-01,  1.9D-01, r^2= 2.0D+01
   Bfn.  Coefficient  Atom+Function         Bfn.  Coefficient  Atom+Function  
  ----- ------------  ---------------      ----- ------------  ---------------
   344     32.277503  21 C  s                13     19.059474   2 C  s         
   480    -16.736953  29 C  s               174     15.357680  11 C  s         
   387     14.782861  24 C  s               226    -12.362281  15 C  s         
    56    -11.858627   5 C  s               319    -11.627142  19 C  pz        
   300    -10.263372  18 H  s               317     -9.638553  19 C  px        

 Vector  171  Occ=0.000000D+00  E= 4.809700D-01
              MO Center=  1.8D-01, -2.2D-01,  1.6D-01, r^2= 1.8D+01
   Bfn.  Coefficient  Atom+Function         Bfn.  Coefficient  Atom+Function  
  ----- ------------  ---------------      ----- ------------  ---------------
   310     16.409026  19 C  s               226     14.943686  15 C  s         
   174    -14.442805  11 C  s               140     12.457683   9 C  s         
   234    -12.043462  15 C  py              344     11.624994  21 C  s         
   480     -9.286561  29 C  s               284      8.682415  17 N  py        
    13     -8.435233   2 C  s                56      8.332249   5 C  s         

 Vector  172  Occ=0.000000D+00  E= 4.872828D-01
              MO Center= -5.0D-02, -2.3D-01, -4.3D-01, r^2= 1.8D+01
   Bfn.  Coefficient  Atom+Function         Bfn.  Coefficient  Atom+Function  
  ----- ------------  ---------------      ----- ------------  ---------------
    56     25.118054   5 C  s               174    -23.727578  11 C  s         
   106    -15.860116   7 N  s               226     11.013205  15 C  s         
   148     -9.456135   9 C  py              310      9.117596  19 C  s         
    13     -8.313539   2 C  s               344     -8.226312  21 C  s         
   387     -7.972893  24 C  s               276     -7.720112  17 N  s         

 Vector  173  Occ=0.000000D+00  E= 4.892979D-01
              MO Center=  3.7D-01, -2.0D-01,  3.5D-01, r^2= 2.0D+01
   Bfn.  Coefficient  Atom+Function         Bfn.  Coefficient  Atom+Function  
  ----- ------------  ---------------      ----- ------------  ---------------
   480     17.082890  29 C  s               387     16.641799  24 C  s         
   344    -16.127663  21 C  s                13    -14.876820   2 C  s         
   437     -9.801286  26 N  s               343     -9.544212  21 C  s         
   234     -7.962009  15 C  py              367      7.877200  22 H  s         
   226      7.773303  15 C  s               376      7.431471  23 H  s         

 Vector  174  Occ=0.000000D+00  E= 4.902388D-01
              MO Center=  2.0D-01, -2.9D-01,  3.8D-01, r^2= 1.9D+01
   Bfn.  Coefficient  Atom+Function         Bfn.  Coefficient  Atom+Function  
  ----- ------------  ---------------      ----- ------------  ---------------
   387     28.162325  24 C  s                56    -20.975267   5 C  s         
   174     17.961309  11 C  s                13    -10.914158   2 C  s         
   310    -10.728152  19 C  s                63      9.623434   5 C  px        
   480     -9.273028  29 C  s               437     -7.927284  26 N  s         
   147      7.800442   9 C  px              251     -7.398889  16 O  s         

 Vector  175  Occ=0.000000D+00  E= 4.972364D-01
              MO Center=  5.7D-02, -1.0D+00,  5.2D-01, r^2= 2.0D+01
   Bfn.  Coefficient  Atom+Function         Bfn.  Coefficient  Atom+Function  
  ----- ------------  ---------------      ----- ------------  ---------------
   344     18.618202  21 C  s               480    -16.591456  29 C  s         
   387    -13.709518  24 C  s                56    -13.217897   5 C  s         
   226    -10.980333  15 C  s               174     10.237756  11 C  s         
   530     10.079405  31 N  s               113      9.339757   7 N  px        
    12      9.240995   2 C  s               437      9.085899  26 N  s         

 Vector  176  Occ=0.000000D+00  E= 5.002960D-01
              MO Center=  4.9D-01,  5.2D-01,  1.5D-01, r^2= 1.9D+01
   Bfn.  Coefficient  Atom+Function         Bfn.  Coefficient  Atom+Function  
  ----- ------------  ---------------      ----- ------------  ---------------
   344     18.142439  21 C  s                56    -10.398208   5 C  s         
   106     10.260842   7 N  s               226    -10.197466  15 C  s         
   343      9.543544  21 C  s               376     -8.787890  23 H  s         
   367     -7.111407  22 H  s               284     -6.644691  17 N  py        
    81      6.402224   6 O  s               139     -5.429100   9 C  s         


 center of mass
 --------------
 x =  -0.02598564 y =   0.06443164 z =  -0.02707347

 moments of inertia (a.u.)
 ------------------
        4545.094717836737          -0.000000000001          -0.000000000001
          -0.000000000001        3096.895381828623          -0.000000000001
          -0.000000000001          -0.000000000001        5921.939320827611

  Mulliken analysis of the total density
  --------------------------------------

    Atom       Charge   Shell Charges
 -----------   ------   -------------------------------------------------------
    1 H    1     0.95   0.76  0.21  0.01  0.03 -0.07
    2 C    6     6.39   2.01  0.66  0.34  0.16  2.07  0.99 -0.02  0.06  0.12
    3 H    1     0.82   0.76  0.09  0.01  0.03 -0.07
    4 H    1     0.83   0.77  0.10  0.01  0.03 -0.07
    5 C    6     5.18   2.01  0.68  0.09 -0.02  1.90  0.35 -0.05  0.24 -0.02
    6 O    8     8.78   2.01  0.82  1.00  0.17  2.79  1.84  0.16  0.01 -0.01
    7 N    7     7.53   2.01  0.72  0.79 -0.14  2.45  1.45  0.16  0.05  0.03
    8 H    1     0.97   0.77  0.21 -0.02  0.05 -0.05
    9 C    6     6.45   2.01  0.66  0.06  0.06  1.99  1.41 -0.02  0.14  0.15
   10 H    1     1.10   0.78  0.25  0.02  0.03  0.02
   11 C    6     5.69   2.01  0.66  0.30  0.07  2.04  0.57 -0.05  0.07  0.02
   12 H    1     0.97   0.77  0.26  0.00  0.03 -0.09
   13 H    1     0.94   0.77  0.19  0.02  0.03 -0.08
   14 H    1     0.95   0.76  0.23 -0.00  0.03 -0.07
   15 C    6     4.67   2.01  0.68 -0.01  0.04  1.88  0.16  0.04  0.24 -0.37
   16 O    8     8.91   2.01  0.82  1.05  0.22  2.79  1.87  0.15  0.01 -0.00
   17 N    7     7.39   2.01  0.72  0.81 -0.11  2.45  1.39  0.03  0.05  0.03
   18 H    1     0.82   0.75  0.27 -0.06  0.06 -0.20
   19 C    6     6.45   2.01  0.66  0.08  0.01  1.99  1.35  0.09  0.14  0.12
   20 H    1     1.03   0.78  0.23 -0.01  0.03 -0.00
   21 C    6     6.33   2.01  0.66  0.71  0.02  2.06  0.72 -0.02  0.09  0.09
   22 H    1     0.95   0.77  0.22 -0.00  0.03 -0.07
   23 H    1     0.84   0.78  0.11  0.00  0.03 -0.07
   24 C    6     4.61   2.01  0.68  0.03 -0.02  1.91 -0.12 -0.01  0.24 -0.11
   25 O    8     8.89   2.01  0.81  1.03  0.20  2.80  1.85  0.17  0.02 -0.00
   26 N    7     7.20   2.01  0.72  0.75 -0.12  2.47  1.26  0.09  0.04 -0.03
   27 H    1     0.89   0.73  0.17 -0.01  0.06 -0.06
   28 H    1     1.00   0.76  0.22 -0.01  0.05 -0.03
   29 C    6     4.42   2.01  0.68  0.01  0.05  1.88 -0.15 -0.06  0.23 -0.23
   30 O    8     8.86   2.01  0.82  1.04  0.17  2.80  1.86  0.16  0.01 -0.00
   31 N    7     7.27   2.01  0.72  0.85 -0.16  2.46  1.26  0.09  0.04 -0.01
   32 H    1     0.91   0.73  0.19 -0.01  0.06 -0.05
   33 H    1     1.03   0.76  0.25  0.00  0.05 -0.03

       Multipole analysis of the density wrt the origin
       ------------------------------------------------

     L   x y z        total         open         nuclear
     -   - - -        -----         ----         -------
     0   0 0 0     -0.000000      0.000000    130.000000

     1   1 0 0      0.483745      0.000000      0.000000
     1   0 1 0     -1.077133      0.000000     -0.000000
     1   0 0 1      0.817319      0.000000     -0.000000

     2   2 0 0    -79.437580      0.000000   1231.085395
     2   1 1 0     -1.241148      0.000000     -2.253117
     2   1 0 1     -1.547724      0.000000    -12.908549
     2   0 2 0    -68.622424      0.000000   2032.623341
     2   0 1 1     -2.598574      0.000000    -14.689077
     2   0 0 2    -75.565835      0.000000    486.291211


 Task  times  cpu:     4276.7s     wall:     4506.2s


                                NWChem Input Module
                                -------------------


 Summary of allocated global arrays
-----------------------------------
  No active global arrays


MA_summarize_allocated_blocks: starting scan ...
MA_summarize_allocated_blocks: scan completed: 0 heap blocks, 0 stack blocks
MA usage statistics:

	allocation statistics:
					      heap	     stack
					      ----	     -----
	current number of blocks	         0	         0
	maximum number of blocks	        16	        14
	current total bytes		         0	         0
	maximum total bytes		    119944	  26741416
	maximum total K-bytes		       120	     26742
	maximum total M-bytes		         1	        27


                                     CITATION
                                     --------
                Please cite the following reference when publishing
                           results obtained with NWChem:

          E. Apra, E. J. Bylaska, W. A. de Jong, N. Govind, K. Kowalski,
       T. P. Straatsma, M. Valiev, H. J. J. van Dam, Y. Alexeev, J. Anchell,
       V. Anisimov, F. W. Aquino, R. Atta-Fynn, J. Autschbach, N. P. Bauman,
     J. C. Becca, D. E. Bernholdt, K. Bhaskaran-Nair, S. Bogatko, P. Borowski,
         J. Boschen, J. Brabec, A. Bruner, E. Cauet, Y. Chen, G. N. Chuev,
      C. J. Cramer, J. Daily, M. J. O. Deegan, T. H. Dunning Jr., M. Dupuis,
   K. G. Dyall, G. I. Fann, S. A. Fischer, A. Fonari, H. Fruchtl, L. Gagliardi,
      J. Garza, N. Gawande, S. Ghosh, K. Glaesemann, A. W. Gotz, J. Hammond,
       V. Helms, E. D. Hermes, K. Hirao, S. Hirata, M. Jacquelin, L. Jensen,
   B. G. Johnson, H. Jonsson, R. A. Kendall, M. Klemm, R. Kobayashi, V. Konkov,
      S. Krishnamoorthy, M. Krishnan, Z. Lin, R. D. Lins, R. J. Littlefield,
      A. J. Logsdail, K. Lopata, W. Ma, A. V. Marenich, J. Martin del Campo,
   D. Mejia-Rodriguez, J. E. Moore, J. M. Mullin, T. Nakajima, D. R. Nascimento,
    J. A. Nichols, P. J. Nichols, J. Nieplocha, A. Otero-de-la-Roza, B. Palmer,
    A. Panyala, T. Pirojsirikul, B. Peng, R. Peverati, J. Pittner, L. Pollack,
   R. M. Richard, P. Sadayappan, G. C. Schatz, W. A. Shelton, D. W. Silverstein,
   D. M. A. Smith, T. A. Soares, D. Song, M. Swart, H. L. Taylor, G. S. Thomas,
            V. Tipparaju, D. G. Truhlar, K. Tsemekhman, T. Van Voorhis,
      A. Vazquez-Mayagoitia, P. Verma, O. Villa, A. Vishnu, K. D. Vogiatzis,
        D. Wang, J. H. Weare, M. J. Williamson, T. L. Windus, K. Wolinski,
        A. T. Wong, Q. Wu, C. Yang, Q. Yu, M. Zacharias, Z. Zhang, Y. Zhao,
                                and R. J. Harrison
                        "NWChem: Past, present, and future
                         J. Chem. Phys. 152, 184102 (2020)
                               doi:10.1063/5.0004997

                                      AUTHORS
                                      -------
  E. Apra, E. J. Bylaska, N. Govind, K. Kowalski, M. Valiev, D. Mejia-Rodriguez,
       A. Kunitsa, N. P. Bauman, A. Panyala, W. A. de Jong, T. P. Straatsma,
   H. J. J. van Dam, D. Wang, T. L. Windus, J. Hammond, J. Autschbach, A. Woods,
    K. Bhaskaran-Nair, J. Brabec, K. Lopata, S. A. Fischer, S. Krishnamoorthy,
     M. Jacquelin, W. Ma, M. Klemm, O. Villa, Y. Chen, V. Anisimov, F. Aquino,
     S. Hirata, M. T. Hackler, E. Hermes, L. Jensen, J. E. Moore, J. C. Becca,
      V. Konjkov, T. Risthaus, M. Malagoli, A. Marenich, A. Otero-de-la-Roza,
        J. Mullin, P. Nichols, R. Peverati, J. Pittner, Y. Zhao, P.-D. Fan,
        A. Fonari, M. J. Williamson, R. J. Harrison, J. R. Rehr, M. Dupuis,
     D. Silverstein, D. M. A. Smith, J. Nieplocha, V. Tipparaju, M. Krishnan,
     B. E. Van Kuiken, A. Vazquez-Mayagoitia, M. Swart, Q. Wu, T. Van Voorhis,
     A. A. Auer, M. Nooijen, L. D. Crosby, E. Brown, G. Cisneros, G. I. Fann,
   H. Fruchtl, J. Garza, K. Hirao, R. A. Kendall, J. A. Nichols, K. Tsemekhman,
    K. Wolinski, J. Anchell, D. E. Bernholdt, P. Borowski, T. Clark, D. Clerc,
   H. Dachsel, M. J. O. Deegan, K. Dyall, D. Elwood, E. Glendening, M. Gutowski,
   A. C. Hess, J. Jaffe, B. G. Johnson, J. Ju, R. Kobayashi, R. Kutteh, Z. Lin,
   R. Littlefield, X. Long, B. Meng, T. Nakajima, S. Niu, L. Pollack, M. Rosing,
   K. Glaesemann, G. Sandrone, M. Stave, H. Taylor, G. Thomas, J. H. van Lenthe,
                               A. T. Wong, Z. Zhang.

 Total times  cpu:     4276.7s     wall:     4506.5s
