export TMOUT=5400
export TMPDIR=/tmp
export PTMPDIR=/tmp/ptmp
 argument  1 = ALA_SER_2.nw
                                         
                                         


             Northwest Computational Chemistry Package (NWChem) 7.2.0
             --------------------------------------------------------


                    Environmental Molecular Sciences Laboratory
                       Pacific Northwest National Laboratory
                                Richland, WA 99352

                              Copyright (c) 1994-2022
                       Pacific Northwest National Laboratory
                            Battelle Memorial Institute

             NWChem is an open-source computational chemistry package
                        distributed under the terms of the
                      Educational Community License (ECL) 2.0
             A copy of the license is included with this distribution
                              in the LICENSE.TXT file

                                  ACKNOWLEDGMENT
                                  --------------

            This software and its documentation were developed at the
            EMSL at Pacific Northwest National Laboratory, a multiprogram
            national laboratory, operated for the U.S. Department of Energy
            by Battelle under Contract Number DE-AC05-76RL01830. Support
            for this work was provided by the Department of Energy Office
            of Biological and Environmental Research, Office of Basic
            Energy Sciences, and the Office of Advanced Scientific Computing.


           Job information
           ---------------

    hostname        = nova18-41
    program         = /opt/rit/el9/20230413/app/linux-rhel9-x86_64_v3/gcc-11.2.1/nwchem-7.2.0-oxtctbuhfuzyfaoziquq6bki22grib3g/bin/nwchem
    date            = Mon Jun 30 11:20:10 2025

    compiled        = Wed_May_17_23:46:39_2023
    source          = /tmp/root/spack-stage/spack-stage-nwchem-7.2.0-oxtctbuhfuzyfaoziquq6bki22grib3g/spack-src
    nwchem branch   = 7.2.0
    nwchem revision = d0d141fd
    ga revision     = 5.8.0
    use scalapack   = T
    input           = ALA_SER_2.nw
    prefix          = ALA_SER_2.
    data base       = ./ALA_SER_2.db
    status          = startup
    nproc           =        8
    time left       =     -1s



           Memory information
           ------------------

    heap     =   26214400 doubles =    200.0 Mbytes
    stack    =   26214397 doubles =    200.0 Mbytes
    global   =   52428800 doubles =    400.0 Mbytes (distinct from heap & stack)
    total    =  104857597 doubles =    800.0 Mbytes
    verify   = yes
    hardfail = no 


           Directory information
           ---------------------

  0 permanent = .
  0 scratch   = .




                                NWChem Input Module
                                -------------------



 Scaling coordinates for geometry "geometry" by  1.889725989
 (inverse scale =  0.529177249)

 C1  symmetry detected

          ------
          auto-z
          ------
  no constraints, skipping    0.0000000000000000     
  no constraints, skipping    0.0000000000000000     


                             Geometry "geometry" -> ""
                             -------------------------

 Output coordinates in angstroms (scale by  1.889725989 to convert to a.u.)

  No.       Tag          Charge          X              Y              Z
 ---- ---------------- ---------- -------------- -------------- --------------
    1 H                    1.0000     1.73705630    -3.62461556     1.58225502
    2 C                    6.0000     1.75620497    -3.76749628     0.50330950
    3 H                    1.0000     1.38001256    -4.75791067     0.25221669
    4 H                    1.0000     2.77816886    -3.66296525     0.13996935
    5 C                    6.0000     0.89115003    -2.71972096    -0.15448974
    6 O                    8.0000     1.38083949    -1.91765334    -0.94304587
    7 N                    7.0000    -0.40019674    -2.71334010     0.17173686
    8 H                    1.0000    -0.72858768    -3.37027506     0.86019154
    9 C                    6.0000    -1.34020485    -1.71558348    -0.33529716
   10 H                    1.0000    -1.32927827    -1.75601594    -1.42567729
   11 C                    6.0000    -2.75366777    -2.07352306     0.14196673
   12 H                    1.0000    -2.79609128    -2.05275529     1.23185339
   13 H                    1.0000    -3.46764004    -1.35021581    -0.25254465
   14 H                    1.0000    -3.02534760    -3.06932458    -0.21225271
   15 C                    6.0000    -0.92307405    -0.29703836     0.10326600
   16 O                    8.0000    -0.81144784    -0.02017574     1.29423731
   17 N                    7.0000    -0.68131753     0.59208492    -0.86726147
   18 H                    1.0000    -0.77675604     0.27730790    -1.81969043
   19 C                    6.0000    -0.11715198     1.93861057    -0.65749512
   20 H                    1.0000     0.04312449     2.35914832    -1.65039665
   21 C                    6.0000    -1.13904989     2.85451740     0.03480637
   22 H                    1.0000    -2.10697123     2.76177126    -0.45890046
   23 H                    1.0000    -1.24522811     2.56646795     1.08187643
   24 O                    8.0000    -0.71347492     4.19669338    -0.04377209
   25 H                    1.0000     0.16563796     4.23433255     0.36655440
   26 C                    6.0000     1.26856336     1.97114795     0.02621191
   27 O                    8.0000     1.68706752     3.00149470     0.54693433
   28 N                    7.0000     2.02024739     0.87611411     0.03585556
   29 H                    1.0000     2.91386464     0.91603553     0.49537976
   30 H                    1.0000     1.68641063     0.01664746    -0.38165145

      Atomic Mass 
      ----------- 

      H                  1.007825
      C                 12.000000
      O                 15.994910
      N                 14.003070


 Effective nuclear repulsion energy (a.u.)    1091.4148409769

            Nuclear Dipole moment (a.u.) 
            ----------------------------
        X                 Y               Z
 ---------------- ---------------- ----------------
     0.0000000000     0.0000000000     0.0000000000



                                Z-matrix (autoz)
                                -------- 

 Units are Angstrom for bonds and degrees for angles

      Type          Name      I     J     K     L     M      Value
      ----------- --------  ----- ----- ----- ----- ----- ----------
    1 Stretch                  1     2                       1.08853
    2 Stretch                  2     3                       1.08880
    3 Stretch                  2     4                       1.08966
    4 Stretch                  2     5                       1.50959
    5 Stretch                  5     6                       1.22676
    6 Stretch                  5     7                       1.33193
    7 Stretch                  7     8                       1.00666
    8 Stretch                  7     9                       1.46158
    9 Stretch                  9    10                       1.09118
   10 Stretch                  9    11                       1.53420
   11 Stretch                  9    15                       1.54227
   12 Stretch                 11    12                       1.09091
   13 Stretch                 11    13                       1.09022
   14 Stretch                 11    14                       1.09128
   15 Stretch                 15    16                       1.22781
   16 Stretch                 15    17                       1.33825
   17 Stretch                 17    18                       1.00763
   18 Stretch                 17    19                       1.47493
   19 Stretch                 19    20                       1.09013
   20 Stretch                 19    21                       1.53702
   21 Stretch                 19    26                       1.54555
   22 Stretch                 21    22                       1.09051
   23 Stretch                 21    23                       1.09115
   24 Stretch                 21    24                       1.41022
   25 Stretch                 24    25                       0.97089
   26 Stretch                 26    27                       1.22797
   27 Stretch                 26    28                       1.32824
   28 Stretch                 28    29                       1.00564
   29 Stretch                 28    30                       1.01215
   30 Bend                     1     2     3               109.99289
   31 Bend                     1     2     4               109.53691
   32 Bend                     1     2     5               109.31274
   33 Bend                     2     5     6               120.34151
   34 Bend                     2     5     7               116.88354
   35 Bend                     3     2     4               109.53672
   36 Bend                     3     2     5               109.44370
   37 Bend                     4     2     5               108.99953
   38 Bend                     5     7     8               118.72823
   39 Bend                     5     7     9               122.80975
   40 Bend                     6     5     7               122.77342
   41 Bend                     7     9    10               108.35582
   42 Bend                     7     9    11               108.98648
   43 Bend                     7     9    15               110.81152
   44 Bend                     8     7     9               118.22505
   45 Bend                     9    11    12               110.00957
   46 Bend                     9    11    13               109.63298
   47 Bend                     9    11    14               109.95492
   48 Bend                     9    15    16               120.51877
   49 Bend                     9    15    17               116.98307
   50 Bend                    10     9    11               108.14567
   51 Bend                    10     9    15               108.39250
   52 Bend                    11     9    15               112.04344
   53 Bend                    12    11    13               108.87039
   54 Bend                    12    11    14               109.38870
   55 Bend                    13    11    14               108.96003
   56 Bend                    15    17    18               117.44071
   57 Bend                    15    17    19               124.92548
   58 Bend                    16    15    17               122.49468
   59 Bend                    17    19    20               106.19362
   60 Bend                    17    19    21               110.71800
   61 Bend                    17    19    26               115.15579
   62 Bend                    18    17    19               117.12011
   63 Bend                    19    21    22               109.60401
   64 Bend                    19    21    23               109.85306
   65 Bend                    19    21    24               109.96260
   66 Bend                    19    26    27               120.71827
   67 Bend                    19    26    28               119.55478
   68 Bend                    20    19    21               106.14776
   69 Bend                    20    19    26               105.24659
   70 Bend                    21    19    26               112.60042
   71 Bend                    21    24    25               106.65454
   72 Bend                    22    21    23               109.00310
   73 Bend                    22    21    24               108.87907
   74 Bend                    23    21    24               109.51693
   75 Bend                    26    28    29               118.26010
   76 Bend                    26    28    30               120.69099
   77 Bend                    27    26    28               119.72214
   78 Bend                    29    28    30               121.01672
   79 Torsion                  1     2     5     6         118.71183
   80 Torsion                  1     2     5     7         -60.85057
   81 Torsion                  2     5     7     8           2.55818
   82 Torsion                  2     5     7     9         176.86132
   83 Torsion                  3     2     5     6        -120.76322
   84 Torsion                  3     2     5     7          59.67439
   85 Torsion                  4     2     5     6          -0.98669
   86 Torsion                  4     2     5     7         179.45092
   87 Torsion                  5     7     9    10          57.78384
   88 Torsion                  5     7     9    11         175.24638
   89 Torsion                  5     7     9    15         -61.01651
   90 Torsion                  6     5     7     8        -176.99265
   91 Torsion                  6     5     7     9          -2.68951
   92 Torsion                  7     9    11    12          61.79755
   93 Torsion                  7     9    11    13        -178.50897
   94 Torsion                  7     9    11    14         -58.73897
   95 Torsion                  7     9    15    16         -58.44014
   96 Torsion                  7     9    15    17         120.89733
   97 Torsion                  8     7     9    10        -127.88586
   98 Torsion                  8     7     9    11         -10.42332
   99 Torsion                  8     7     9    15         113.31379
  100 Torsion                  9    15    17    18          -0.65520
  101 Torsion                  9    15    17    19        -172.17173
  102 Torsion                 10     9    11    12         179.39306
  103 Torsion                 10     9    11    13         -60.91347
  104 Torsion                 10     9    11    14          58.85653
  105 Torsion                 10     9    15    16        -177.21833
  106 Torsion                 10     9    15    17           2.11915
  107 Torsion                 11     9    15    16          63.52525
  108 Torsion                 11     9    15    17        -117.13728
  109 Torsion                 12    11     9    15         -61.20549
  110 Torsion                 13    11     9    15          58.48799
  111 Torsion                 14    11     9    15         178.25799
  112 Torsion                 15    17    19    20         174.49284
  113 Torsion                 15    17    19    21         -70.70616
  114 Torsion                 15    17    19    26          58.45829
  115 Torsion                 16    15    17    18         178.66812
  116 Torsion                 16    15    17    19           7.15159
  117 Torsion                 17    19    21    22         -47.06118
  118 Torsion                 17    19    21    23          72.68090
  119 Torsion                 17    19    21    24        -166.71831
  120 Torsion                 17    19    26    27        -161.87703
  121 Torsion                 17    19    26    28          18.92337
  122 Torsion                 18    17    19    20           2.95168
  123 Torsion                 18    17    19    21         117.75268
  124 Torsion                 18    17    19    26        -113.08287
  125 Torsion                 19    21    24    25         -57.30642
  126 Torsion                 19    26    28    29        -179.30364
  127 Torsion                 19    26    28    30          -1.34658
  128 Torsion                 20    19    21    22          67.76859
  129 Torsion                 20    19    21    23        -172.48934
  130 Torsion                 20    19    21    24         -51.88855
  131 Torsion                 20    19    26    27          81.54917
  132 Torsion                 20    19    26    28         -97.65042
  133 Torsion                 21    19    26    27         -33.64582
  134 Torsion                 21    19    26    28         147.15458
  135 Torsion                 22    21    19    26        -177.58148
  136 Torsion                 22    21    24    25        -177.40401
  137 Torsion                 23    21    19    26         -57.83940
  138 Torsion                 23    21    24    25          63.49688
  139 Torsion                 24    21    19    26          62.76139
  140 Torsion                 27    26    28    29           1.48870
  141 Torsion                 27    26    28    30         179.44576


            XYZ format geometry
            -------------------
    30
 geometry
 H                     1.73705630    -3.62461556     1.58225502
 C                     1.75620497    -3.76749628     0.50330950
 H                     1.38001256    -4.75791067     0.25221669
 H                     2.77816886    -3.66296525     0.13996935
 C                     0.89115003    -2.71972096    -0.15448974
 O                     1.38083949    -1.91765334    -0.94304587
 N                    -0.40019674    -2.71334010     0.17173686
 H                    -0.72858768    -3.37027506     0.86019154
 C                    -1.34020485    -1.71558348    -0.33529716
 H                    -1.32927827    -1.75601594    -1.42567729
 C                    -2.75366777    -2.07352306     0.14196673
 H                    -2.79609128    -2.05275529     1.23185339
 H                    -3.46764004    -1.35021581    -0.25254465
 H                    -3.02534760    -3.06932458    -0.21225271
 C                    -0.92307405    -0.29703836     0.10326600
 O                    -0.81144784    -0.02017574     1.29423731
 N                    -0.68131753     0.59208492    -0.86726147
 H                    -0.77675604     0.27730790    -1.81969043
 C                    -0.11715198     1.93861057    -0.65749512
 H                     0.04312449     2.35914832    -1.65039665
 C                    -1.13904989     2.85451740     0.03480637
 H                    -2.10697123     2.76177126    -0.45890046
 H                    -1.24522811     2.56646795     1.08187643
 O                    -0.71347492     4.19669338    -0.04377209
 H                     0.16563796     4.23433255     0.36655440
 C                     1.26856336     1.97114795     0.02621191
 O                     1.68706752     3.00149470     0.54693433
 N                     2.02024739     0.87611411     0.03585556
 H                     2.91386464     0.91603553     0.49537976
 H                     1.68641063     0.01664746    -0.38165145

 ==============================================================================
                                internuclear distances
 ------------------------------------------------------------------------------
       center one      |      center two      | atomic units |  angstroms
 ------------------------------------------------------------------------------
    2 C                |   1 H                |     2.05703  |     1.08853
    3 H                |   2 C                |     2.05754  |     1.08880
    4 H                |   2 C                |     2.05915  |     1.08966
    5 C                |   2 C                |     2.85271  |     1.50959
    6 O                |   5 C                |     2.31823  |     1.22676
    7 N                |   5 C                |     2.51699  |     1.33193
    8 H                |   7 N                |     1.90232  |     1.00666
    9 C                |   7 N                |     2.76199  |     1.46158
   10 H                |   9 C                |     2.06204  |     1.09118
   11 C                |   9 C                |     2.89922  |     1.53420
   12 H                |  11 C                |     2.06152  |     1.09091
   13 H                |  11 C                |     2.06021  |     1.09022
   14 H                |  11 C                |     2.06223  |     1.09128
   15 C                |   9 C                |     2.91447  |     1.54227
   16 O                |  15 C                |     2.32023  |     1.22781
   17 N                |  15 C                |     2.52892  |     1.33825
   18 H                |  17 N                |     1.90414  |     1.00763
   19 C                |  17 N                |     2.78721  |     1.47493
   20 H                |  19 C                |     2.06006  |     1.09013
   21 C                |  19 C                |     2.90455  |     1.53702
   22 H                |  21 C                |     2.06077  |     1.09051
   23 H                |  21 C                |     2.06197  |     1.09115
   24 O                |  21 C                |     2.66493  |     1.41022
   25 H                |  24 O                |     1.83471  |     0.97089
   26 C                |  19 C                |     2.92066  |     1.54555
   27 O                |  26 C                |     2.32053  |     1.22797
   28 N                |  26 C                |     2.51001  |     1.32824
   29 H                |  28 N                |     1.90038  |     1.00564
   30 H                |  28 N                |     1.91268  |     1.01215
 ------------------------------------------------------------------------------
                         number of included internuclear distances:         29
 ==============================================================================



 ==============================================================================
                                 internuclear angles
 ------------------------------------------------------------------------------
        center 1       |       center 2       |       center 3       |  degrees
 ------------------------------------------------------------------------------
    1 H                |   2 C                |   3 H                |   109.99
    1 H                |   2 C                |   4 H                |   109.54
    1 H                |   2 C                |   5 C                |   109.31
    3 H                |   2 C                |   4 H                |   109.54
    3 H                |   2 C                |   5 C                |   109.44
    4 H                |   2 C                |   5 C                |   109.00
    2 C                |   5 C                |   6 O                |   120.34
    2 C                |   5 C                |   7 N                |   116.88
    6 O                |   5 C                |   7 N                |   122.77
    5 C                |   7 N                |   8 H                |   118.73
    5 C                |   7 N                |   9 C                |   122.81
    8 H                |   7 N                |   9 C                |   118.23
    7 N                |   9 C                |  10 H                |   108.36
    7 N                |   9 C                |  11 C                |   108.99
    7 N                |   9 C                |  15 C                |   110.81
   10 H                |   9 C                |  11 C                |   108.15
   10 H                |   9 C                |  15 C                |   108.39
   11 C                |   9 C                |  15 C                |   112.04
    9 C                |  11 C                |  12 H                |   110.01
    9 C                |  11 C                |  13 H                |   109.63
    9 C                |  11 C                |  14 H                |   109.95
   12 H                |  11 C                |  13 H                |   108.87
   12 H                |  11 C                |  14 H                |   109.39
   13 H                |  11 C                |  14 H                |   108.96
    9 C                |  15 C                |  16 O                |   120.52
    9 C                |  15 C                |  17 N                |   116.98
   16 O                |  15 C                |  17 N                |   122.49
   15 C                |  17 N                |  18 H                |   117.44
   15 C                |  17 N                |  19 C                |   124.93
   18 H                |  17 N                |  19 C                |   117.12
   17 N                |  19 C                |  20 H                |   106.19
   17 N                |  19 C                |  21 C                |   110.72
   17 N                |  19 C                |  26 C                |   115.16
   20 H                |  19 C                |  21 C                |   106.15
   20 H                |  19 C                |  26 C                |   105.25
   21 C                |  19 C                |  26 C                |   112.60
   19 C                |  21 C                |  22 H                |   109.60
   19 C                |  21 C                |  23 H                |   109.85
   19 C                |  21 C                |  24 O                |   109.96
   22 H                |  21 C                |  23 H                |   109.00
   22 H                |  21 C                |  24 O                |   108.88
   23 H                |  21 C                |  24 O                |   109.52
   21 C                |  24 O                |  25 H                |   106.65
   19 C                |  26 C                |  27 O                |   120.72
   19 C                |  26 C                |  28 N                |   119.55
   27 O                |  26 C                |  28 N                |   119.72
   26 C                |  28 N                |  29 H                |   118.26
   26 C                |  28 N                |  30 H                |   120.69
   29 H                |  28 N                |  30 H                |   121.02
 ------------------------------------------------------------------------------
                            number of included internuclear angles:         49
 ==============================================================================



  library name resolved from: environment
  library file name is: </opt/rit/el9/20230413/app/linux-rhel9-x86_64_v3/gcc-11.2.1/nwchem-7.2.0-oxtctbuhfuzyfaoziquq6bki22grib3g/share/nwchem/libraries/>
  


 Summary of "ao basis" -> "" (cartesian)
 ------------------------------------------------------------------------------
       Tag                 Description            Shells   Functions and Types
 ---------------- ------------------------------  ------  ---------------------
 *                        aug-cc-pvdz                 on all atoms 


                      Basis "ao basis" -> "ao basis" (cartesian)
                      -----
  H (Hydrogen)
  ------------
            Exponent  Coefficients 
       -------------- ---------------------------------------------------------
  1 S  1.30100000E+01  0.019685
  1 S  1.96200000E+00  0.137977
  1 S  4.44600000E-01  0.478148

  2 S  1.22000000E-01  1.000000

  3 S  2.97400000E-02  1.000000

  4 P  7.27000000E-01  1.000000

  5 P  1.41000000E-01  1.000000

  C (Carbon)
  ----------
            Exponent  Coefficients 
       -------------- ---------------------------------------------------------
  1 S  6.66500000E+03  0.000692
  1 S  1.00000000E+03  0.005329
  1 S  2.28000000E+02  0.027077
  1 S  6.47100000E+01  0.101718
  1 S  2.10600000E+01  0.274740
  1 S  7.49500000E+00  0.448564
  1 S  2.79700000E+00  0.285074
  1 S  5.21500000E-01  0.015204

  2 S  6.66500000E+03 -0.000146
  2 S  1.00000000E+03 -0.001154
  2 S  2.28000000E+02 -0.005725
  2 S  6.47100000E+01 -0.023312
  2 S  2.10600000E+01 -0.063955
  2 S  7.49500000E+00 -0.149981
  2 S  2.79700000E+00 -0.127262
  2 S  5.21500000E-01  0.544529

  3 S  1.59600000E-01  1.000000

  4 S  4.69000000E-02  1.000000

  5 P  9.43900000E+00  0.038109
  5 P  2.00200000E+00  0.209480
  5 P  5.45600000E-01  0.508557

  6 P  1.51700000E-01  1.000000

  7 P  4.04100000E-02  1.000000

  8 D  5.50000000E-01  1.000000

  9 D  1.51000000E-01  1.000000

  O (Oxygen)
  ----------
            Exponent  Coefficients 
       -------------- ---------------------------------------------------------
  1 S  1.17200000E+04  0.000710
  1 S  1.75900000E+03  0.005470
  1 S  4.00800000E+02  0.027837
  1 S  1.13700000E+02  0.104800
  1 S  3.70300000E+01  0.283062
  1 S  1.32700000E+01  0.448719
  1 S  5.02500000E+00  0.270952
  1 S  1.01300000E+00  0.015458

  2 S  1.17200000E+04 -0.000160
  2 S  1.75900000E+03 -0.001263
  2 S  4.00800000E+02 -0.006267
  2 S  1.13700000E+02 -0.025716
  2 S  3.70300000E+01 -0.070924
  2 S  1.32700000E+01 -0.165411
  2 S  5.02500000E+00 -0.116955
  2 S  1.01300000E+00  0.557368

  3 S  3.02300000E-01  1.000000

  4 S  7.89600000E-02  1.000000

  5 P  1.77000000E+01  0.043018
  5 P  3.85400000E+00  0.228913
  5 P  1.04600000E+00  0.508728

  6 P  2.75300000E-01  1.000000

  7 P  6.85600000E-02  1.000000

  8 D  1.18500000E+00  1.000000

  9 D  3.32000000E-01  1.000000

  N (Nitrogen)
  ------------
            Exponent  Coefficients 
       -------------- ---------------------------------------------------------
  1 S  9.04600000E+03  0.000700
  1 S  1.35700000E+03  0.005389
  1 S  3.09300000E+02  0.027406
  1 S  8.77300000E+01  0.103207
  1 S  2.85600000E+01  0.278723
  1 S  1.02100000E+01  0.448540
  1 S  3.83800000E+00  0.278238
  1 S  7.46600000E-01  0.015440

  2 S  9.04600000E+03 -0.000153
  2 S  1.35700000E+03 -0.001208
  2 S  3.09300000E+02 -0.005992
  2 S  8.77300000E+01 -0.024544
  2 S  2.85600000E+01 -0.067459
  2 S  1.02100000E+01 -0.158078
  2 S  3.83800000E+00 -0.121831
  2 S  7.46600000E-01  0.549003

  3 S  2.24800000E-01  1.000000

  4 S  6.12400000E-02  1.000000

  5 P  1.35500000E+01  0.039919
  5 P  2.91700000E+00  0.217169
  5 P  7.97300000E-01  0.510319

  6 P  2.18500000E-01  1.000000

  7 P  5.61100000E-02  1.000000

  8 D  8.17000000E-01  1.000000

  9 D  2.30000000E-01  1.000000



 Summary of "ao basis" -> "ao basis" (cartesian)
 ------------------------------------------------------------------------------
       Tag                 Description            Shells   Functions and Types
 ---------------- ------------------------------  ------  ---------------------
 H                        aug-cc-pvdz                5        9   3s2p
 C                        aug-cc-pvdz                9       25   4s3p2d
 O                        aug-cc-pvdz                9       25   4s3p2d
 N                        aug-cc-pvdz                9       25   4s3p2d


                                 NWChem SCF Module
                                 -----------------



  ao basis        = "ao basis"
  functions       =   510
  atoms           =    30
  closed shells   =    58
  open shells     =     0
  charge          =   0.00
  wavefunction    = RHF 
  input vectors   = atomic
  output vectors  = ./ALA_SER_2.movecs
  use symmetry    = F
  symmetry adapt  = F


 Summary of "ao basis" -> "ao basis" (cartesian)
 ------------------------------------------------------------------------------
       Tag                 Description            Shells   Functions and Types
 ---------------- ------------------------------  ------  ---------------------
 H                        aug-cc-pvdz                5        9   3s2p
 C                        aug-cc-pvdz                9       25   4s3p2d
 O                        aug-cc-pvdz                9       25   4s3p2d
 N                        aug-cc-pvdz                9       25   4s3p2d



 Forming initial guess at       1.1s


 !! The overlap matrix has   3 vectors deemed linearly dependent with
    eigenvalues:
 3.10D-06 5.41D-06 8.98D-06


      Superposition of Atomic Density Guess
      -------------------------------------

 Sum of atomic energies:        -770.80158829

      Non-variational initial energy
      ------------------------------

 Total energy =    -780.121207
 1-e energy   =   -3217.485090
 2-e energy   =    1345.949043
 HOMO         =      -0.310007
 LUMO         =       0.012909


 Starting SCF solution at     196.3s



 ----------------------------------------------
         Quadratically convergent ROHF

 Convergence threshold     :          1.000E-04
 Maximum no. of iterations :           30
 Final Fock-matrix accuracy:          1.000E-10
 ----------------------------------------------


              iter       energy          gnorm     gmax       time
             ----- ------------------- --------- --------- --------
                 1     -774.2856370760  2.43D+00  1.67D-01    364.0
                 2     -774.5966862841  7.95D-01  4.33D-02    737.2
                 3     -774.6517307057  6.44D-02  4.83D-03   1292.2
                 4     -774.6523399875  4.11D-03  4.31D-04   2032.7
                 5     -774.6523431170  8.60D-06  4.45D-07   3288.7


       Final RHF  results 
       ------------------ 

         Total SCF energy =   -774.652343117040
      One-electron energy =  -3228.093277347713
      Two-electron energy =   1362.026093253776
 Nuclear repulsion energy =   1091.414840976897

        Time for solution =   3099.1s


             Final eigenvalues
             -----------------

              1      
    1  -20.5517
    2  -20.5399
    3  -20.5378
    4  -20.5223
    5  -15.6236
    6  -15.6163
    7  -15.5798
    8  -11.3807
    9  -11.3720
   10  -11.3583
   11  -11.3185
   12  -11.3000
   13  -11.2762
   14  -11.2619
   15  -11.2609
   16   -1.4158
   17   -1.3987
   18   -1.3853
   19   -1.3406
   20   -1.2711
   21   -1.2577
   22   -1.2066
   23   -1.0846
   24   -1.0297
   25   -1.0118
   26   -0.9129
   27   -0.8820
   28   -0.8396
   29   -0.8168
   30   -0.7813
   31   -0.7463
   32   -0.7319
   33   -0.7083
   34   -0.6971
   35   -0.6834
   36   -0.6755
   37   -0.6414
   38   -0.6352
   39   -0.6190
   40   -0.6113
   41   -0.6058
   42   -0.5925
   43   -0.5881
   44   -0.5851
   45   -0.5645
   46   -0.5601
   47   -0.5538
   48   -0.5433
   49   -0.5341
   50   -0.5284
   51   -0.4961
   52   -0.4542
   53   -0.4518
   54   -0.4466
   55   -0.4234
   56   -0.4153
   57   -0.4040
   58   -0.3898
   59    0.0193
   60    0.0295
   61    0.0357
   62    0.0417
   63    0.0489
   64    0.0518
   65    0.0586
   66    0.0650
   67    0.0667
   68    0.0733

                       ROHF Final Molecular Orbital Analysis
                       -------------------------------------

 Vector   16  Occ=2.000000D+00  E=-1.415784D+00
              MO Center=  8.0D-01, -2.0D+00, -4.5D-01, r^2= 1.9D+00
   Bfn.  Coefficient  Atom+Function         Bfn.  Coefficient  Atom+Function  
  ----- ------------  ---------------      ----- ------------  ---------------
    80      0.335126   6 O  s                79      0.326116   6 O  s         
    54      0.230343   5 C  s                12      0.201328   2 C  s         

 Vector   17  Occ=2.000000D+00  E=-1.398694D+00
              MO Center= -4.0D-01, -4.5D-02,  4.8D-01, r^2= 2.9D+00
   Bfn.  Coefficient  Atom+Function         Bfn.  Coefficient  Atom+Function  
  ----- ------------  ---------------      ----- ------------  ---------------
   250      0.331727  16 O  s               249      0.310408  16 O  s         
   224      0.221842  15 C  s         

 Vector   18  Occ=2.000000D+00  E=-1.385263D+00
              MO Center=  1.3D+00,  2.3D+00,  3.8D-01, r^2= 2.2D+00
   Bfn.  Coefficient  Atom+Function         Bfn.  Coefficient  Atom+Function  
  ----- ------------  ---------------      ----- ------------  ---------------
   445      0.363835  27 O  s               444      0.333117  27 O  s         
   419      0.226201  26 C  s         

 Vector   19  Occ=2.000000D+00  E=-1.340590D+00
              MO Center= -5.4D-01,  3.9D+00,  3.1D-02, r^2= 1.1D+00
   Bfn.  Coefficient  Atom+Function         Bfn.  Coefficient  Atom+Function  
  ----- ------------  ---------------      ----- ------------  ---------------
   386      0.436889  24 O  s               385      0.394613  24 O  s         
   343     -0.197080  21 C  s               409      0.183171  25 H  s         

 Vector   20  Occ=2.000000D+00  E=-1.271080D+00
              MO Center= -1.7D-01, -2.5D+00, -6.9D-03, r^2= 1.7D+00
   Bfn.  Coefficient  Atom+Function         Bfn.  Coefficient  Atom+Function  
  ----- ------------  ---------------      ----- ------------  ---------------
   105      0.424735   7 N  s               104      0.343622   7 N  s         
    80     -0.217928   6 O  s                79     -0.182571   6 O  s         
   139     -0.159723   9 C  s                57     -0.158081   5 C  px        
   128      0.156705   8 H  s         

 Vector   21  Occ=2.000000D+00  E=-1.257712D+00
              MO Center= -5.3D-01,  5.9D-01, -4.5D-01, r^2= 2.1D+00
   Bfn.  Coefficient  Atom+Function         Bfn.  Coefficient  Atom+Function  
  ----- ------------  ---------------      ----- ------------  ---------------
   275      0.362195  17 N  s               274      0.338354  17 N  s         
   250     -0.219746  16 O  s               229     -0.183444  15 C  pz        
   249     -0.178286  16 O  s               309     -0.162980  19 C  s         
   298      0.155910  18 H  s         

 Vector   22  Occ=2.000000D+00  E=-1.206621D+00
              MO Center=  1.7D+00,  1.2D+00,  4.3D-02, r^2= 1.7D+00
   Bfn.  Coefficient  Atom+Function         Bfn.  Coefficient  Atom+Function  
  ----- ------------  ---------------      ----- ------------  ---------------
   470      0.416351  28 N  s               469      0.367822  28 N  s         
   423     -0.199687  26 C  py              445     -0.199475  27 O  s         
   444     -0.168295  27 O  s               309     -0.163486  19 C  s         
   502      0.160632  30 H  s               425     -0.157504  26 C  px        
   493      0.158172  29 H  s               421      0.151415  26 C  s         

 Vector   23  Occ=2.000000D+00  E=-1.084600D+00
              MO Center= -9.1D-01, -1.8D+00, -6.5D-02, r^2= 4.9D+00
   Bfn.  Coefficient  Atom+Function         Bfn.  Coefficient  Atom+Function  
  ----- ------------  ---------------      ----- ------------  ---------------
   138      0.240103   9 C  s               172      0.200171  11 C  s         
    12     -0.162795   2 C  s               144     -0.156085   9 C  px        

 Vector   24  Occ=2.000000D+00  E=-1.029685D+00
              MO Center= -8.5D-02,  8.4D-01, -2.9D-01, r^2= 7.3D+00
   Bfn.  Coefficient  Atom+Function         Bfn.  Coefficient  Atom+Function  
  ----- ------------  ---------------      ----- ------------  ---------------
   308      0.267872  19 C  s               342      0.157066  21 C  s         

 Vector   25  Occ=2.000000D+00  E=-1.011761D+00
              MO Center=  3.0D-01, -2.7D+00,  2.4D-01, r^2= 7.0D+00
   Bfn.  Coefficient  Atom+Function         Bfn.  Coefficient  Atom+Function  
  ----- ------------  ---------------      ----- ------------  ---------------
    11      0.293296   2 C  s               172      0.190294  11 C  s         
   144     -0.174176   9 C  px              174      0.172116  11 C  s         

 Vector   26  Occ=2.000000D+00  E=-9.128769D-01
              MO Center= -1.5D+00, -9.6D-01, -3.5D-02, r^2= 6.6D+00
   Bfn.  Coefficient  Atom+Function         Bfn.  Coefficient  Atom+Function  
  ----- ------------  ---------------      ----- ------------  ---------------
   139      0.334525   9 C  s               145      0.296580   9 C  py        
   231      0.252512  15 C  py              225     -0.235427  15 C  s         
   172     -0.228447  11 C  s               144      0.222455   9 C  px        
   138      0.178525   9 C  s               276      0.177869  17 N  s         
   245     -0.164259  15 C  dyy       

 Vector   27  Occ=2.000000D+00  E=-8.820270D-01
              MO Center= -4.4D-01,  1.8D+00, -8.2D-02, r^2= 6.0D+00
   Bfn.  Coefficient  Atom+Function         Bfn.  Coefficient  Atom+Function  
  ----- ------------  ---------------      ----- ------------  ---------------
   314      0.273512  19 C  px              342     -0.262181  21 C  s         
   309      0.211686  19 C  s               366     -0.169655  22 H  s         

 Vector   28  Occ=2.000000D+00  E=-8.396005D-01
              MO Center= -1.1D-02, -1.3D+00, -8.2D-02, r^2= 6.4D+00
   Bfn.  Coefficient  Atom+Function         Bfn.  Coefficient  Atom+Function  
  ----- ------------  ---------------      ----- ------------  ---------------
   107      0.268509   7 N  px              309      0.190548  19 C  s         
    54      0.177210   5 C  s               139      0.171112   9 C  s         
   128     -0.163031   8 H  s               314      0.154881  19 C  px        

 Vector   29  Occ=2.000000D+00  E=-8.167662D-01
              MO Center= -1.7D-01, -7.8D-01, -2.3D-01, r^2= 5.8D+00
   Bfn.  Coefficient  Atom+Function         Bfn.  Coefficient  Atom+Function  
  ----- ------------  ---------------      ----- ------------  ---------------
   279      0.230425  17 N  pz              128      0.226747   8 H  s         
   309      0.193942  19 C  s               107     -0.170116   7 N  px        
   298     -0.169721  18 H  s               105      0.156315   7 N  s         
   109      0.152208   7 N  pz        

 Vector   30  Occ=2.000000D+00  E=-7.813120D-01
              MO Center=  8.4D-01,  1.3D+00, -1.3D-01, r^2= 4.5D+00
   Bfn.  Coefficient  Atom+Function         Bfn.  Coefficient  Atom+Function  
  ----- ------------  ---------------      ----- ------------  ---------------
   473      0.287187  28 N  py              502     -0.205423  30 H  s         
   298      0.179319  18 H  s               279     -0.177132  17 N  pz        
   419      0.169534  26 C  s               445     -0.150281  27 O  s         

 Vector   31  Occ=2.000000D+00  E=-7.462846D-01
              MO Center= -6.6D-01, -8.5D-01, -1.9D-01, r^2= 5.1D+00
   Bfn.  Coefficient  Atom+Function         Bfn.  Coefficient  Atom+Function  
  ----- ------------  ---------------      ----- ------------  ---------------
   225     -0.311706  15 C  s               145      0.298827   9 C  py        
   142      0.211846   9 C  py              228     -0.202030  15 C  py        
   109      0.198944   7 N  pz               55     -0.185693   5 C  s         
   279     -0.186387  17 N  pz              163     -0.161990  10 H  s         
   128      0.157117   8 H  s               298      0.151991  18 H  s         

 Vector   32  Occ=2.000000D+00  E=-7.318774D-01
              MO Center=  9.4D-01,  5.1D-01, -1.3D-01, r^2= 5.3D+00
   Bfn.  Coefficient  Atom+Function         Bfn.  Coefficient  Atom+Function  
  ----- ------------  ---------------      ----- ------------  ---------------
   502      0.242241  30 H  s               493     -0.211442  29 H  s         
   503      0.201028  30 H  s               472     -0.196900  28 N  px        
   473     -0.195375  28 N  py              314      0.189093  19 C  px        
   421      0.165893  26 C  s               494     -0.151559  29 H  s         

 Vector   33  Occ=2.000000D+00  E=-7.082777D-01
              MO Center= -3.1D-01, -1.4D+00,  1.1D-02, r^2= 7.1D+00
   Bfn.  Coefficient  Atom+Function         Bfn.  Coefficient  Atom+Function  
  ----- ------------  ---------------      ----- ------------  ---------------
   139      0.253771   9 C  s               108     -0.208277   7 N  py        
   231      0.202441  15 C  py               56      0.191852   5 C  s         
   143     -0.188422   9 C  pz              162      0.186271  10 H  s         

 Vector   34  Occ=2.000000D+00  E=-6.971314D-01
              MO Center=  9.8D-01, -1.0D+00, -1.9D-01, r^2= 7.7D+00
   Bfn.  Coefficient  Atom+Function         Bfn.  Coefficient  Atom+Function  
  ----- ------------  ---------------      ----- ------------  ---------------
    57      0.212975   5 C  px               80     -0.195082   6 O  s         
    84      0.182514   6 O  pz               83     -0.178126   6 O  py        
   472     -0.166275  28 N  px              493     -0.159046  29 H  s         
    18      0.157426   2 C  py               15      0.154252   2 C  py        

 Vector   35  Occ=2.000000D+00  E=-6.833662D-01
              MO Center= -1.3D-01,  7.4D-01, -1.4D-01, r^2= 9.0D+00
   Bfn.  Coefficient  Atom+Function         Bfn.  Coefficient  Atom+Function  
  ----- ------------  ---------------      ----- ------------  ---------------
   139      0.204845   9 C  s               388     -0.154129  24 O  px        

 Vector   36  Occ=2.000000D+00  E=-6.754784D-01
              MO Center= -2.9D-01,  1.4D+00, -1.5D-01, r^2= 8.4D+00
   Bfn.  Coefficient  Atom+Function         Bfn.  Coefficient  Atom+Function  
  ----- ------------  ---------------      ----- ------------  ---------------
   139      0.336569   9 C  s               225     -0.295262  15 C  s         
   145      0.241995   9 C  py              388      0.204563  24 O  px        
   409      0.195314  25 H  s               278      0.160132  17 N  py        
   346     -0.158093  21 C  py              420      0.154365  26 C  s         
   390      0.152057  24 O  pz        

 Vector   37  Occ=2.000000D+00  E=-6.414095D-01
              MO Center=  7.8D-01, -1.5D+00,  1.6D-01, r^2= 9.3D+00
   Bfn.  Coefficient  Atom+Function         Bfn.  Coefficient  Atom+Function  
  ----- ------------  ---------------      ----- ------------  ---------------
   139      0.261610   9 C  s               225     -0.238767  15 C  s         
    59      0.194578   5 C  pz               15      0.176746   2 C  py        
    35     -0.177395   3 H  s                16      0.171388   2 C  pz        
     1      0.162431   1 H  s         

 Vector   38  Occ=2.000000D+00  E=-6.351563D-01
              MO Center=  3.5D-01,  8.9D-01,  1.4D-01, r^2= 8.5D+00
   Bfn.  Coefficient  Atom+Function         Bfn.  Coefficient  Atom+Function  
  ----- ------------  ---------------      ----- ------------  ---------------
   254     -0.177976  16 O  pz              229      0.175015  15 C  pz        
   343      0.172425  21 C  s               423      0.168709  26 C  py        
   312     -0.163997  19 C  py              388     -0.158356  24 O  px        
   250     -0.153949  16 O  s         

 Vector   39  Occ=2.000000D+00  E=-6.190134D-01
              MO Center= -9.7D-01, -8.4D-01,  5.1D-01, r^2= 7.2D+00
   Bfn.  Coefficient  Atom+Function         Bfn.  Coefficient  Atom+Function  
  ----- ------------  ---------------      ----- ------------  ---------------
   254      0.329433  16 O  pz              229     -0.226124  15 C  pz        
   250      0.215695  16 O  s               214     -0.180085  14 H  s         
   215     -0.171291  14 H  s               257      0.167443  16 O  pz        
   173      0.159994  11 C  s               176      0.152387  11 C  py        

 Vector   40  Occ=2.000000D+00  E=-6.113210D-01
              MO Center=  3.5D-01,  1.4D+00,  1.3D-01, r^2= 6.3D+00
   Bfn.  Coefficient  Atom+Function         Bfn.  Coefficient  Atom+Function  
  ----- ------------  ---------------      ----- ------------  ---------------
   448      0.216449  27 O  py              277      0.199872  17 N  px        
   445      0.177129  27 O  s               423     -0.165781  26 C  py        
   280      0.157980  17 N  px              343      0.150730  21 C  s         
   502     -0.150361  30 H  s         

 Vector   41  Occ=2.000000D+00  E=-6.057647D-01
              MO Center=  2.2D-01, -1.9D+00, -1.3D-01, r^2= 7.4D+00
   Bfn.  Coefficient  Atom+Function         Bfn.  Coefficient  Atom+Function  
  ----- ------------  ---------------      ----- ------------  ---------------
    58      0.242977   5 C  py               82     -0.237756   6 O  px        
   139      0.221776   9 C  s               225     -0.205176  15 C  s         
   145      0.191505   9 C  py               59     -0.183113   5 C  pz        
    84      0.172814   6 O  pz               80     -0.156053   6 O  s         
    85     -0.153459   6 O  px              128      0.150190   8 H  s         

 Vector   42  Occ=2.000000D+00  E=-5.925211D-01
              MO Center=  1.3D-01, -2.6D+00,  2.3D-01, r^2= 9.0D+00
   Bfn.  Coefficient  Atom+Function         Bfn.  Coefficient  Atom+Function  
  ----- ------------  ---------------      ----- ------------  ---------------
    44      0.274895   4 H  s                45      0.251421   4 H  s         
    14      0.245464   2 C  px              205      0.227660  13 H  s         
   139      0.224621   9 C  s               175     -0.205892  11 C  px        
   206      0.189888  13 H  s                16     -0.187753   2 C  pz        
   225     -0.177269  15 C  s                13     -0.172543   2 C  s         

 Vector   43  Occ=2.000000D+00  E=-5.880883D-01
              MO Center=  2.7D-01,  1.6D+00,  6.4D-02, r^2= 7.1D+00
   Bfn.  Coefficient  Atom+Function         Bfn.  Coefficient  Atom+Function  
  ----- ------------  ---------------      ----- ------------  ---------------
   424      0.208768  26 C  pz              449      0.175808  27 O  pz        
   139      0.158111   9 C  s               347     -0.157325  21 C  pz        
   345      0.155870  21 C  px              390     -0.151321  24 O  pz        

 Vector   44  Occ=2.000000D+00  E=-5.850827D-01
              MO Center= -5.5D-01,  6.6D-01,  5.1D-02, r^2= 1.2D+01
   Bfn.  Coefficient  Atom+Function         Bfn.  Coefficient  Atom+Function  
  ----- ------------  ---------------      ----- ------------  ---------------
   389      0.245276  24 O  py              345     -0.204304  21 C  px        
   366      0.183552  22 H  s               392      0.168779  24 O  py        

 Vector   45  Occ=2.000000D+00  E=-5.644657D-01
              MO Center= -2.5D-01, -3.1D-02,  7.7D-02, r^2= 1.3D+01
   Bfn.  Coefficient  Atom+Function         Bfn.  Coefficient  Atom+Function  
  ----- ------------  ---------------      ----- ------------  ---------------
   206      0.241198  13 H  s                12      0.209519   2 C  s         
   226     -0.201745  15 C  s               205      0.183546  13 H  s         
   389     -0.175091  24 O  py              422      0.173228  26 C  px        
    55     -0.168622   5 C  s                14     -0.163948   2 C  px        
   176      0.162484  11 C  py        

 Vector   46  Occ=2.000000D+00  E=-5.601241D-01
              MO Center= -8.1D-01, -1.1D+00,  9.5D-02, r^2= 1.1D+01
   Bfn.  Coefficient  Atom+Function         Bfn.  Coefficient  Atom+Function  
  ----- ------------  ---------------      ----- ------------  ---------------
   206      0.221025  13 H  s               176      0.215259  11 C  py        
    12      0.208274   2 C  s                55     -0.203515   5 C  s         
   214     -0.188847  14 H  s               215     -0.187640  14 H  s         
   205      0.179210  13 H  s                44     -0.155681   4 H  s         

 Vector   47  Occ=2.000000D+00  E=-5.538195D-01
              MO Center= -8.4D-01, -8.6D-01,  1.1D-01, r^2= 9.5D+00
   Bfn.  Coefficient  Atom+Function         Bfn.  Coefficient  Atom+Function  
  ----- ------------  ---------------      ----- ------------  ---------------
   177      0.254577  11 C  pz              196      0.240370  12 H  s         
   197      0.203696  12 H  s               448     -0.165769  27 O  py        
   108     -0.161310   7 N  py              314     -0.162077  19 C  px        
   163      0.160254  10 H  s               143     -0.151677   9 C  pz        

 Vector   48  Occ=2.000000D+00  E=-5.433396D-01
              MO Center= -6.6D-01, -1.2D+00,  5.6D-02, r^2= 7.5D+00
   Bfn.  Coefficient  Atom+Function         Bfn.  Coefficient  Atom+Function  
  ----- ------------  ---------------      ----- ------------  ---------------
   175     -0.227152  11 C  px              141      0.223255   9 C  px        
   144      0.159622   9 C  px        

 Vector   49  Occ=2.000000D+00  E=-5.340502D-01
              MO Center=  2.9D-01,  1.8D+00, -9.2D-02, r^2= 6.1D+00
   Bfn.  Coefficient  Atom+Function         Bfn.  Coefficient  Atom+Function  
  ----- ------------  ---------------      ----- ------------  ---------------
   332      0.228827  20 H  s               449      0.215525  27 O  pz        
   313     -0.191958  19 C  pz              424      0.169500  26 C  pz        
   452      0.162879  27 O  pz              390      0.151081  24 O  pz        

 Vector   50  Occ=2.000000D+00  E=-5.283974D-01
              MO Center= -3.5D-01, -1.3D+00, -1.6D-01, r^2= 7.8D+00
   Bfn.  Coefficient  Atom+Function         Bfn.  Coefficient  Atom+Function  
  ----- ------------  ---------------      ----- ------------  ---------------
   143     -0.206237   9 C  pz              162      0.204598  10 H  s         
   174      0.203958  11 C  s               178     -0.197586  11 C  px        
    84      0.189271   6 O  pz              177      0.180955  11 C  pz        
   163      0.172346  10 H  s               196      0.171487  12 H  s         
   215     -0.150325  14 H  s         

 Vector   51  Occ=2.000000D+00  E=-4.961274D-01
              MO Center= -4.8D-01,  2.9D+00,  1.5D-02, r^2= 4.4D+00
   Bfn.  Coefficient  Atom+Function         Bfn.  Coefficient  Atom+Function  
  ----- ------------  ---------------      ----- ------------  ---------------
   389      0.268015  24 O  py              447      0.221770  27 O  px        
   392      0.202420  24 O  py              366     -0.194853  22 H  s         
   346     -0.187478  21 C  py              386      0.180985  24 O  s         
   450      0.178377  27 O  px              367     -0.176265  22 H  s         
   345      0.171868  21 C  px              388     -0.170720  24 O  px        

 Vector   52  Occ=2.000000D+00  E=-4.542438D-01
              MO Center= -6.1D-02, -4.6D-01,  1.9D-01, r^2= 6.3D+00
   Bfn.  Coefficient  Atom+Function         Bfn.  Coefficient  Atom+Function  
  ----- ------------  ---------------      ----- ------------  ---------------
   252      0.251526  16 O  px              253      0.233253  16 O  py        
   109      0.201140   7 N  pz              276      0.201701  17 N  s         
   255      0.200316  16 O  px               83     -0.198000   6 O  py        
   256      0.177563  16 O  py               84     -0.165495   6 O  pz        
   112      0.163298   7 N  pz               86     -0.158654   6 O  py        

 Vector   53  Occ=2.000000D+00  E=-4.518136D-01
              MO Center=  2.5D-01, -9.0D-01, -4.3D-02, r^2= 7.2D+00
   Bfn.  Coefficient  Atom+Function         Bfn.  Coefficient  Atom+Function  
  ----- ------------  ---------------      ----- ------------  ---------------
    82      0.344758   6 O  px              276      0.302667  17 N  s         
    85      0.284769   6 O  px              253     -0.275715  16 O  py        
    13      0.238264   2 C  s               226     -0.216625  15 C  s         
   256     -0.212579  16 O  py              390      0.157352  24 O  pz        
    84      0.155044   6 O  pz        

 Vector   54  Occ=2.000000D+00  E=-4.466313D-01
              MO Center=  2.4D-01,  6.0D-02, -1.8D-01, r^2= 9.7D+00
   Bfn.  Coefficient  Atom+Function         Bfn.  Coefficient  Atom+Function  
  ----- ------------  ---------------      ----- ------------  ---------------
    82      0.313663   6 O  px               13      0.266771   2 C  s         
    85      0.252863   6 O  px              390     -0.246811  24 O  pz        
   226     -0.221835  15 C  s               421      0.222838  26 C  s         
    83     -0.202350   6 O  py              393     -0.196797  24 O  pz        
   253      0.185467  16 O  py              277      0.183342  17 N  px        

 Vector   55  Occ=2.000000D+00  E=-4.233568D-01
              MO Center=  1.4D-01,  2.7D+00,  1.7D-01, r^2= 4.7D+00
   Bfn.  Coefficient  Atom+Function         Bfn.  Coefficient  Atom+Function  
  ----- ------------  ---------------      ----- ------------  ---------------
   390      0.329649  24 O  pz              447      0.309485  27 O  px        
   393      0.250000  24 O  pz              450      0.241139  27 O  px        
   367      0.206889  22 H  s               375     -0.202763  23 H  s         
   347     -0.195865  21 C  pz              333     -0.194039  20 H  s         
   376     -0.168343  23 H  s               313      0.157473  19 C  pz        

 Vector   56  Occ=2.000000D+00  E=-4.153421D-01
              MO Center= -2.7D-01, -1.1D+00,  1.7D-01, r^2= 5.2D+00
   Bfn.  Coefficient  Atom+Function         Bfn.  Coefficient  Atom+Function  
  ----- ------------  ---------------      ----- ------------  ---------------
   253      0.291869  16 O  py              109     -0.242529   7 N  pz        
   256      0.240361  16 O  py              108     -0.218399   7 N  py        
   112     -0.214308   7 N  pz              231     -0.210526  15 C  py        
   174     -0.205865  11 C  s               111     -0.203899   7 N  py        
   234     -0.199345  15 C  py              215      0.175282  14 H  s         

 Vector   57  Occ=2.000000D+00  E=-4.040155D-01
              MO Center=  1.6D+00,  1.6D+00,  1.9D-01, r^2= 3.1D+00
   Bfn.  Coefficient  Atom+Function         Bfn.  Coefficient  Atom+Function  
  ----- ------------  ---------------      ----- ------------  ---------------
   474      0.369400  28 N  pz              477      0.310901  28 N  pz        
   449     -0.276626  27 O  pz              447      0.250270  27 O  px        
   452     -0.221505  27 O  pz              450      0.200639  27 O  px        
   276     -0.177958  17 N  s               475     -0.178403  28 N  px        
   472     -0.167999  28 N  px              473     -0.157548  28 N  py        

 Vector   58  Occ=2.000000D+00  E=-3.897646D-01
              MO Center= -1.2D-02,  1.7D+00,  1.7D-02, r^2= 5.0D+00
   Bfn.  Coefficient  Atom+Function         Bfn.  Coefficient  Atom+Function  
  ----- ------------  ---------------      ----- ------------  ---------------
   277      0.296322  17 N  px              280      0.274375  17 N  px        
   252     -0.236237  16 O  px              343      0.201006  21 C  s         
   255     -0.191074  16 O  px              311     -0.184848  19 C  px        
   449     -0.183709  27 O  pz              447     -0.180013  27 O  px        
   226      0.164670  15 C  s               106     -0.155827   7 N  s         

 Vector   59  Occ=0.000000D+00  E= 1.925731D-02
              MO Center= -1.6D+00, -4.4D+00, -3.2D-01, r^2= 2.0D+01
   Bfn.  Coefficient  Atom+Function         Bfn.  Coefficient  Atom+Function  
  ----- ------------  ---------------      ----- ------------  ---------------
    56      3.030065   5 C  s               106     -2.781439   7 N  s         
   216     -2.500981  14 H  s               233     -2.359724  15 C  px        
   234     -1.951123  15 C  py              226      1.924802  15 C  s         
   173      1.719266  11 C  s                37     -1.678741   3 H  s         
   215     -1.335255  14 H  s               140      1.232285   9 C  s         

 Vector   60  Occ=0.000000D+00  E= 2.950061D-02
              MO Center= -1.2D+00, -2.0D+00, -1.1D+00, r^2= 3.0D+01
   Bfn.  Coefficient  Atom+Function         Bfn.  Coefficient  Atom+Function  
  ----- ------------  ---------------      ----- ------------  ---------------
    63      3.207445   5 C  px               64     -3.030491   5 C  py        
   164      2.404113  10 H  s               147      2.230345   9 C  px        
    13     -1.981906   2 C  s               234     -1.957792  15 C  py        
   207      1.718310  13 H  s                12      1.628288   2 C  s         
   226      1.515143  15 C  s                 3     -1.421731   1 H  s         

 Vector   61  Occ=0.000000D+00  E= 3.565245D-02
              MO Center=  5.8D-02, -2.6D+00, -4.8D-01, r^2= 3.4D+01
   Bfn.  Coefficient  Atom+Function         Bfn.  Coefficient  Atom+Function  
  ----- ------------  ---------------      ----- ------------  ---------------
   147      4.322153   9 C  px              276     -3.522771  17 N  s         
   174      2.789079  11 C  s               226      2.647390  15 C  s         
    63      2.442928   5 C  px               64     -2.357946   5 C  py        
   216      2.312759  14 H  s                46     -2.226999   4 H  s         
   234      1.987339  15 C  py              164     -1.930731  10 H  s         

 Vector   62  Occ=0.000000D+00  E= 4.173739D-02
              MO Center= -1.0D+00, -2.3D+00,  7.2D-01, r^2= 3.2D+01
   Bfn.  Coefficient  Atom+Function         Bfn.  Coefficient  Atom+Function  
  ----- ------------  ---------------      ----- ------------  ---------------
   164      2.976923  10 H  s                56     -2.584145   5 C  s         
   226     -2.485236  15 C  s                37      2.436975   3 H  s         
     3     -2.276450   1 H  s                13      2.278147   2 C  s         
   344      2.278143  21 C  s               106      2.252198   7 N  s         
   198     -2.179823  12 H  s               207     -1.813826  13 H  s         

 Vector   63  Occ=0.000000D+00  E= 4.887989D-02
              MO Center=  1.6D-01, -1.9D+00, -6.0D-01, r^2= 3.7D+01
   Bfn.  Coefficient  Atom+Function         Bfn.  Coefficient  Atom+Function  
  ----- ------------  ---------------      ----- ------------  ---------------
   130     -3.358529   8 H  s                46      3.313085   4 H  s         
    63     -2.933674   5 C  px               13      2.740664   2 C  s         
   319     -2.371728  19 C  pz              233      2.151975  15 C  px        
   207      2.120408  13 H  s               300     -2.119361  18 H  s         
   334     -2.098404  20 H  s               344      2.066316  21 C  s         

 Vector   64  Occ=0.000000D+00  E= 5.183411D-02
              MO Center= -3.7D-01, -1.5D+00, -3.8D-01, r^2= 4.0D+01
   Bfn.  Coefficient  Atom+Function         Bfn.  Coefficient  Atom+Function  
  ----- ------------  ---------------      ----- ------------  ---------------
    37      2.954766   3 H  s               368      2.834675  22 H  s         
   207      2.804412  13 H  s               216     -2.614110  14 H  s         
    13     -2.463955   2 C  s               276      2.394337  17 N  s         
   428      1.992591  26 C  px              495     -1.876724  29 H  s         
   429     -1.780527  26 C  py              164     -1.743786  10 H  s         

 Vector   65  Occ=0.000000D+00  E= 5.857914D-02
              MO Center=  4.0D-01, -1.1D+00, -7.0D-01, r^2= 3.7D+01
   Bfn.  Coefficient  Atom+Function         Bfn.  Coefficient  Atom+Function  
  ----- ------------  ---------------      ----- ------------  ---------------
   164      5.271956  10 H  s                 3      3.764627   1 H  s         
   149      2.930573   9 C  pz              334     -2.783791  20 H  s         
   344      2.700823  21 C  s               421      2.176875  26 C  s         
   319     -1.990119  19 C  pz               37     -1.871648   3 H  s         
    13     -1.805729   2 C  s               216     -1.677670  14 H  s         

 Vector   66  Occ=0.000000D+00  E= 6.495656D-02
              MO Center=  1.1D-01, -5.9D-01,  8.7D-01, r^2= 4.0D+01
   Bfn.  Coefficient  Atom+Function         Bfn.  Coefficient  Atom+Function  
  ----- ------------  ---------------      ----- ------------  ---------------
    56      5.872222   5 C  s               198      4.486087  12 H  s         
   174     -4.333412  11 C  s               226      3.795009  15 C  s         
    46      3.152467   4 H  s               106     -3.157240   7 N  s         
    13     -2.880324   2 C  s               495     -2.653871  29 H  s         
   368     -2.544275  22 H  s               235     -2.278170  15 C  pz        

 Vector   67  Occ=0.000000D+00  E= 6.669513D-02
              MO Center= -1.2D+00, -8.6D-01,  1.1D+00, r^2= 3.6D+01
   Bfn.  Coefficient  Atom+Function         Bfn.  Coefficient  Atom+Function  
  ----- ------------  ---------------      ----- ------------  ---------------
   164      5.307183  10 H  s               198      3.724175  12 H  s         
   216     -3.201407  14 H  s               174      3.167158  11 C  s         
    56     -3.122769   5 C  s               149      3.095608   9 C  pz        
   147      2.911425   9 C  px              377      2.739936  23 H  s         
     3     -2.369323   1 H  s               334     -2.253663  20 H  s         

 Vector   68  Occ=0.000000D+00  E= 7.327737D-02
              MO Center=  2.5D-03,  5.7D-01,  6.6D-01, r^2= 4.1D+01
   Bfn.  Coefficient  Atom+Function         Bfn.  Coefficient  Atom+Function  
  ----- ------------  ---------------      ----- ------------  ---------------
   130      4.405287   8 H  s                13      4.321487   2 C  s         
   226     -3.794954  15 C  s               334     -3.756583  20 H  s         
   344      3.450438  21 C  s               471      3.440580  28 N  s         
   377     -3.408147  23 H  s               368      3.310850  22 H  s         
   106      2.979431   7 N  s               276      2.859642  17 N  s         

 Vector   69  Occ=0.000000D+00  E= 7.492904D-02
              MO Center= -6.7D-01, -8.6D-01, -3.9D-01, r^2= 4.6D+01
   Bfn.  Coefficient  Atom+Function         Bfn.  Coefficient  Atom+Function  
  ----- ------------  ---------------      ----- ------------  ---------------
   207      4.681917  13 H  s               344      4.398612  21 C  s         
   368     -4.322352  22 H  s                46     -4.253214   4 H  s         
    13     -3.870881   2 C  s                37      3.797997   3 H  s         
   216     -3.101478  14 H  s                63      2.742233   5 C  px        
   147      2.645503   9 C  px              471      2.586843  28 N  s         

 Vector   70  Occ=0.000000D+00  E= 8.745583D-02
              MO Center= -3.0D-01, -1.7D-03, -1.2D+00, r^2= 3.6D+01
   Bfn.  Coefficient  Atom+Function         Bfn.  Coefficient  Atom+Function  
  ----- ------------  ---------------      ----- ------------  ---------------
   300      7.401458  18 H  s               164     -5.827136  10 H  s         
    56      4.710639   5 C  s               504     -4.458187  30 H  s         
   207     -4.003768  13 H  s               216      3.713960  14 H  s         
   334     -3.713264  20 H  s                63     -2.774696   5 C  px        
   147     -2.499377   9 C  px              495      2.379307  29 H  s         

 Vector   71  Occ=0.000000D+00  E= 8.819074D-02
              MO Center= -3.9D-01,  1.0D+00,  2.8D-02, r^2= 4.1D+01
   Bfn.  Coefficient  Atom+Function         Bfn.  Coefficient  Atom+Function  
  ----- ------------  ---------------      ----- ------------  ---------------
    56      4.969957   5 C  s               174     -4.699688  11 C  s         
   504     -4.499060  30 H  s               300      4.415875  18 H  s         
   130      4.287779   8 H  s               147     -4.014581   9 C  px        
   368     -3.750932  22 H  s               411      3.167639  25 H  s         
   234     -3.067699  15 C  py              198     -3.013130  12 H  s         

 Vector   72  Occ=0.000000D+00  E= 9.050363D-02
              MO Center= -5.7D-01,  7.1D-01,  6.8D-01, r^2= 3.5D+01
   Bfn.  Coefficient  Atom+Function         Bfn.  Coefficient  Atom+Function  
  ----- ------------  ---------------      ----- ------------  ---------------
   504      6.045783  30 H  s               377      5.965806  23 H  s         
   234     -5.418815  15 C  py              164     -5.174830  10 H  s         
   198     -4.924452  12 H  s               276      4.477934  17 N  s         
   368     -3.085163  22 H  s               421     -3.083621  26 C  s         
   300      2.881690  18 H  s               353     -2.534898  21 C  pz        

 Vector   73  Occ=0.000000D+00  E= 1.024262D-01
              MO Center=  1.9D-01,  8.6D-01, -9.7D-01, r^2= 3.6D+01
   Bfn.  Coefficient  Atom+Function         Bfn.  Coefficient  Atom+Function  
  ----- ------------  ---------------      ----- ------------  ---------------
   226     -7.986298  15 C  s                13      7.494743   2 C  s         
   421      7.315156  26 C  s               504     -7.117067  30 H  s         
   334      7.021665  20 H  s               140     -5.564286   9 C  s         
   368     -4.543206  22 H  s               318     -4.455351  19 C  py        
   377      4.376363  23 H  s               300     -3.742979  18 H  s         

 Vector   74  Occ=0.000000D+00  E= 1.082408D-01
              MO Center=  1.2D+00, -1.9D+00,  1.3D-01, r^2= 3.3D+01
   Bfn.  Coefficient  Atom+Function         Bfn.  Coefficient  Atom+Function  
  ----- ------------  ---------------      ----- ------------  ---------------
    13     18.367651   2 C  s               226    -17.169179  15 C  s         
    56    -13.922007   5 C  s               140     -8.831443   9 C  s         
    63     -8.152919   5 C  px              276      8.004712  17 N  s         
   174      7.915734  11 C  s               164     -7.547663  10 H  s         
   235      6.150536  15 C  pz               21      5.602013   2 C  py        

 Vector   75  Occ=0.000000D+00  E= 1.245227D-01
              MO Center= -1.3D+00, -4.3D-01, -1.2D+00, r^2= 2.6D+01
   Bfn.  Coefficient  Atom+Function         Bfn.  Coefficient  Atom+Function  
  ----- ------------  ---------------      ----- ------------  ---------------
    63     -8.922995   5 C  px               13      8.703601   2 C  s         
   226     -6.047664  15 C  s               421      5.686034  26 C  s         
   140     -5.079792   9 C  s               147     -4.758322   9 C  px        
   164     -4.589044  10 H  s               504      4.566900  30 H  s         
   234      4.326506  15 C  py              174      3.846449  11 C  s         

 Vector   76  Occ=0.000000D+00  E= 1.251416D-01
              MO Center= -5.9D-01, -1.8D+00,  2.3D-01, r^2= 3.2D+01
   Bfn.  Coefficient  Atom+Function         Bfn.  Coefficient  Atom+Function  
  ----- ------------  ---------------      ----- ------------  ---------------
    56     17.922364   5 C  s               226     17.071260  15 C  s         
   344    -13.250084  21 C  s               421     13.035146  26 C  s         
    13    -12.030703   2 C  s               106    -10.610405   7 N  s         
   276     -8.039089  17 N  s               148     -7.950310   9 C  py        
   140      7.786046   9 C  s               174     -7.179448  11 C  s         

 Vector   77  Occ=0.000000D+00  E= 1.285417D-01
              MO Center=  9.7D-01, -3.0D-02,  2.2D-02, r^2= 3.3D+01
   Bfn.  Coefficient  Atom+Function         Bfn.  Coefficient  Atom+Function  
  ----- ------------  ---------------      ----- ------------  ---------------
   421     18.784644  26 C  s               344    -16.142520  21 C  s         
   317    -10.154073  19 C  px              106      6.625216   7 N  s         
    56     -6.517223   5 C  s               226     -6.429939  15 C  s         
   471     -5.892672  28 N  s               428     -5.815709  26 C  px        
   140     -4.552920   9 C  s               148      4.186708   9 C  py        

 Vector   78  Occ=0.000000D+00  E= 1.335500D-01
              MO Center= -7.1D-01, -1.4D+00,  4.1D-01, r^2= 2.6D+01
   Bfn.  Coefficient  Atom+Function         Bfn.  Coefficient  Atom+Function  
  ----- ------------  ---------------      ----- ------------  ---------------
    56     10.646598   5 C  s               174     -8.737762  11 C  s         
   344      8.194810  21 C  s               234     -8.130818  15 C  py        
   233     -6.650888  15 C  px              421     -5.747970  26 C  s         
   106     -5.494591   7 N  s               317      5.394677  19 C  px        
   181     -4.684981  11 C  px              216     -4.706715  14 H  s         

 Vector   79  Occ=0.000000D+00  E= 1.373398D-01
              MO Center= -4.0D-01, -1.7D+00, -1.7D-01, r^2= 3.0D+01
   Bfn.  Coefficient  Atom+Function         Bfn.  Coefficient  Atom+Function  
  ----- ------------  ---------------      ----- ------------  ---------------
   147      9.910679   9 C  px               64     -8.139811   5 C  py        
   421     -8.074391  26 C  s               174      7.347150  11 C  s         
    13     -7.189474   2 C  s               226      7.017915  15 C  s         
    63      6.128529   5 C  px              317      5.296839  19 C  px        
    65      4.911974   5 C  pz               56     -4.748446   5 C  s         

 Vector   80  Occ=0.000000D+00  E= 1.403314D-01
              MO Center= -6.1D-01, -4.9D-01, -5.0D-01, r^2= 2.6D+01
   Bfn.  Coefficient  Atom+Function         Bfn.  Coefficient  Atom+Function  
  ----- ------------  ---------------      ----- ------------  ---------------
   276      8.255376  17 N  s               226     -7.361313  15 C  s         
    64      6.702337   5 C  py               13      6.417161   2 C  s         
   147     -5.690244   9 C  px              140     -5.548014   9 C  s         
    63     -5.421228   5 C  px              234      4.907774  15 C  py        
   344     -3.906599  21 C  s               318      3.646858  19 C  py        

 Vector   81  Occ=0.000000D+00  E= 1.434518D-01
              MO Center= -5.6D-01, -6.3D-01, -4.5D-01, r^2= 2.9D+01
   Bfn.  Coefficient  Atom+Function         Bfn.  Coefficient  Atom+Function  
  ----- ------------  ---------------      ----- ------------  ---------------
   276     11.084964  17 N  s               148     -9.623003   9 C  py        
   234     -8.123273  15 C  py              174     -8.047493  11 C  s         
   233     -6.399395  15 C  px              284     -5.399772  17 N  py        
    63      5.139605   5 C  px              235      4.696429  15 C  pz        
   226     -4.487704  15 C  s               147     -4.280219   9 C  px        

 Vector   82  Occ=0.000000D+00  E= 1.458633D-01
              MO Center= -4.4D-01, -6.8D-01, -1.0D+00, r^2= 2.8D+01
   Bfn.  Coefficient  Atom+Function         Bfn.  Coefficient  Atom+Function  
  ----- ------------  ---------------      ----- ------------  ---------------
   174     10.459457  11 C  s               276     -9.641711  17 N  s         
    56     -8.974352   5 C  s               234      8.992266  15 C  py        
   147      7.837141   9 C  px              319     -5.976871  19 C  pz        
   344      5.800234  21 C  s               318     -5.729979  19 C  py        
   300     -5.104112  18 H  s               233      5.056128  15 C  px        

 Vector   83  Occ=0.000000D+00  E= 1.512112D-01
              MO Center= -3.2D-01, -9.8D-01,  1.8D-01, r^2= 3.1D+01
   Bfn.  Coefficient  Atom+Function         Bfn.  Coefficient  Atom+Function  
  ----- ------------  ---------------      ----- ------------  ---------------
   174      9.350007  11 C  s               421      8.046146  26 C  s         
   344     -7.556658  21 C  s               106     -7.444614   7 N  s         
   147      7.172182   9 C  px              164     -6.037297  10 H  s         
   300      4.517219  18 H  s               181      4.309059  11 C  px        
    56     -4.163434   5 C  s               471     -3.822421  28 N  s         

 Vector   84  Occ=0.000000D+00  E= 1.542515D-01
              MO Center= -6.0D-02, -1.9D+00, -2.7D-01, r^2= 2.9D+01
   Bfn.  Coefficient  Atom+Function         Bfn.  Coefficient  Atom+Function  
  ----- ------------  ---------------      ----- ------------  ---------------
   147      9.455766   9 C  px               63      7.200056   5 C  px        
   174      6.107945  11 C  s               504     -5.271074  30 H  s         
   284      4.254871  17 N  py               12      4.157639   2 C  s         
   344     -3.812585  21 C  s               140      3.727669   9 C  s         
   421      3.718492  26 C  s               276     -3.598154  17 N  s         

 Vector   85  Occ=0.000000D+00  E= 1.576568D-01
              MO Center= -5.3D-01, -6.2D-01, -1.0D+00, r^2= 2.8D+01
   Bfn.  Coefficient  Atom+Function         Bfn.  Coefficient  Atom+Function  
  ----- ------------  ---------------      ----- ------------  ---------------
   421     11.528253  26 C  s               164      8.586330  10 H  s         
   319     -7.151828  19 C  pz              149      5.721085   9 C  pz        
   317     -5.369881  19 C  px              284     -5.232305  17 N  py        
    63     -4.396950   5 C  px               13      4.343337   2 C  s         
   140     -4.331191   9 C  s               234      4.251953  15 C  py        

 Vector   86  Occ=0.000000D+00  E= 1.596629D-01
              MO Center= -2.3D-01, -1.5D+00, -1.2D-02, r^2= 2.2D+01
   Bfn.  Coefficient  Atom+Function         Bfn.  Coefficient  Atom+Function  
  ----- ------------  ---------------      ----- ------------  ---------------
   276      9.424396  17 N  s               226     -7.842507  15 C  s         
   234     -7.782118  15 C  py              344      7.156468  21 C  s         
   235      6.879750  15 C  pz               13      6.527093   2 C  s         
    56     -5.574077   5 C  s               233     -5.313314  15 C  px        
   317      5.161086  19 C  px              421     -3.957765  26 C  s         

 Vector   87  Occ=0.000000D+00  E= 1.652389D-01
              MO Center=  1.3D-01, -1.5D+00, -2.7D-01, r^2= 2.7D+01
   Bfn.  Coefficient  Atom+Function         Bfn.  Coefficient  Atom+Function  
  ----- ------------  ---------------      ----- ------------  ---------------
   149      8.579722   9 C  pz              174      6.320483  11 C  s         
   235     -6.324587  15 C  pz              164      5.973623  10 H  s         
   113      5.709796   7 N  px              276     -5.481271  17 N  s         
    63      5.336664   5 C  px              421      4.694962  26 C  s         
   147      4.405352   9 C  px               46     -4.121839   4 H  s         

 Vector   88  Occ=0.000000D+00  E= 1.688577D-01
              MO Center= -7.8D-01, -2.0D+00,  1.4D-01, r^2= 2.8D+01
   Bfn.  Coefficient  Atom+Function         Bfn.  Coefficient  Atom+Function  
  ----- ------------  ---------------      ----- ------------  ---------------
   148     10.497395   9 C  py              421    -10.418819  26 C  s         
   471      7.328871  28 N  s                13      7.200674   2 C  s         
   130     -7.032050   8 H  s               174      6.555329  11 C  s         
   310     -6.156142  19 C  s               181      4.580002  11 C  px        
   300     -4.591115  18 H  s               428     -4.060390  26 C  px        

 Vector   89  Occ=0.000000D+00  E= 1.699083D-01
              MO Center= -8.6D-02, -2.5D-01,  8.2D-01, r^2= 1.8D+01
   Bfn.  Coefficient  Atom+Function         Bfn.  Coefficient  Atom+Function  
  ----- ------------  ---------------      ----- ------------  ---------------
    64      5.602539   5 C  py              421      5.581831  26 C  s         
   147     -5.068629   9 C  px              234      4.765553  15 C  py        
   471     -4.742550  28 N  s                63     -4.050106   5 C  px        
     3      3.721028   1 H  s               377     -3.493764  23 H  s         
   318      3.447249  19 C  py               22     -3.137650   2 C  pz        

 Vector   90  Occ=0.000000D+00  E= 1.721579D-01
              MO Center= -1.9D-01, -9.3D-01,  4.7D-01, r^2= 2.9D+01
   Bfn.  Coefficient  Atom+Function         Bfn.  Coefficient  Atom+Function  
  ----- ------------  ---------------      ----- ------------  ---------------
    13      9.535555   2 C  s               226     -8.467378  15 C  s         
   235      7.668009  15 C  pz              276      7.351099  17 N  s         
    63     -6.595509   5 C  px               64      5.753881   5 C  py        
   198     -4.497174  12 H  s               148      4.175588   9 C  py        
    65     -4.059995   5 C  pz              130      4.005742   8 H  s         

 Vector   91  Occ=0.000000D+00  E= 1.759601D-01
              MO Center=  1.3D+00, -6.9D-01,  6.7D-02, r^2= 3.1D+01
   Bfn.  Coefficient  Atom+Function         Bfn.  Coefficient  Atom+Function  
  ----- ------------  ---------------      ----- ------------  ---------------
   471     10.839327  28 N  s               429      9.125276  26 C  py        
[...]

 Vector  143  Occ=0.000000D+00  E= 4.220550D-01
              MO Center= -4.9D-01,  2.9D-02, -2.6D-01, r^2= 1.9D+01
   Bfn.  Coefficient  Atom+Function         Bfn.  Coefficient  Atom+Function  
  ----- ------------  ---------------      ----- ------------  ---------------
   421     15.912644  26 C  s               471    -14.180416  28 N  s         
   318    -11.281566  19 C  py              276    -11.004477  17 N  s         
    56     -7.605642   5 C  s               173     -7.515729  11 C  s         
   235      7.169293  15 C  pz              163      5.169754  10 H  s         
   479     -5.136907  28 N  py              147      5.001188   9 C  px        

 Vector  144  Occ=0.000000D+00  E= 4.242134D-01
              MO Center=  8.9D-01, -2.4D+00,  4.5D-01, r^2= 1.8D+01
   Bfn.  Coefficient  Atom+Function         Bfn.  Coefficient  Atom+Function  
  ----- ------------  ---------------      ----- ------------  ---------------
   106      8.860499   7 N  s                45     -6.615391   4 H  s         
    12      6.550324   2 C  s               233      5.857593  15 C  px        
   234      5.488363  15 C  py               13      5.045778   2 C  s         
   235      4.866841  15 C  pz              226     -4.697000  15 C  s         
   174      3.856206  11 C  s               429      3.721408  26 C  py        

 Vector  145  Occ=0.000000D+00  E= 4.328305D-01
              MO Center=  9.2D-01, -2.1D+00,  8.8D-02, r^2= 2.0D+01
   Bfn.  Coefficient  Atom+Function         Bfn.  Coefficient  Atom+Function  
  ----- ------------  ---------------      ----- ------------  ---------------
   421     22.746356  26 C  s               471    -15.002931  28 N  s         
   310      6.939493  19 C  s               344     -6.908523  21 C  s         
   173     -6.784013  11 C  s               174     -5.848449  11 C  s         
   317     -5.483369  19 C  px                2      5.205940   1 H  s         
    56      4.973405   5 C  s               148     -4.753394   9 C  py        

 Vector  146  Occ=0.000000D+00  E= 4.382882D-01
              MO Center= -6.1D-02, -3.3D-01, -1.2D-01, r^2= 2.0D+01
   Bfn.  Coefficient  Atom+Function         Bfn.  Coefficient  Atom+Function  
  ----- ------------  ---------------      ----- ------------  ---------------
   226     13.310343  15 C  s               421    -12.691288  26 C  s         
    13    -11.485546   2 C  s               276    -11.490017  17 N  s         
   174     11.212098  11 C  s               471     10.315094  28 N  s         
   140      8.953390   9 C  s               147      8.929827   9 C  px        
   285     -8.109115  17 N  pz              284      6.858793  17 N  py        

 Vector  147  Occ=0.000000D+00  E= 4.402093D-01
              MO Center= -3.9D-01, -5.2D-01,  1.1D-01, r^2= 1.9D+01
   Bfn.  Coefficient  Atom+Function         Bfn.  Coefficient  Atom+Function  
  ----- ------------  ---------------      ----- ------------  ---------------
   421     21.082848  26 C  s               344    -14.573258  21 C  s         
    13     12.370086   2 C  s               234     11.487800  15 C  py        
   471    -11.470966  28 N  s               276     -9.835871  17 N  s         
   140     -7.103046   9 C  s               317     -6.899008  19 C  px        
   226     -6.723519  15 C  s               174      5.643764  11 C  s         

 Vector  148  Occ=0.000000D+00  E= 4.441088D-01
              MO Center= -4.0D-01, -8.7D-01, -9.8D-02, r^2= 1.9D+01
   Bfn.  Coefficient  Atom+Function         Bfn.  Coefficient  Atom+Function  
  ----- ------------  ---------------      ----- ------------  ---------------
   226     19.269232  15 C  s               276    -14.875729  17 N  s         
    13    -14.369961   2 C  s               471    -14.322367  28 N  s         
   174     11.423442  11 C  s               106    -10.748890   7 N  s         
   233     10.695777  15 C  px              421     10.344181  26 C  s         
   319      8.919364  19 C  pz              140      8.731014   9 C  s         

 Vector  149  Occ=0.000000D+00  E= 4.548144D-01
              MO Center= -4.2D-01, -4.2D-01,  1.6D-01, r^2= 1.9D+01
   Bfn.  Coefficient  Atom+Function         Bfn.  Coefficient  Atom+Function  
  ----- ------------  ---------------      ----- ------------  ---------------
   174     28.341437  11 C  s                56    -22.710608   5 C  s         
    13     14.637484   2 C  s               471    -11.197322  28 N  s         
   147     10.721317   9 C  px              173     10.237540  11 C  s         
   226     -9.530283  15 C  s               197     -9.093180  12 H  s         
   206     -8.677202  13 H  s               421      8.574077  26 C  s         

 Vector  150  Occ=0.000000D+00  E= 4.566907D-01
              MO Center= -1.7D-01, -7.3D-01,  1.1D-01, r^2= 1.7D+01
   Bfn.  Coefficient  Atom+Function         Bfn.  Coefficient  Atom+Function  
  ----- ------------  ---------------      ----- ------------  ---------------
   226     26.476095  15 C  s                13    -22.129704   2 C  s         
   284     14.857843  17 N  py              140     13.662795   9 C  s         
    56     12.818670   5 C  s               421    -12.112933  26 C  s         
   106    -11.753927   7 N  s               276    -10.708611  17 N  s         
   344     -9.206370  21 C  s               147      8.591080   9 C  px        

 Vector  151  Occ=0.000000D+00  E= 4.627166D-01
              MO Center=  6.1D-01,  3.9D-01,  9.1D-02, r^2= 1.8D+01
   Bfn.  Coefficient  Atom+Function         Bfn.  Coefficient  Atom+Function  
  ----- ------------  ---------------      ----- ------------  ---------------
   174     12.324237  11 C  s                56     -8.534919   5 C  s         
   344     -8.323425  21 C  s                12      6.905975   2 C  s         
   234      6.829915  15 C  py              367      6.555196  22 H  s         
   147      6.240677   9 C  px              106      5.370986   7 N  s         
   478     -5.254866  28 N  px              343     -5.214950  21 C  s         

 Vector  152  Occ=0.000000D+00  E= 4.639028D-01
              MO Center=  1.7D-01,  7.3D-01,  4.5D-01, r^2= 2.0D+01
   Bfn.  Coefficient  Atom+Function         Bfn.  Coefficient  Atom+Function  
  ----- ------------  ---------------      ----- ------------  ---------------
   147     11.024178   9 C  px              233    -10.825336  15 C  px        
   174      8.619940  11 C  s               234     -8.426651  15 C  py        
   276     -7.799300  17 N  s               113      7.741346   7 N  px        
    12      7.084612   2 C  s               106     -6.932878   7 N  s         
    13     -5.725707   2 C  s               387     -5.268730  24 O  s         

 Vector  153  Occ=0.000000D+00  E= 4.743719D-01
              MO Center= -9.6D-01, -1.4D+00,  7.2D-02, r^2= 1.9D+01
   Bfn.  Coefficient  Atom+Function         Bfn.  Coefficient  Atom+Function  
  ----- ------------  ---------------      ----- ------------  ---------------
    13     25.957066   2 C  s                56    -24.608930   5 C  s         
   174     23.085233  11 C  s               226    -22.965753  15 C  s         
   140    -13.814072   9 C  s               106     11.729396   7 N  s         
   276     11.109200  17 N  s                63     -9.857005   5 C  px        
    12      9.698310   2 C  s               148      9.118462   9 C  py        

 Vector  154  Occ=0.000000D+00  E= 4.769831D-01
              MO Center= -6.5D-01, -3.6D-01,  1.9D-01, r^2= 1.9D+01
   Bfn.  Coefficient  Atom+Function         Bfn.  Coefficient  Atom+Function  
  ----- ------------  ---------------      ----- ------------  ---------------
    13     24.942166   2 C  s                56    -20.924335   5 C  s         
   226    -20.791168  15 C  s               234     15.490918  15 C  py        
   106     14.703383   7 N  s               276     14.098617  17 N  s         
   174     12.761886  11 C  s               140    -11.162893   9 C  s         
    63     -9.668353   5 C  px              367     -9.417758  22 H  s         

 Vector  155  Occ=0.000000D+00  E= 4.775186D-01
              MO Center= -5.3D-01, -1.8D-01, -1.3D-01, r^2= 1.7D+01
   Bfn.  Coefficient  Atom+Function         Bfn.  Coefficient  Atom+Function  
  ----- ------------  ---------------      ----- ------------  ---------------
   421     18.857868  26 C  s               174     -9.981739  11 C  s         
    56      8.188811   5 C  s               113     -8.181633   7 N  px        
   235      8.169533  15 C  pz              148      7.537220   9 C  py        
   471     -7.257282  28 N  s                13      7.120880   2 C  s         
   226     -6.882352  15 C  s               149     -6.607094   9 C  pz        

 Vector  156  Occ=0.000000D+00  E= 4.876405D-01
              MO Center= -4.9D-01,  4.6D-01,  3.4D-02, r^2= 1.7D+01
   Bfn.  Coefficient  Atom+Function         Bfn.  Coefficient  Atom+Function  
  ----- ------------  ---------------      ----- ------------  ---------------
   276     21.048119  17 N  s               174    -15.681154  11 C  s         
   173    -11.536473  11 C  s               197      9.283975  12 H  s         
   215      8.832014  14 H  s               421     -8.427738  26 C  s         
   226     -8.226232  15 C  s               147     -8.012602   9 C  px        
    56      7.595816   5 C  s                12      6.600671   2 C  s         

 Vector  157  Occ=0.000000D+00  E= 4.895703D-01
              MO Center= -6.5D-01,  3.0D-01,  3.0D-01, r^2= 1.9D+01
   Bfn.  Coefficient  Atom+Function         Bfn.  Coefficient  Atom+Function  
  ----- ------------  ---------------      ----- ------------  ---------------
   344     17.161524  21 C  s               173    -11.109143  11 C  s         
    12     10.918756   2 C  s               234    -10.559240  15 C  py        
   226     -9.146032  15 C  s               376     -8.383988  23 H  s         
   174     -6.659001  11 C  s               215      6.659047  14 H  s         
   197      5.810803  12 H  s               114     -5.615721   7 N  py        

 Vector  158  Occ=0.000000D+00  E= 4.955732D-01
              MO Center=  8.3D-02, -6.0D-01, -1.8D-01, r^2= 1.8D+01
   Bfn.  Coefficient  Atom+Function         Bfn.  Coefficient  Atom+Function  
  ----- ------------  ---------------      ----- ------------  ---------------
   421     20.512194  26 C  s                13     18.704557   2 C  s         
   226    -16.298894  15 C  s                56    -15.833262   5 C  s         
   140    -11.857510   9 C  s               344    -11.493753  21 C  s         
   234     10.912322  15 C  py              174      9.552112  11 C  s         
   284     -8.485794  17 N  py               63     -8.298877   5 C  px        

 Vector  159  Occ=0.000000D+00  E= 4.990062D-01
              MO Center= -3.9D-01, -9.6D-01,  6.1D-02, r^2= 1.8D+01
   Bfn.  Coefficient  Atom+Function         Bfn.  Coefficient  Atom+Function  
  ----- ------------  ---------------      ----- ------------  ---------------
   233      9.421336  15 C  px              276     -6.785547  17 N  s         
   226      6.126145  15 C  s               113     -5.349255   7 N  px        
   251     -4.995817  16 O  s                56      4.878088   5 C  s         
   140      4.721318   9 C  s               206     -4.177291  13 H  s         
   139     -4.047283   9 C  s               182      3.514027  11 C  py        

 Vector  160  Occ=0.000000D+00  E= 5.043203D-01
              MO Center= -1.5D-01, -8.6D-01,  3.4D-01, r^2= 1.9D+01
   Bfn.  Coefficient  Atom+Function         Bfn.  Coefficient  Atom+Function  
  ----- ------------  ---------------      ----- ------------  ---------------
   344     13.562599  21 C  s                12    -10.963627   2 C  s         
   233     -7.992972  15 C  px              174     -7.944875  11 C  s         
   421     -6.462087  26 C  s                45      6.422235   4 H  s         
   428      5.053478  26 C  px              251      4.940565  16 O  s         
   317      4.568665  19 C  px                2      4.534177   1 H  s         


 center of mass
 --------------
 x =   0.04116469 y =   0.09051894 z =   0.00159243

 moments of inertia (a.u.)
 ------------------
        4785.878250123067          -0.000000000001           0.000000000000
          -0.000000000001        1818.795245604030          -0.000000000000
           0.000000000000          -0.000000000000        6018.340454059684

  Mulliken analysis of the total density
  --------------------------------------

    Atom       Charge   Shell Charges
 -----------   ------   -------------------------------------------------------
    1 H    1     0.82   0.76  0.09 -0.00  0.03 -0.06
    2 C    6     6.39   2.01  0.66  0.27  0.18  2.07  1.04 -0.00  0.06  0.11
    3 H    1     0.82   0.76  0.09  0.00  0.03 -0.06
    4 H    1     0.99   0.76  0.24  0.01  0.03 -0.05
    5 C    6     5.00   2.01  0.68  0.06 -0.11  1.89  0.32 -0.09  0.24  0.00
    6 O    8     8.80   2.01  0.81  1.00  0.16  2.80  1.87  0.15  0.01 -0.01
    7 N    7     7.59   2.01  0.72  0.83 -0.12  2.45  1.45  0.16  0.05  0.04
    8 H    1     0.97   0.77  0.21 -0.03  0.05 -0.04
    9 C    6     6.67   2.01  0.66  0.21  0.06  2.00  1.42 -0.03  0.14  0.21
   10 H    1     1.18   0.79  0.32  0.02  0.03  0.02
   11 C    6     5.63   2.01  0.66  0.14  0.18  2.04  0.56 -0.03  0.07 -0.01
   12 H    1     0.92   0.77  0.16  0.03  0.03 -0.07
   13 H    1     0.98   0.77  0.26  0.00  0.03 -0.08
   14 H    1     1.00   0.77  0.28  0.01  0.03 -0.09
   15 C    6     4.34   2.01  0.68 -0.13  0.14  1.89  0.06 -0.05  0.23 -0.50
   16 O    8     8.84   2.01  0.82  1.05  0.16  2.78  1.86  0.15  0.01  0.00
   17 N    7     7.39   2.01  0.72  0.82 -0.21  2.44  1.45  0.03  0.05  0.07
   18 H    1     1.09   0.77  0.29 -0.01  0.05 -0.01
   19 C    6     6.18   2.01  0.67 -0.02 -0.01  1.99  1.37 -0.03  0.13  0.07
   20 H    1     1.15   0.78  0.36 -0.00  0.03 -0.01
   21 C    6     4.92   2.01  0.67 -0.02  0.05  1.96  0.23 -0.06  0.14 -0.05
   22 H    1     1.13   0.79  0.37  0.01  0.03 -0.06
   23 H    1     1.06   0.78  0.25  0.01  0.03 -0.01
   24 O    8     8.65   2.01  0.80  0.96  0.06  2.83  1.90  0.12  0.01 -0.03
   25 H    1     0.84   0.70  0.05 -0.00  0.08  0.02
   26 C    6     4.72   2.01  0.68  0.11  0.05  1.88 -0.17  0.02  0.23 -0.10
   27 O    8     8.84   2.01  0.82  1.03  0.17  2.80  1.86  0.14  0.01 -0.00
   28 N    7     7.20   2.01  0.72  0.85 -0.21  2.46  1.25  0.09  0.04 -0.02
   29 H    1     1.01   0.76  0.23 -0.00  0.05 -0.03
   30 H    1     0.91   0.73  0.28 -0.03  0.06 -0.13

       Multipole analysis of the density wrt the origin
       ------------------------------------------------

     L   x y z        total         open         nuclear
     -   - - -        -----         ----         -------
     0   0 0 0      0.000000      0.000000    116.000000

     1   1 0 0     -0.833986      0.000000      0.000000
     1   0 1 0     -3.491493      0.000000      0.000000
     1   0 0 1     -0.769464      0.000000      0.000000

     2   2 0 0    -63.489123      0.000000    872.668863
     2   1 1 0      0.544062      0.000000     -7.180400
     2   1 0 1      4.243530      0.000000      8.228611
     2   0 2 0    -72.597938      0.000000   2456.019522
     2   0 1 1     -6.322148      0.000000    -18.141811
     2   0 0 2    -67.900362      0.000000    173.049480


 Task  times  cpu:     3294.2s     wall:     3401.5s


                                NWChem Input Module
                                -------------------


 Summary of allocated global arrays
-----------------------------------
  No active global arrays


MA_summarize_allocated_blocks: starting scan ...
MA_summarize_allocated_blocks: scan completed: 0 heap blocks, 0 stack blocks
MA usage statistics:

	allocation statistics:
					      heap	     stack
					      ----	     -----
	current number of blocks	         0	         0
	maximum number of blocks	        16	        14
	current total bytes		         0	         0
	maximum total bytes		    107280	  24874824
	maximum total K-bytes		       108	     24875
	maximum total M-bytes		         1	        25


                                     CITATION
                                     --------
                Please cite the following reference when publishing
                           results obtained with NWChem:

          E. Apra, E. J. Bylaska, W. A. de Jong, N. Govind, K. Kowalski,
       T. P. Straatsma, M. Valiev, H. J. J. van Dam, Y. Alexeev, J. Anchell,
       V. Anisimov, F. W. Aquino, R. Atta-Fynn, J. Autschbach, N. P. Bauman,
     J. C. Becca, D. E. Bernholdt, K. Bhaskaran-Nair, S. Bogatko, P. Borowski,
         J. Boschen, J. Brabec, A. Bruner, E. Cauet, Y. Chen, G. N. Chuev,
      C. J. Cramer, J. Daily, M. J. O. Deegan, T. H. Dunning Jr., M. Dupuis,
   K. G. Dyall, G. I. Fann, S. A. Fischer, A. Fonari, H. Fruchtl, L. Gagliardi,
      J. Garza, N. Gawande, S. Ghosh, K. Glaesemann, A. W. Gotz, J. Hammond,
       V. Helms, E. D. Hermes, K. Hirao, S. Hirata, M. Jacquelin, L. Jensen,
   B. G. Johnson, H. Jonsson, R. A. Kendall, M. Klemm, R. Kobayashi, V. Konkov,
      S. Krishnamoorthy, M. Krishnan, Z. Lin, R. D. Lins, R. J. Littlefield,
      A. J. Logsdail, K. Lopata, W. Ma, A. V. Marenich, J. Martin del Campo,
   D. Mejia-Rodriguez, J. E. Moore, J. M. Mullin, T. Nakajima, D. R. Nascimento,
    J. A. Nichols, P. J. Nichols, J. Nieplocha, A. Otero-de-la-Roza, B. Palmer,
    A. Panyala, T. Pirojsirikul, B. Peng, R. Peverati, J. Pittner, L. Pollack,
   R. M. Richard, P. Sadayappan, G. C. Schatz, W. A. Shelton, D. W. Silverstein,
   D. M. A. Smith, T. A. Soares, D. Song, M. Swart, H. L. Taylor, G. S. Thomas,
            V. Tipparaju, D. G. Truhlar, K. Tsemekhman, T. Van Voorhis,
      A. Vazquez-Mayagoitia, P. Verma, O. Villa, A. Vishnu, K. D. Vogiatzis,
        D. Wang, J. H. Weare, M. J. Williamson, T. L. Windus, K. Wolinski,
        A. T. Wong, Q. Wu, C. Yang, Q. Yu, M. Zacharias, Z. Zhang, Y. Zhao,
                                and R. J. Harrison
                        "NWChem: Past, present, and future
                         J. Chem. Phys. 152, 184102 (2020)
                               doi:10.1063/5.0004997

                                      AUTHORS
                                      -------
  E. Apra, E. J. Bylaska, N. Govind, K. Kowalski, M. Valiev, D. Mejia-Rodriguez,
       A. Kunitsa, N. P. Bauman, A. Panyala, W. A. de Jong, T. P. Straatsma,
   H. J. J. van Dam, D. Wang, T. L. Windus, J. Hammond, J. Autschbach, A. Woods,
    K. Bhaskaran-Nair, J. Brabec, K. Lopata, S. A. Fischer, S. Krishnamoorthy,
     M. Jacquelin, W. Ma, M. Klemm, O. Villa, Y. Chen, V. Anisimov, F. Aquino,
     S. Hirata, M. T. Hackler, E. Hermes, L. Jensen, J. E. Moore, J. C. Becca,
      V. Konjkov, T. Risthaus, M. Malagoli, A. Marenich, A. Otero-de-la-Roza,
        J. Mullin, P. Nichols, R. Peverati, J. Pittner, Y. Zhao, P.-D. Fan,
        A. Fonari, M. J. Williamson, R. J. Harrison, J. R. Rehr, M. Dupuis,
     D. Silverstein, D. M. A. Smith, J. Nieplocha, V. Tipparaju, M. Krishnan,
     B. E. Van Kuiken, A. Vazquez-Mayagoitia, M. Swart, Q. Wu, T. Van Voorhis,
     A. A. Auer, M. Nooijen, L. D. Crosby, E. Brown, G. Cisneros, G. I. Fann,
   H. Fruchtl, J. Garza, K. Hirao, R. A. Kendall, J. A. Nichols, K. Tsemekhman,
    K. Wolinski, J. Anchell, D. E. Bernholdt, P. Borowski, T. Clark, D. Clerc,
   H. Dachsel, M. J. O. Deegan, K. Dyall, D. Elwood, E. Glendening, M. Gutowski,
   A. C. Hess, J. Jaffe, B. G. Johnson, J. Ju, R. Kobayashi, R. Kutteh, Z. Lin,
   R. Littlefield, X. Long, B. Meng, T. Nakajima, S. Niu, L. Pollack, M. Rosing,
   K. Glaesemann, G. Sandrone, M. Stave, H. Taylor, G. Thomas, J. H. van Lenthe,
                               A. T. Wong, Z. Zhang.

 Total times  cpu:     3294.2s     wall:     3402.0s
