export TMOUT=5400
export TMPDIR=/tmp
export PTMPDIR=/tmp/ptmp
 argument  1 = ALA_LEU_5.nw
                                         
                                         


             Northwest Computational Chemistry Package (NWChem) 7.2.0
             --------------------------------------------------------


                    Environmental Molecular Sciences Laboratory
                       Pacific Northwest National Laboratory
                                Richland, WA 99352

                              Copyright (c) 1994-2022
                       Pacific Northwest National Laboratory
                            Battelle Memorial Institute

             NWChem is an open-source computational chemistry package
                        distributed under the terms of the
                      Educational Community License (ECL) 2.0
             A copy of the license is included with this distribution
                              in the LICENSE.TXT file

                                  ACKNOWLEDGMENT
                                  --------------

            This software and its documentation were developed at the
            EMSL at Pacific Northwest National Laboratory, a multiprogram
            national laboratory, operated for the U.S. Department of Energy
            by Battelle under Contract Number DE-AC05-76RL01830. Support
            for this work was provided by the Department of Energy Office
            of Biological and Environmental Research, Office of Basic
            Energy Sciences, and the Office of Advanced Scientific Computing.


           Job information
           ---------------

    hostname        = nova18-22
    program         = /opt/rit/el9/20230413/app/linux-rhel9-x86_64_v3/gcc-11.2.1/nwchem-7.2.0-oxtctbuhfuzyfaoziquq6bki22grib3g/bin/nwchem
    date            = Fri Jun 27 19:44:01 2025

    compiled        = Wed_May_17_23:46:39_2023
    source          = /tmp/root/spack-stage/spack-stage-nwchem-7.2.0-oxtctbuhfuzyfaoziquq6bki22grib3g/spack-src
    nwchem branch   = 7.2.0
    nwchem revision = d0d141fd
    ga revision     = 5.8.0
    use scalapack   = T
    input           = ALA_LEU_5.nw
    prefix          = ALA_LEU_5.
    data base       = ./ALA_LEU_5.db
    status          = startup
    nproc           =        8
    time left       =     -1s



           Memory information
           ------------------

    heap     =   26214394 doubles =    200.0 Mbytes
    stack    =   26214399 doubles =    200.0 Mbytes
    global   =   52428800 doubles =    400.0 Mbytes (distinct from heap & stack)
    total    =  104857593 doubles =    800.0 Mbytes
    verify   = yes
    hardfail = no 


           Directory information
           ---------------------

  0 permanent = .
  0 scratch   = .




                                NWChem Input Module
                                -------------------



 Scaling coordinates for geometry "geometry" by  1.889725989
 (inverse scale =  0.529177249)

 C1  symmetry detected

          ------
          auto-z
          ------
  no constraints, skipping    0.0000000000000000     
  no constraints, skipping    0.0000000000000000     


                             Geometry "geometry" -> ""
                             -------------------------

 Output coordinates in angstroms (scale by  1.889725989 to convert to a.u.)

  No.       Tag          Charge          X              Y              Z
 ---- ---------------- ---------- -------------- -------------- --------------
    1 H                    1.0000    -1.38701634    -6.02456916    -0.12502843
    2 C                    6.0000    -0.94970898    -5.23504631    -0.73546184
    3 H                    1.0000    -1.70822162    -4.82385617    -1.39923307
    4 H                    1.0000    -0.12375875    -5.63776384    -1.31774252
    5 C                    6.0000    -0.43576451    -4.14300712     0.17298876
    6 O                    8.0000    -0.55041359    -4.24894226     1.38588750
    7 N                    7.0000     0.12657651    -3.09323237    -0.42048790
    8 H                    1.0000     0.15085746    -3.06014564    -1.42874863
    9 C                    6.0000     0.66132490    -1.92521026     0.28132584
   10 H                    1.0000     0.06527795    -1.74833387     1.17781386
   11 C                    6.0000     2.10744747    -2.21905094     0.70785738
   12 H                    1.0000     2.13029741    -3.09919207     1.35204872
   13 H                    1.0000     2.72625045    -2.40060035    -0.17194754
   14 H                    1.0000     2.51194396    -1.37087565     1.26074007
   15 C                    6.0000     0.57648772    -0.66567200    -0.59984101
   16 O                    8.0000     0.44657524    -0.76065704    -1.82027150
   17 N                    7.0000     0.66127777     0.51414965     0.02041743
   18 H                    1.0000     0.81010885     0.52426271     1.02067791
   19 C                    6.0000     0.61439826     1.82225482    -0.64075516
   20 H                    1.0000     1.11312946     1.72374858    -1.60661007
   21 C                    6.0000    -0.85073796     2.23800392    -0.90980077
   22 H                    1.0000    -0.82474956     3.02184724    -1.66868103
   23 H                    1.0000    -1.38238937     1.39261109    -1.34954247
   24 C                    6.0000    -1.66863794     2.78162325     0.28365163
   25 H                    1.0000    -1.16998443     3.65911098     0.69491428
   26 C                    6.0000    -3.04746496     3.21702572    -0.21623910
   27 H                    1.0000    -3.61886328     3.64871539     0.60573292
   28 H                    1.0000    -2.93894427     3.97133384    -0.99556671
   29 H                    1.0000    -3.58902072     2.35874061    -0.61767032
   30 C                    6.0000    -1.88108310     1.76366123     1.40517264
   31 H                    1.0000    -2.56660004     2.17050630     2.14944855
   32 H                    1.0000    -2.29467832     0.83922161     1.00182244
   33 H                    1.0000    -0.93512013     1.55973117     1.90326157
   34 C                    6.0000     1.38567508     2.87814826     0.16742805
   35 O                    8.0000     1.61342543     2.71998068     1.36158122
   36 N                    7.0000     1.78415906     3.97484777    -0.46123298
   37 H                    1.0000     1.59203517     4.09780378    -1.44111319
   38 H                    1.0000     2.28704031     4.66791358     0.06901153

      Atomic Mass 
      ----------- 

      H                  1.007825
      C                 12.000000
      O                 15.994910
      N                 14.003070


 Effective nuclear repulsion energy (a.u.)    1283.1753082337

            Nuclear Dipole moment (a.u.) 
            ----------------------------
        X                 Y               Z
 ---------------- ---------------- ----------------
    -0.0000000000    -0.0000000000     0.0000000000



                                Z-matrix (autoz)
                                -------- 

 Units are Angstrom for bonds and degrees for angles

      Type          Name      I     J     K     L     M      Value
      ----------- --------  ----- ----- ----- ----- ----- ----------
    1 Stretch                  1     2                       1.08959
    2 Stretch                  2     3                       1.08858
    3 Stretch                  2     4                       1.08785
    4 Stretch                  2     5                       1.51062
    5 Stretch                  5     6                       1.22290
    6 Stretch                  5     7                       1.33059
    7 Stretch                  7     8                       1.00910
    8 Stretch                  7     9                       1.46382
    9 Stretch                  9    10                       1.09098
   10 Stretch                  9    11                       1.53608
   11 Stretch                  9    15                       1.53951
   12 Stretch                 11    12                       1.09094
   13 Stretch                 11    13                       1.09084
   14 Stretch                 11    14                       1.09027
   15 Stretch                 15    16                       1.23100
   16 Stretch                 15    17                       1.33562
   17 Stretch                 17    18                       1.01132
   18 Stretch                 17    19                       1.46645
   19 Stretch                 19    20                       1.09147
   20 Stretch                 19    21                       1.54656
   21 Stretch                 19    34                       1.53719
   22 Stretch                 21    22                       1.09132
   23 Stretch                 21    23                       1.09120
   24 Stretch                 21    24                       1.54558
   25 Stretch                 24    25                       1.08985
   26 Stretch                 24    26                       1.52991
   27 Stretch                 24    30                       1.52944
   28 Stretch                 26    27                       1.09018
   29 Stretch                 26    28                       1.09000
   30 Stretch                 26    29                       1.09137
   31 Stretch                 30    31                       1.09060
   32 Stretch                 30    32                       1.09011
   33 Stretch                 30    33                       1.08836
   34 Stretch                 34    35                       1.22592
   35 Stretch                 34    36                       1.32543
   36 Stretch                 36    37                       1.00608
   37 Stretch                 36    38                       1.00717
   38 Bend                     1     2     3               109.61262
   39 Bend                     1     2     4               109.65472
   40 Bend                     1     2     5               108.87196
   41 Bend                     2     5     6               120.12830
   42 Bend                     2     5     7               116.48085
   43 Bend                     3     2     4               110.02881
   44 Bend                     3     2     5               109.31079
   45 Bend                     4     2     5               109.34133
   46 Bend                     5     7     8               118.79611
   47 Bend                     5     7     9               124.75544
   48 Bend                     6     5     7               123.39051
   49 Bend                     7     9    10               108.88974
   50 Bend                     7     9    11               108.92967
   51 Bend                     7     9    15               110.99403
   52 Bend                     8     7     9               116.36512
   53 Bend                     9    11    12               109.75586
   54 Bend                     9    11    13               109.99460
   55 Bend                     9    11    14               109.95440
   56 Bend                     9    15    16               120.67336
   57 Bend                     9    15    17               116.96213
   58 Bend                    10     9    11               108.49272
   59 Bend                    10     9    15               107.91346
   60 Bend                    11     9    15               111.55022
   61 Bend                    12    11    13               109.27488
   62 Bend                    12    11    14               108.68799
   63 Bend                    13    11    14               109.14821
   64 Bend                    15    17    18               118.52175
   65 Bend                    15    17    19               125.20862
   66 Bend                    16    15    17               122.36226
   67 Bend                    17    19    20               107.68973
   68 Bend                    17    19    21               110.39638
   69 Bend                    17    19    34               111.07835
   70 Bend                    18    17    19               116.21353
   71 Bend                    19    21    22               106.94727
   72 Bend                    19    21    23               108.86898
   73 Bend                    19    21    24               117.48697
   74 Bend                    19    34    35               121.11251
   75 Bend                    19    34    36               118.02398
   76 Bend                    20    19    21               107.64966
   77 Bend                    20    19    34               107.33598
   78 Bend                    21    19    34               112.46617
   79 Bend                    21    24    25               109.41745
   80 Bend                    21    24    26               108.94881
   81 Bend                    21    24    30               113.93063
   82 Bend                    22    21    23               106.72802
   83 Bend                    22    21    24               107.27302
   84 Bend                    23    21    24               109.01666
   85 Bend                    24    26    27               109.79812
   86 Bend                    24    26    28               109.92758
   87 Bend                    24    26    29               110.09550
   88 Bend                    24    30    31               109.84333
   89 Bend                    24    30    32               110.23088
   90 Bend                    24    30    33               109.85080
   91 Bend                    25    24    26               107.84958
   92 Bend                    25    24    30               108.82807
   93 Bend                    26    24    30               107.68782
   94 Bend                    27    26    28               108.49563
   95 Bend                    27    26    29               109.18741
   96 Bend                    28    26    29               109.30800
   97 Bend                    31    30    32               109.29192
   98 Bend                    31    30    33               107.69242
   99 Bend                    32    30    33               109.88931
  100 Bend                    34    36    37               120.37571
  101 Bend                    34    36    38               118.02044
  102 Bend                    35    34    36               120.85837
  103 Bend                    37    36    38               121.60163
  104 Torsion                  1     2     5     6           0.12976
  105 Torsion                  1     2     5     7        -179.66662
  106 Torsion                  2     5     7     8           2.27987
  107 Torsion                  2     5     7     9         178.83272
  108 Torsion                  3     2     5     6         119.84267
  109 Torsion                  3     2     5     7         -59.95371
  110 Torsion                  4     2     5     6        -119.65245
  111 Torsion                  4     2     5     7          60.55117
  112 Torsion                  5     7     9    10         -32.71184
  113 Torsion                  5     7     9    11          85.43659
  114 Torsion                  5     7     9    15        -151.36532
  115 Torsion                  6     5     7     8        -177.50920
  116 Torsion                  6     5     7     9          -0.95635
  117 Torsion                  7     9    11    12         -58.68910
  118 Torsion                  7     9    11    13          61.57087
  119 Torsion                  7     9    11    14        -178.20037
  120 Torsion                  7     9    15    16         -19.22468
  121 Torsion                  7     9    15    17         161.30800
  122 Torsion                  8     7     9    10         143.91668
  123 Torsion                  8     7     9    11         -97.93489
  124 Torsion                  8     7     9    15          25.26319
  125 Torsion                  9    15    17    18           2.24644
  126 Torsion                  9    15    17    19         179.41218
  127 Torsion                 10     9    11    12          59.70906
  128 Torsion                 10     9    11    13         179.96904
  129 Torsion                 10     9    11    14         -59.80221
  130 Torsion                 10     9    15    16        -138.46540
  131 Torsion                 10     9    15    17          42.06729
  132 Torsion                 11     9    15    16         102.45287
  133 Torsion                 11     9    15    17         -77.01444
  134 Torsion                 12    11     9    15         178.44586
  135 Torsion                 13    11     9    15         -61.29417
  136 Torsion                 14    11     9    15          58.93459
  137 Torsion                 15    17    19    20         -35.10130
  138 Torsion                 15    17    19    21          82.16469
  139 Torsion                 15    17    19    34        -152.36731
  140 Torsion                 16    15    17    18        -177.21116
  141 Torsion                 16    15    17    19          -0.04541
  142 Torsion                 17    19    21    22        -161.82454
  143 Torsion                 17    19    21    23         -46.85539
  144 Torsion                 17    19    21    24          77.61513
  145 Torsion                 17    19    34    35         -20.95301
  146 Torsion                 17    19    34    36         159.86546
  147 Torsion                 18    17    19    20         142.12300
  148 Torsion                 18    17    19    21        -100.61102
  149 Torsion                 18    17    19    34          24.85699
  150 Torsion                 19    21    24    25          58.58452
  151 Torsion                 19    21    24    26         176.27203
  152 Torsion                 19    21    24    30         -63.47542
  153 Torsion                 19    34    36    37          -0.71631
  154 Torsion                 19    34    36    38         179.81642
  155 Torsion                 20    19    21    22         -44.53381
  156 Torsion                 20    19    21    23          70.43535
  157 Torsion                 20    19    21    24        -165.09413
  158 Torsion                 20    19    34    35        -138.43461
  159 Torsion                 20    19    34    36          42.38387
  160 Torsion                 21    19    34    35         103.34965
  161 Torsion                 21    19    34    36         -75.83187
  162 Torsion                 21    24    26    27        -177.21953
  163 Torsion                 21    24    26    28         -57.93521
  164 Torsion                 21    24    26    29          62.53846
  165 Torsion                 21    24    30    31        -172.87045
  166 Torsion                 21    24    30    32         -52.38448
  167 Torsion                 21    24    30    33          68.84917
  168 Torsion                 22    21    19    34          73.49696
  169 Torsion                 22    21    24    25         -61.80539
  170 Torsion                 22    21    24    26          55.88212
  171 Torsion                 22    21    24    30         176.13466
  172 Torsion                 23    21    19    34        -171.53389
  173 Torsion                 23    21    24    25        -177.01888
  174 Torsion                 23    21    24    26         -59.33137
  175 Torsion                 23    21    24    30          60.92117
  176 Torsion                 24    21    19    34         -47.06336
  177 Torsion                 25    24    26    27         -58.54523
  178 Torsion                 25    24    26    28          60.73908
  179 Torsion                 25    24    26    29        -178.78725
  180 Torsion                 25    24    30    31          64.74537
  181 Torsion                 25    24    30    32        -174.76866
  182 Torsion                 25    24    30    33         -53.53501
  183 Torsion                 26    24    30    31         -51.91212
  184 Torsion                 26    24    30    32          68.57385
  185 Torsion                 26    24    30    33        -170.19250
  186 Torsion                 27    26    24    30          58.74948
  187 Torsion                 28    26    24    30         178.03379
  188 Torsion                 29    26    24    30         -61.49254
  189 Torsion                 35    34    36    37        -179.90001
  190 Torsion                 35    34    36    38           0.63272


            XYZ format geometry
            -------------------
    38
 geometry
 H                    -1.38701634    -6.02456916    -0.12502843
 C                    -0.94970898    -5.23504631    -0.73546184
 H                    -1.70822162    -4.82385617    -1.39923307
 H                    -0.12375875    -5.63776384    -1.31774252
 C                    -0.43576451    -4.14300712     0.17298876
 O                    -0.55041359    -4.24894226     1.38588750
 N                     0.12657651    -3.09323237    -0.42048790
 H                     0.15085746    -3.06014564    -1.42874863
 C                     0.66132490    -1.92521026     0.28132584
 H                     0.06527795    -1.74833387     1.17781386
 C                     2.10744747    -2.21905094     0.70785738
 H                     2.13029741    -3.09919207     1.35204872
 H                     2.72625045    -2.40060035    -0.17194754
 H                     2.51194396    -1.37087565     1.26074007
 C                     0.57648772    -0.66567200    -0.59984101
 O                     0.44657524    -0.76065704    -1.82027150
 N                     0.66127777     0.51414965     0.02041743
 H                     0.81010885     0.52426271     1.02067791
 C                     0.61439826     1.82225482    -0.64075516
 H                     1.11312946     1.72374858    -1.60661007
 C                    -0.85073796     2.23800392    -0.90980077
 H                    -0.82474956     3.02184724    -1.66868103
 H                    -1.38238937     1.39261109    -1.34954247
 C                    -1.66863794     2.78162325     0.28365163
 H                    -1.16998443     3.65911098     0.69491428
 C                    -3.04746496     3.21702572    -0.21623910
 H                    -3.61886328     3.64871539     0.60573292
 H                    -2.93894427     3.97133384    -0.99556671
 H                    -3.58902072     2.35874061    -0.61767032
 C                    -1.88108310     1.76366123     1.40517264
 H                    -2.56660004     2.17050630     2.14944855
 H                    -2.29467832     0.83922161     1.00182244
 H                    -0.93512013     1.55973117     1.90326157
 C                     1.38567508     2.87814826     0.16742805
 O                     1.61342543     2.71998068     1.36158122
 N                     1.78415906     3.97484777    -0.46123298
 H                     1.59203517     4.09780378    -1.44111319
 H                     2.28704031     4.66791358     0.06901153

 ==============================================================================
                                internuclear distances
 ------------------------------------------------------------------------------
       center one      |      center two      | atomic units |  angstroms
 ------------------------------------------------------------------------------
    2 C                |   1 H                |     2.05903  |     1.08959
    3 H                |   2 C                |     2.05712  |     1.08858
    4 H                |   2 C                |     2.05575  |     1.08785
    5 C                |   2 C                |     2.85466  |     1.51062
    6 O                |   5 C                |     2.31095  |     1.22290
    7 N                |   5 C                |     2.51445  |     1.33059
    8 H                |   7 N                |     1.90691  |     1.00910
    9 C                |   7 N                |     2.76622  |     1.46382
   10 H                |   9 C                |     2.06166  |     1.09098
   11 C                |   9 C                |     2.90277  |     1.53608
   12 H                |  11 C                |     2.06158  |     1.09094
   13 H                |  11 C                |     2.06139  |     1.09084
   14 H                |  11 C                |     2.06032  |     1.09027
   15 C                |   9 C                |     2.90925  |     1.53951
   16 O                |  15 C                |     2.32624  |     1.23100
   17 N                |  15 C                |     2.52396  |     1.33562
   18 H                |  17 N                |     1.91112  |     1.01132
   19 C                |  17 N                |     2.77120  |     1.46645
   20 H                |  19 C                |     2.06258  |     1.09147
   21 C                |  19 C                |     2.92258  |     1.54656
   22 H                |  21 C                |     2.06230  |     1.09132
   23 H                |  21 C                |     2.06207  |     1.09120
   24 C                |  21 C                |     2.92072  |     1.54558
   25 H                |  24 C                |     2.05952  |     1.08985
   26 C                |  24 C                |     2.89111  |     1.52991
   27 H                |  26 C                |     2.06014  |     1.09018
   28 H                |  26 C                |     2.05981  |     1.09000
   29 H                |  26 C                |     2.06239  |     1.09137
   30 C                |  24 C                |     2.89022  |     1.52944
   31 H                |  30 C                |     2.06093  |     1.09060
   32 H                |  30 C                |     2.06001  |     1.09011
   33 H                |  30 C                |     2.05670  |     1.08836
   34 C                |  19 C                |     2.90486  |     1.53719
   35 O                |  34 C                |     2.31666  |     1.22592
   36 N                |  34 C                |     2.50469  |     1.32543
   37 H                |  36 N                |     1.90121  |     1.00608
   38 H                |  36 N                |     1.90327  |     1.00717
 ------------------------------------------------------------------------------
                         number of included internuclear distances:         37
 ==============================================================================



 ==============================================================================
                                 internuclear angles
 ------------------------------------------------------------------------------
        center 1       |       center 2       |       center 3       |  degrees
 ------------------------------------------------------------------------------
    1 H                |   2 C                |   3 H                |   109.61
    1 H                |   2 C                |   4 H                |   109.65
    1 H                |   2 C                |   5 C                |   108.87
    3 H                |   2 C                |   4 H                |   110.03
    3 H                |   2 C                |   5 C                |   109.31
    4 H                |   2 C                |   5 C                |   109.34
    2 C                |   5 C                |   6 O                |   120.13
    2 C                |   5 C                |   7 N                |   116.48
    6 O                |   5 C                |   7 N                |   123.39
    5 C                |   7 N                |   8 H                |   118.80
    5 C                |   7 N                |   9 C                |   124.76
    8 H                |   7 N                |   9 C                |   116.37
    7 N                |   9 C                |  10 H                |   108.89
    7 N                |   9 C                |  11 C                |   108.93
    7 N                |   9 C                |  15 C                |   110.99
   10 H                |   9 C                |  11 C                |   108.49
   10 H                |   9 C                |  15 C                |   107.91
   11 C                |   9 C                |  15 C                |   111.55
    9 C                |  11 C                |  12 H                |   109.76
    9 C                |  11 C                |  13 H                |   109.99
    9 C                |  11 C                |  14 H                |   109.95
   12 H                |  11 C                |  13 H                |   109.27
   12 H                |  11 C                |  14 H                |   108.69
   13 H                |  11 C                |  14 H                |   109.15
    9 C                |  15 C                |  16 O                |   120.67
    9 C                |  15 C                |  17 N                |   116.96
   16 O                |  15 C                |  17 N                |   122.36
   15 C                |  17 N                |  18 H                |   118.52
   15 C                |  17 N                |  19 C                |   125.21
   18 H                |  17 N                |  19 C                |   116.21
   17 N                |  19 C                |  20 H                |   107.69
   17 N                |  19 C                |  21 C                |   110.40
   17 N                |  19 C                |  34 C                |   111.08
   20 H                |  19 C                |  21 C                |   107.65
   20 H                |  19 C                |  34 C                |   107.34
   21 C                |  19 C                |  34 C                |   112.47
   19 C                |  21 C                |  22 H                |   106.95
   19 C                |  21 C                |  23 H                |   108.87
   19 C                |  21 C                |  24 C                |   117.49
   22 H                |  21 C                |  23 H                |   106.73
   22 H                |  21 C                |  24 C                |   107.27
   23 H                |  21 C                |  24 C                |   109.02
   21 C                |  24 C                |  25 H                |   109.42
   21 C                |  24 C                |  26 C                |   108.95
   21 C                |  24 C                |  30 C                |   113.93
   25 H                |  24 C                |  26 C                |   107.85
   25 H                |  24 C                |  30 C                |   108.83
   26 C                |  24 C                |  30 C                |   107.69
   24 C                |  26 C                |  27 H                |   109.80
   24 C                |  26 C                |  28 H                |   109.93
   24 C                |  26 C                |  29 H                |   110.10
   27 H                |  26 C                |  28 H                |   108.50
   27 H                |  26 C                |  29 H                |   109.19
   28 H                |  26 C                |  29 H                |   109.31
   24 C                |  30 C                |  31 H                |   109.84
   24 C                |  30 C                |  32 H                |   110.23
   24 C                |  30 C                |  33 H                |   109.85
   31 H                |  30 C                |  32 H                |   109.29
   31 H                |  30 C                |  33 H                |   107.69
   32 H                |  30 C                |  33 H                |   109.89
   19 C                |  34 C                |  35 O                |   121.11
   19 C                |  34 C                |  36 N                |   118.02
   35 O                |  34 C                |  36 N                |   120.86
   34 C                |  36 N                |  37 H                |   120.38
   34 C                |  36 N                |  38 H                |   118.02
   37 H                |  36 N                |  38 H                |   121.60
 ------------------------------------------------------------------------------
                            number of included internuclear angles:         66
 ==============================================================================



  library name resolved from: environment
  library file name is: </opt/rit/el9/20230413/app/linux-rhel9-x86_64_v3/gcc-11.2.1/nwchem-7.2.0-oxtctbuhfuzyfaoziquq6bki22grib3g/share/nwchem/libraries/>
  


 Summary of "ao basis" -> "" (cartesian)
 ------------------------------------------------------------------------------
       Tag                 Description            Shells   Functions and Types
 ---------------- ------------------------------  ------  ---------------------
 *                        aug-cc-pvdz                 on all atoms 


                      Basis "ao basis" -> "ao basis" (cartesian)
                      -----
  H (Hydrogen)
  ------------
            Exponent  Coefficients 
       -------------- ---------------------------------------------------------
  1 S  1.30100000E+01  0.019685
  1 S  1.96200000E+00  0.137977
  1 S  4.44600000E-01  0.478148

  2 S  1.22000000E-01  1.000000

  3 S  2.97400000E-02  1.000000

  4 P  7.27000000E-01  1.000000

  5 P  1.41000000E-01  1.000000

  C (Carbon)
  ----------
            Exponent  Coefficients 
       -------------- ---------------------------------------------------------
  1 S  6.66500000E+03  0.000692
  1 S  1.00000000E+03  0.005329
  1 S  2.28000000E+02  0.027077
  1 S  6.47100000E+01  0.101718
  1 S  2.10600000E+01  0.274740
  1 S  7.49500000E+00  0.448564
  1 S  2.79700000E+00  0.285074
  1 S  5.21500000E-01  0.015204

  2 S  6.66500000E+03 -0.000146
  2 S  1.00000000E+03 -0.001154
  2 S  2.28000000E+02 -0.005725
  2 S  6.47100000E+01 -0.023312
  2 S  2.10600000E+01 -0.063955
  2 S  7.49500000E+00 -0.149981
  2 S  2.79700000E+00 -0.127262
  2 S  5.21500000E-01  0.544529

  3 S  1.59600000E-01  1.000000

  4 S  4.69000000E-02  1.000000

  5 P  9.43900000E+00  0.038109
  5 P  2.00200000E+00  0.209480
  5 P  5.45600000E-01  0.508557

  6 P  1.51700000E-01  1.000000

  7 P  4.04100000E-02  1.000000

  8 D  5.50000000E-01  1.000000

  9 D  1.51000000E-01  1.000000

  O (Oxygen)
  ----------
            Exponent  Coefficients 
       -------------- ---------------------------------------------------------
  1 S  1.17200000E+04  0.000710
  1 S  1.75900000E+03  0.005470
  1 S  4.00800000E+02  0.027837
  1 S  1.13700000E+02  0.104800
  1 S  3.70300000E+01  0.283062
  1 S  1.32700000E+01  0.448719
  1 S  5.02500000E+00  0.270952
  1 S  1.01300000E+00  0.015458

  2 S  1.17200000E+04 -0.000160
  2 S  1.75900000E+03 -0.001263
  2 S  4.00800000E+02 -0.006267
  2 S  1.13700000E+02 -0.025716
  2 S  3.70300000E+01 -0.070924
  2 S  1.32700000E+01 -0.165411
  2 S  5.02500000E+00 -0.116955
  2 S  1.01300000E+00  0.557368

  3 S  3.02300000E-01  1.000000

  4 S  7.89600000E-02  1.000000

  5 P  1.77000000E+01  0.043018
  5 P  3.85400000E+00  0.228913
  5 P  1.04600000E+00  0.508728

  6 P  2.75300000E-01  1.000000

  7 P  6.85600000E-02  1.000000

  8 D  1.18500000E+00  1.000000

  9 D  3.32000000E-01  1.000000

  N (Nitrogen)
  ------------
            Exponent  Coefficients 
       -------------- ---------------------------------------------------------
  1 S  9.04600000E+03  0.000700
  1 S  1.35700000E+03  0.005389
  1 S  3.09300000E+02  0.027406
  1 S  8.77300000E+01  0.103207
  1 S  2.85600000E+01  0.278723
  1 S  1.02100000E+01  0.448540
  1 S  3.83800000E+00  0.278238
  1 S  7.46600000E-01  0.015440

  2 S  9.04600000E+03 -0.000153
  2 S  1.35700000E+03 -0.001208
  2 S  3.09300000E+02 -0.005992
  2 S  8.77300000E+01 -0.024544
  2 S  2.85600000E+01 -0.067459
  2 S  1.02100000E+01 -0.158078
  2 S  3.83800000E+00 -0.121831
  2 S  7.46600000E-01  0.549003

  3 S  2.24800000E-01  1.000000

  4 S  6.12400000E-02  1.000000

  5 P  1.35500000E+01  0.039919
  5 P  2.91700000E+00  0.217169
  5 P  7.97300000E-01  0.510319

  6 P  2.18500000E-01  1.000000

  7 P  5.61100000E-02  1.000000

  8 D  8.17000000E-01  1.000000

  9 D  2.30000000E-01  1.000000



 Summary of "ao basis" -> "ao basis" (cartesian)
 ------------------------------------------------------------------------------
       Tag                 Description            Shells   Functions and Types
 ---------------- ------------------------------  ------  ---------------------
 H                        aug-cc-pvdz                5        9   3s2p
 C                        aug-cc-pvdz                9       25   4s3p2d
 O                        aug-cc-pvdz                9       25   4s3p2d
 N                        aug-cc-pvdz                9       25   4s3p2d


                                 NWChem SCF Module
                                 -----------------



  ao basis        = "ao basis"
  functions       =   614
  atoms           =    38
  closed shells   =    66
  open shells     =     0
  charge          =   0.00
  wavefunction    = RHF 
  input vectors   = atomic
  output vectors  = ./ALA_LEU_5.movecs
  use symmetry    = F
  symmetry adapt  = F


 Summary of "ao basis" -> "ao basis" (cartesian)
 ------------------------------------------------------------------------------
       Tag                 Description            Shells   Functions and Types
 ---------------- ------------------------------  ------  ---------------------
 H                        aug-cc-pvdz                5        9   3s2p
 C                        aug-cc-pvdz                9       25   4s3p2d
 O                        aug-cc-pvdz                9       25   4s3p2d
 N                        aug-cc-pvdz                9       25   4s3p2d



 Forming initial guess at       0.9s


 !! The overlap matrix has   6 vectors deemed linearly dependent with
    eigenvalues:
 2.12D-06 2.41D-06 5.44D-06 6.85D-06 8.15D-06 9.17D-06


      Superposition of Atomic Density Guess
      -------------------------------------

 Sum of atomic energies:        -812.03184720

      Non-variational initial energy
      ------------------------------

 Total energy =    -823.480478
 1-e energy   =   -3650.197480
 2-e energy   =    1543.541694
 HOMO         =      -0.310275
 LUMO         =       0.008935


 Starting SCF solution at     238.6s



 ----------------------------------------------
         Quadratically convergent ROHF

 Convergence threshold     :          1.000E-04
 Maximum no. of iterations :           30
 Final Fock-matrix accuracy:          1.000E-10
 ----------------------------------------------


              iter       energy          gnorm     gmax       time
             ----- ------------------- --------- --------- --------
                 1     -816.5061011263  2.45D+00  1.26D-01    539.3
                 2     -816.8312998563  8.47D-01  4.71D-02   1054.6
                 3     -816.8936636955  6.21D-02  5.23D-03   1779.8
                 4     -816.8942525031  3.55D-03  3.26D-04   2901.2
                 5     -816.8942549680  6.77D-06  3.80D-07   4623.0


       Final RHF  results 
       ------------------ 

         Total SCF energy =   -816.894254968031
      One-electron energy =  -3663.523144129133
      Two-electron energy =   1563.453580927443
 Nuclear repulsion energy =   1283.175308233660

        Time for solution =   4388.4s


             Final eigenvalues
             -----------------

              1      
    1  -20.5448
    2  -20.5366
    3  -20.5142
    4  -15.6183
    5  -15.6053
    6  -15.5890
    7  -11.3786
    8  -11.3679
    9  -11.3464
   10  -11.3084
   11  -11.2960
   12  -11.2474
   13  -11.2407
   14  -11.2356
   15  -11.2342
   16  -11.2241
   17  -11.2193
   18   -1.4080
   19   -1.3943
   20   -1.3763
   21   -1.2514
   22   -1.2454
   23   -1.2377
   24   -1.1070
   25   -1.0618
   26   -1.0252
   27   -0.9853
   28   -0.9349
   29   -0.9173
   30   -0.8904
   31   -0.8317
   32   -0.8065
   33   -0.7859
   34   -0.7756
   35   -0.7628
   36   -0.7244
   37   -0.6801
   38   -0.6735
   39   -0.6588
   40   -0.6561
   41   -0.6507
   42   -0.6249
   43   -0.6186
   44   -0.6123
   45   -0.6037
   46   -0.5917
   47   -0.5799
   48   -0.5715
   49   -0.5694
   50   -0.5608
   51   -0.5491
   52   -0.5432
   53   -0.5416
   54   -0.5363
   55   -0.5240
   56   -0.5157
   57   -0.4953
   58   -0.4772
   59   -0.4714
   60   -0.4681
   61   -0.4389
   62   -0.4349
   63   -0.4313
   64   -0.4125
   65   -0.4012
   66   -0.3865
   67    0.0217
   68    0.0368
   69    0.0394
   70    0.0428
   71    0.0481
   72    0.0508
   73    0.0566
   74    0.0572
   75    0.0632
   76    0.0663

                       ROHF Final Molecular Orbital Analysis
                       -------------------------------------

 Vector   18  Occ=2.000000D+00  E=-1.407963D+00
              MO Center=  1.5D+00,  2.6D+00,  6.6D-01, r^2= 2.0D+00
   Bfn.  Coefficient  Atom+Function         Bfn.  Coefficient  Atom+Function  
  ----- ------------  ---------------      ----- ------------  ---------------
   549      0.361591  35 O  s               548      0.334791  35 O  s         
   523      0.239936  34 C  s         

 Vector   19  Occ=2.000000D+00  E=-1.394337D+00
              MO Center=  5.5D-01, -5.1D-01, -1.0D+00, r^2= 2.9D+00
   Bfn.  Coefficient  Atom+Function         Bfn.  Coefficient  Atom+Function  
  ----- ------------  ---------------      ----- ------------  ---------------
   250      0.351383  16 O  s               249      0.330248  16 O  s         
   224      0.230690  15 C  s         

 Vector   20  Occ=2.000000D+00  E=-1.376302D+00
              MO Center= -4.0D-01, -3.9D+00,  7.4D-01, r^2= 1.7D+00
   Bfn.  Coefficient  Atom+Function         Bfn.  Coefficient  Atom+Function  
  ----- ------------  ---------------      ----- ------------  ---------------
    80      0.344836   6 O  s                79      0.342904   6 O  s         
    54      0.241732   5 C  s                12      0.159735   2 C  s         

 Vector   21  Occ=2.000000D+00  E=-1.251408D+00
              MO Center=  6.7D-01,  5.9D-01, -2.8D-01, r^2= 2.2D+00
   Bfn.  Coefficient  Atom+Function         Bfn.  Coefficient  Atom+Function  
  ----- ------------  ---------------      ----- ------------  ---------------
   275      0.415873  17 N  s               274      0.332573  17 N  s         
   250     -0.211507  16 O  s               249     -0.177013  16 O  s         
   229      0.152959  15 C  pz              308      0.150868  19 C  s         

 Vector   22  Occ=2.000000D+00  E=-1.245376D+00
              MO Center=  1.6D+00,  3.5D+00, -2.0D-01, r^2= 2.0D+00
   Bfn.  Coefficient  Atom+Function         Bfn.  Coefficient  Atom+Function  
  ----- ------------  ---------------      ----- ------------  ---------------
   574      0.382495  36 N  s               573      0.363138  36 N  s         
   549     -0.205982  35 O  s               548     -0.172200  35 O  s         
   597      0.167563  37 H  s               528     -0.163539  34 C  pz        
   606      0.153602  38 H  s         

 Vector   23  Occ=2.000000D+00  E=-1.237658D+00
              MO Center=  6.2D-02, -3.2D+00, -8.6D-02, r^2= 1.8D+00
   Bfn.  Coefficient  Atom+Function         Bfn.  Coefficient  Atom+Function  
  ----- ------------  ---------------      ----- ------------  ---------------
   105      0.440352   7 N  s               104      0.343140   7 N  s         
    80     -0.214159   6 O  s                79     -0.185552   6 O  s         
    59     -0.158642   5 C  pz              128      0.152945   8 H  s         

 Vector   24  Occ=2.000000D+00  E=-1.106973D+00
              MO Center= -1.2D+00,  2.2D+00, -8.2D-02, r^2= 3.8D+00
   Bfn.  Coefficient  Atom+Function         Bfn.  Coefficient  Atom+Function  
  ----- ------------  ---------------      ----- ------------  ---------------
   343      0.314569  21 C  s               385      0.236251  24 C  s         
   342      0.208110  21 C  s               472      0.184823  30 C  s         
   386     -0.168039  24 C  s         

 Vector   25  Occ=2.000000D+00  E=-1.061846D+00
              MO Center=  3.0D-01, -1.3D+00,  1.1D-01, r^2= 8.5D+00
   Bfn.  Coefficient  Atom+Function         Bfn.  Coefficient  Atom+Function  
  ----- ------------  ---------------      ----- ------------  ---------------
   138      0.219837   9 C  s               172      0.177806  11 C  s         
    12     -0.166231   2 C  s         

 Vector   26  Occ=2.000000D+00  E=-1.025203D+00
              MO Center= -1.6D-01,  6.2D-01, -1.7D-01, r^2= 1.1D+01
   Bfn.  Coefficient  Atom+Function         Bfn.  Coefficient  Atom+Function  
  ----- ------------  ---------------      ----- ------------  ---------------
   308      0.216266  19 C  s               472     -0.187485  30 C  s         
   225      0.166209  15 C  s               139     -0.154508   9 C  s         
   309      0.151502  19 C  s         

 Vector   27  Occ=2.000000D+00  E=-9.853074D-01
              MO Center= -2.1D-01, -4.1D+00, -3.2D-01, r^2= 5.8D+00
   Bfn.  Coefficient  Atom+Function         Bfn.  Coefficient  Atom+Function  
  ----- ------------  ---------------      ----- ------------  ---------------
    11      0.311112   2 C  s               172      0.169611  11 C  s         
   225      0.164704  15 C  s                55      0.161577   5 C  s         

 Vector   28  Occ=2.000000D+00  E=-9.348772D-01
              MO Center= -2.1D+00,  2.3D+00,  6.9D-01, r^2= 3.3D+00
   Bfn.  Coefficient  Atom+Function         Bfn.  Coefficient  Atom+Function  
  ----- ------------  ---------------      ----- ------------  ---------------
   471      0.300590  30 C  s               393      0.281167  24 C  pz        
   419     -0.228856  26 C  s               473      0.219701  30 C  s         
   392     -0.208614  24 C  py              421     -0.176751  26 C  s         
   513      0.158846  33 H  s         

 Vector   29  Occ=2.000000D+00  E=-9.173380D-01
              MO Center= -5.2D-01,  1.6D+00, -3.4D-01, r^2= 8.2D+00
   Bfn.  Coefficient  Atom+Function         Bfn.  Coefficient  Atom+Function  
  ----- ------------  ---------------      ----- ------------  ---------------
   342      0.233265  21 C  s               139      0.218499   9 C  s         
   145      0.200209   9 C  py              225     -0.196695  15 C  s         
   419     -0.185151  26 C  s               391      0.182184  24 C  px        
   472     -0.159743  30 C  s               146     -0.156392   9 C  pz        
   231      0.153667  15 C  py        

 Vector   30  Occ=2.000000D+00  E=-8.904117D-01
              MO Center=  1.0D+00, -8.0D-01,  8.7D-02, r^2= 9.4D+00
   Bfn.  Coefficient  Atom+Function         Bfn.  Coefficient  Atom+Function  
  ----- ------------  ---------------      ----- ------------  ---------------
   309      0.249952  19 C  s               172     -0.219362  11 C  s         
   146     -0.165717   9 C  pz              138      0.158863   9 C  s         
   144     -0.157571   9 C  px              145      0.155604   9 C  py        

 Vector   31  Occ=2.000000D+00  E=-8.316749D-01
              MO Center=  9.9D-01,  1.6D+00, -2.1D-01, r^2= 1.0D+01
   Bfn.  Coefficient  Atom+Function         Bfn.  Coefficient  Atom+Function  
  ----- ------------  ---------------      ----- ------------  ---------------
   577      0.241575  36 N  py              523     -0.189176  34 C  s         
   278      0.187265  17 N  py              225     -0.159627  15 C  s         
   606      0.158646  38 H  s               597      0.155865  37 H  s         

 Vector   32  Occ=2.000000D+00  E=-8.064833D-01
              MO Center= -9.0D-02,  1.0D+00, -6.9D-02, r^2= 6.6D+00
   Bfn.  Coefficient  Atom+Function         Bfn.  Coefficient  Atom+Function  
  ----- ------------  ---------------      ----- ------------  ---------------
   275     -0.273552  17 N  s               386     -0.267348  24 C  s         
   225      0.258272  15 C  s               279     -0.244686  17 N  pz        
   298     -0.238847  18 H  s               343      0.215773  21 C  s         
   472      0.213194  30 C  s               420      0.175947  26 C  s         

 Vector   33  Occ=2.000000D+00  E=-7.859381D-01
              MO Center=  2.3D-01, -2.1D+00, -1.7D-01, r^2= 7.4D+00
   Bfn.  Coefficient  Atom+Function         Bfn.  Coefficient  Atom+Function  
  ----- ------------  ---------------      ----- ------------  ---------------
   109      0.281940   7 N  pz              128     -0.278149   8 H  s         
   139      0.259779   9 C  s               105     -0.248297   7 N  s         
   225     -0.235586  15 C  s               146     -0.198289   9 C  pz        
    55      0.197142   5 C  s                54      0.167501   5 C  s         
   163      0.163787  10 H  s                80     -0.161838   6 O  s         

 Vector   34  Occ=2.000000D+00  E=-7.756096D-01
              MO Center=  1.9D-01,  2.2D+00, -1.9D-01, r^2= 8.4D+00
   Bfn.  Coefficient  Atom+Function         Bfn.  Coefficient  Atom+Function  
  ----- ------------  ---------------      ----- ------------  ---------------
   386      0.333992  24 C  s               578     -0.256430  36 N  pz        
   472     -0.242140  30 C  s               597      0.226674  37 H  s         
   524     -0.213941  34 C  s               225      0.178338  15 C  s         
   420     -0.178205  26 C  s               333      0.163095  20 H  s         

 Vector   35  Occ=2.000000D+00  E=-7.628126D-01
              MO Center=  2.7D-01,  1.9D+00, -1.3D-01, r^2= 8.4D+00
   Bfn.  Coefficient  Atom+Function         Bfn.  Coefficient  Atom+Function  
  ----- ------------  ---------------      ----- ------------  ---------------
   386      0.272694  24 C  s               578      0.213747  36 N  pz        
   279     -0.200670  17 N  pz              333      0.182214  20 H  s         
   597     -0.181736  37 H  s               472     -0.179455  30 C  s         
   606      0.172055  38 H  s               343     -0.170700  21 C  s         
   298     -0.166689  18 H  s               420     -0.159682  26 C  s         

 Vector   36  Occ=2.000000D+00  E=-7.244448D-01
              MO Center=  7.9D-01, -1.0D-02, -2.9D-01, r^2= 1.4D+01
   Bfn.  Coefficient  Atom+Function         Bfn.  Coefficient  Atom+Function  
  ----- ------------  ---------------      ----- ------------  ---------------
   606      0.230032  38 H  s               145      0.213400   9 C  py        
   142      0.196703   9 C  py              228     -0.195180  15 C  py        
   577      0.179484  36 N  py              309      0.158834  19 C  s         
   578      0.150849  36 N  pz        

 Vector   37  Occ=2.000000D+00  E=-6.800512D-01
              MO Center=  7.1D-01,  1.1D+00, -1.4D-01, r^2= 8.3D+00
   Bfn.  Coefficient  Atom+Function         Bfn.  Coefficient  Atom+Function  
  ----- ------------  ---------------      ----- ------------  ---------------
   553      0.221970  35 O  pz              313     -0.198867  19 C  pz        
   254     -0.192685  16 O  pz              549      0.188014  35 O  s         
   332      0.183904  20 H  s               343     -0.166862  21 C  s         
   250      0.152718  16 O  s         

 Vector   38  Occ=2.000000D+00  E=-6.735483D-01
              MO Center=  1.6D-01, -7.7D-01,  4.4D-02, r^2= 1.4D+01
   Bfn.  Coefficient  Atom+Function         Bfn.  Coefficient  Atom+Function  
  ----- ------------  ---------------      ----- ------------  ---------------
    84      0.206757   6 O  pz               80      0.177903   6 O  s         
   278     -0.173020  17 N  py              312      0.153843  19 C  py        

 Vector   39  Occ=2.000000D+00  E=-6.588379D-01
              MO Center=  9.6D-02, -6.0D-01, -2.5D-02, r^2= 9.5D+00
   Bfn.  Coefficient  Atom+Function         Bfn.  Coefficient  Atom+Function  
  ----- ------------  ---------------      ----- ------------  ---------------
   376      0.199669  23 H  s               162      0.172636  10 H  s         
   143      0.159792   9 C  pz        

 Vector   40  Occ=2.000000D+00  E=-6.560716D-01
              MO Center= -3.4D-02,  1.8D+00, -9.0D-02, r^2= 6.8D+00
   Bfn.  Coefficient  Atom+Function         Bfn.  Coefficient  Atom+Function  
  ----- ------------  ---------------      ----- ------------  ---------------
   343      0.348310  21 C  s               314      0.274475  19 C  px        
   311      0.202521  19 C  px              345     -0.177780  21 C  px        
   309     -0.176738  19 C  s               553     -0.164994  35 O  pz        
   277      0.150814  17 N  px        

 Vector   41  Occ=2.000000D+00  E=-6.507173D-01
              MO Center=  6.4D-03, -1.6D+00, -7.8D-02, r^2= 1.2D+01
   Bfn.  Coefficient  Atom+Function         Bfn.  Coefficient  Atom+Function  
  ----- ------------  ---------------      ----- ------------  ---------------
    58      0.198419   5 C  py               84      0.192887   6 O  pz        
   254      0.191374  16 O  pz               16     -0.162794   2 C  pz        
   228     -0.158192  15 C  py               80      0.150521   6 O  s         

 Vector   42  Occ=2.000000D+00  E=-6.249474D-01
              MO Center= -3.0D-02, -2.9D+00, -1.0D-01, r^2= 8.8D+00
   Bfn.  Coefficient  Atom+Function         Bfn.  Coefficient  Atom+Function  
  ----- ------------  ---------------      ----- ------------  ---------------
   139      0.519650   9 C  s               173     -0.387122  11 C  s         
   225     -0.274088  15 C  s                14      0.210336   2 C  px        
    57      0.183298   5 C  px              145      0.172405   9 C  py        
    44      0.162834   4 H  s               108     -0.163230   7 N  py        
   107      0.157710   7 N  px              141      0.156024   9 C  px        

 Vector   43  Occ=2.000000D+00  E=-6.186347D-01
              MO Center= -3.3D-01,  1.2D+00,  4.8D-02, r^2= 1.1D+01
   Bfn.  Coefficient  Atom+Function         Bfn.  Coefficient  Atom+Function  
  ----- ------------  ---------------      ----- ------------  ---------------
   309      0.382870  19 C  s               315      0.294941  19 C  py        
   343     -0.285708  21 C  s               139     -0.195008   9 C  s         
   524     -0.189646  34 C  s               553      0.170204  35 O  pz        
   278     -0.161841  17 N  py              312      0.162227  19 C  py        
   476     -0.151247  30 C  pz        

 Vector   44  Occ=2.000000D+00  E=-6.122976D-01
              MO Center= -1.2D-01,  1.1D+00,  1.4D-01, r^2= 1.1D+01
   Bfn.  Coefficient  Atom+Function         Bfn.  Coefficient  Atom+Function  
  ----- ------------  ---------------      ----- ------------  ---------------
   343      0.274915  21 C  s               553      0.217584  35 O  pz        
   528     -0.184833  34 C  pz              376     -0.181240  23 H  s         
   424     -0.156955  26 C  pz               13     -0.155382   2 C  s         
    56      0.152909   5 C  s         

 Vector   45  Occ=2.000000D+00  E=-6.037256D-01
              MO Center= -1.6D-02, -8.8D-01, -1.8D-01, r^2= 1.3D+01
   Bfn.  Coefficient  Atom+Function         Bfn.  Coefficient  Atom+Function  
  ----- ------------  ---------------      ----- ------------  ---------------
   343     -0.202207  21 C  s               309      0.190548  19 C  s         
   254      0.169856  16 O  pz        

 Vector   46  Occ=2.000000D+00  E=-5.917382D-01
              MO Center= -4.7D-01,  4.9D-01,  1.1D-02, r^2= 1.4D+01
   Bfn.  Coefficient  Atom+Function         Bfn.  Coefficient  Atom+Function  
  ----- ------------  ---------------      ----- ------------  ---------------
   472      0.269081  30 C  s               514     -0.257667  33 H  s         
   452     -0.164578  28 H  s               474     -0.153209  30 C  px        

 Vector   47  Occ=2.000000D+00  E=-5.798743D-01
              MO Center=  5.0D-01, -1.5D+00,  2.9D-01, r^2= 1.4D+01
   Bfn.  Coefficient  Atom+Function         Bfn.  Coefficient  Atom+Function  
  ----- ------------  ---------------      ----- ------------  ---------------
   214     -0.192880  14 H  s                59     -0.191112   5 C  pz        
    15      0.188063   2 C  py               84      0.185532   6 O  pz        
   176     -0.161461  11 C  py              472     -0.152354  30 C  s         

 Vector   48  Occ=2.000000D+00  E=-5.715275D-01
              MO Center= -1.7D-01,  3.9D-01,  1.5D-01, r^2= 1.3D+01
   Bfn.  Coefficient  Atom+Function         Bfn.  Coefficient  Atom+Function  
  ----- ------------  ---------------      ----- ------------  ---------------
   444      0.152502  27 H  s         

 Vector   49  Occ=2.000000D+00  E=-5.693871D-01
              MO Center= -1.2D-02,  1.4D+00,  1.7D-01, r^2= 8.3D+00
   Bfn.  Coefficient  Atom+Function         Bfn.  Coefficient  Atom+Function  
  ----- ------------  ---------------      ----- ------------  ---------------
   333      0.254671  20 H  s               313     -0.228467  19 C  pz        
   496     -0.206628  31 H  s               332      0.195983  20 H  s         
   495     -0.178001  31 H  s               528      0.176411  34 C  pz        
   474      0.172556  30 C  px              553     -0.161554  35 O  pz        
   343     -0.158174  21 C  s               284     -0.155352  17 N  py        

 Vector   50  Occ=2.000000D+00  E=-5.607543D-01
              MO Center= -4.1D-01, -4.3D+00,  9.6D-03, r^2= 5.3D+00
   Bfn.  Coefficient  Atom+Function         Bfn.  Coefficient  Atom+Function  
  ----- ------------  ---------------      ----- ------------  ---------------
    16      0.271151   2 C  pz                2      0.269675   1 H  s         
     1      0.242519   1 H  s                84      0.234416   6 O  pz        
    35     -0.216360   3 H  s                59     -0.189065   5 C  pz        
    15     -0.153936   2 C  py        

 Vector   51  Occ=2.000000D+00  E=-5.490856D-01
              MO Center= -8.1D-01,  1.7D-01,  1.9D-01, r^2= 1.3D+01
   Bfn.  Coefficient  Atom+Function         Bfn.  Coefficient  Atom+Function  
  ----- ------------  ---------------      ----- ------------  ---------------
   504      0.217433  32 H  s               375     -0.163457  23 H  s         
   315      0.162390  19 C  py              475     -0.159817  30 C  py        
   474     -0.157064  30 C  px              505      0.157481  32 H  s         
   514     -0.154307  33 H  s         

 Vector   52  Occ=2.000000D+00  E=-5.431681D-01
              MO Center= -5.1D-01,  1.8D-03, -3.4D-01, r^2= 1.5D+01
   Bfn.  Coefficient  Atom+Function         Bfn.  Coefficient  Atom+Function  
  ----- ------------  ---------------      ----- ------------  ---------------
   376     -0.208031  23 H  s               375     -0.206052  23 H  s         
   346      0.192022  21 C  py              344     -0.166963  21 C  s         
   197     -0.161403  12 H  s               367      0.159979  22 H  s         

 Vector   53  Occ=2.000000D+00  E=-5.415878D-01
              MO Center= -8.7D-01,  2.6D-01,  4.8D-02, r^2= 1.4D+01
   Bfn.  Coefficient  Atom+Function         Bfn.  Coefficient  Atom+Function  
  ----- ------------  ---------------      ----- ------------  ---------------
   343      0.257161  21 C  s               461      0.212620  29 H  s         
   423     -0.196322  26 C  py              197      0.177918  12 H  s         
   421      0.170717  26 C  s               196      0.167738  12 H  s         
   376     -0.158714  23 H  s               253     -0.157276  16 O  py        
   176     -0.154387  11 C  py              344     -0.154523  21 C  s         

 Vector   54  Occ=2.000000D+00  E=-5.362810D-01
              MO Center= -2.4D-01, -3.0D-01,  4.5D-03, r^2= 1.2D+01
   Bfn.  Coefficient  Atom+Function         Bfn.  Coefficient  Atom+Function  
  ----- ------------  ---------------      ----- ------------  ---------------
   309      0.250032  19 C  s               196     -0.207806  12 H  s         
   343     -0.206422  21 C  s               443     -0.183675  27 H  s         
   444     -0.180287  27 H  s               176      0.174282  11 C  py        
   252     -0.173641  16 O  px              197     -0.166610  12 H  s         
   227     -0.150876  15 C  px        

 Vector   55  Occ=2.000000D+00  E=-5.240058D-01
              MO Center=  7.3D-01, -1.9D+00,  2.9D-01, r^2= 8.8D+00
   Bfn.  Coefficient  Atom+Function         Bfn.  Coefficient  Atom+Function  
  ----- ------------  ---------------      ----- ------------  ---------------
   206      0.257605  13 H  s               163      0.251887  10 H  s         
   177     -0.245640  11 C  pz              205      0.231334  13 H  s         
   214     -0.217901  14 H  s               215     -0.188226  14 H  s         
   162      0.182863  10 H  s               143      0.179547   9 C  pz        
   109     -0.153498   7 N  pz        

 Vector   56  Occ=2.000000D+00  E=-5.157415D-01
              MO Center= -9.7D-01,  9.2D-01, -1.1D-01, r^2= 1.1D+01
   Bfn.  Coefficient  Atom+Function         Bfn.  Coefficient  Atom+Function  
  ----- ------------  ---------------      ----- ------------  ---------------
   496      0.238867  31 H  s               514     -0.203338  33 H  s         
   163      0.195709  10 H  s               453      0.187587  28 H  s         
   444     -0.184903  27 H  s               367     -0.180325  22 H  s         
   366     -0.175797  22 H  s               252      0.174681  16 O  px        
   424     -0.171835  26 C  pz              495      0.171918  31 H  s         

 Vector   57  Occ=2.000000D+00  E=-4.952620D-01
              MO Center=  9.1D-02, -3.1D+00,  3.5D-01, r^2= 6.5D+00
   Bfn.  Coefficient  Atom+Function         Bfn.  Coefficient  Atom+Function  
  ----- ------------  ---------------      ----- ------------  ---------------
    82      0.272419   6 O  px              141     -0.225963   9 C  px        
   175      0.216209  11 C  px               85      0.198728   6 O  px        
    57      0.166973   5 C  px              162      0.164164  10 H  s         
    83     -0.153021   6 O  py        

 Vector   58  Occ=2.000000D+00  E=-4.772389D-01
              MO Center= -1.8D+00,  2.5D+00,  3.2D-01, r^2= 3.3D+00
   Bfn.  Coefficient  Atom+Function         Bfn.  Coefficient  Atom+Function  
  ----- ------------  ---------------      ----- ------------  ---------------
   409     -0.308427  25 H  s               410     -0.301902  25 H  s         
   309      0.294266  19 C  s               514      0.293633  33 H  s         
   388     -0.243792  24 C  px              389     -0.209528  24 C  py        
   367      0.205883  22 H  s               422      0.200310  26 C  px        
   425      0.190301  26 C  px              344      0.182504  21 C  s         

 Vector   59  Occ=2.000000D+00  E=-4.713582D-01
              MO Center= -9.0D-01,  2.1D+00,  1.9D-03, r^2= 6.2D+00
   Bfn.  Coefficient  Atom+Function         Bfn.  Coefficient  Atom+Function  
  ----- ------------  ---------------      ----- ------------  ---------------
   347      0.229833  21 C  pz              333      0.225191  20 H  s         
   505     -0.215531  32 H  s               552      0.196493  35 O  py        
   390     -0.189034  24 C  pz              252     -0.179322  16 O  px        
   472      0.176707  30 C  s               444      0.174566  27 H  s         
   345     -0.172473  21 C  px              350      0.168212  21 C  pz        

 Vector   60  Occ=2.000000D+00  E=-4.681299D-01
              MO Center= -1.8D+00,  2.4D+00,  2.6D-01, r^2= 4.2D+00
   Bfn.  Coefficient  Atom+Function         Bfn.  Coefficient  Atom+Function  
  ----- ------------  ---------------      ----- ------------  ---------------
   390      0.255248  24 C  pz              476     -0.248917  30 C  pz        
   453      0.232422  28 H  s               479     -0.205343  30 C  pz        
   389     -0.203831  24 C  py              514     -0.204372  33 H  s         
   452      0.201578  28 H  s               475      0.194800  30 C  py        
   425     -0.191806  26 C  px              472      0.190846  30 C  s         

 Vector   61  Occ=2.000000D+00  E=-4.388562D-01
              MO Center=  9.3D-01,  2.4D+00,  5.6D-01, r^2= 4.1D+00
   Bfn.  Coefficient  Atom+Function         Bfn.  Coefficient  Atom+Function  
  ----- ------------  ---------------      ----- ------------  ---------------
   309      0.434010  19 C  s               552     -0.413619  35 O  py        
   555     -0.338980  35 O  py              524     -0.285739  34 C  s         
   551     -0.239944  35 O  px              343     -0.221600  21 C  s         
   530      0.200228  34 C  py              554     -0.194332  35 O  px        
   139     -0.180867   9 C  s               542     -0.178449  34 C  dxy       

 Vector   62  Occ=2.000000D+00  E=-4.348868D-01
              MO Center=  1.5D+00,  2.6D+00,  1.2D-01, r^2= 5.3D+00
   Bfn.  Coefficient  Atom+Function         Bfn.  Coefficient  Atom+Function  
  ----- ------------  ---------------      ----- ------------  ---------------
   551      0.344592  35 O  px              576     -0.341770  36 N  px        
   579     -0.308431  36 N  px              554      0.277411  35 O  px        
   253      0.204743  16 O  py              386     -0.183824  24 C  s         
   420      0.179390  26 C  s               577      0.177784  36 N  py        
   276      0.174992  17 N  s               256      0.166841  16 O  py        

 Vector   63  Occ=2.000000D+00  E=-4.312984D-01
              MO Center=  7.2D-01, -1.6D-01, -7.9D-01, r^2= 6.3D+00
   Bfn.  Coefficient  Atom+Function         Bfn.  Coefficient  Atom+Function  
  ----- ------------  ---------------      ----- ------------  ---------------
   253      0.458444  16 O  py              256      0.377670  16 O  py        
   309     -0.331677  19 C  s               552      0.174477  35 O  py        
   524      0.157961  34 C  s               143     -0.151970   9 C  pz        
   576      0.151996  36 N  px              145      0.150373   9 C  py        

 Vector   64  Occ=2.000000D+00  E=-4.124612D-01
              MO Center= -5.2D-01, -4.2D+00,  8.2D-01, r^2= 2.3D+00
   Bfn.  Coefficient  Atom+Function         Bfn.  Coefficient  Atom+Function  
  ----- ------------  ---------------      ----- ------------  ---------------
    83      0.474042   6 O  py               86      0.377213   6 O  py        
    13     -0.364445   2 C  s                82      0.259380   6 O  px        
   105     -0.239868   7 N  s                64     -0.216120   5 C  py        
    85      0.207204   6 O  px               19      0.187327   2 C  pz        
    16      0.181598   2 C  pz              145     -0.182167   9 C  py        

 Vector   65  Occ=2.000000D+00  E=-4.011550D-01
              MO Center=  3.1D-01, -3.0D-02, -4.4D-01, r^2= 5.8D+00
   Bfn.  Coefficient  Atom+Function         Bfn.  Coefficient  Atom+Function  
  ----- ------------  ---------------      ----- ------------  ---------------
   277      0.386706  17 N  px              280      0.357589  17 N  px        
   252     -0.294760  16 O  px              255     -0.232213  16 O  px        
   314     -0.175726  19 C  px              107     -0.153122   7 N  px        

 Vector   66  Occ=2.000000D+00  E=-3.864604D-01
              MO Center=  1.3D-01, -2.7D+00,  1.4D-01, r^2= 4.8D+00
   Bfn.  Coefficient  Atom+Function         Bfn.  Coefficient  Atom+Function  
  ----- ------------  ---------------      ----- ------------  ---------------
   107      0.375121   7 N  px              110      0.345824   7 N  px        
    82     -0.283297   6 O  px              139      0.266762   9 C  s         
    85     -0.219710   6 O  px              277      0.184071  17 N  px        
   108     -0.176437   7 N  py              280      0.177121  17 N  px        
   111     -0.162184   7 N  py        

 Vector   67  Occ=0.000000D+00  E= 2.167813D-02
              MO Center=  1.6D+00,  5.2D+00, -1.9D+00, r^2= 1.6D+01
   Bfn.  Coefficient  Atom+Function         Bfn.  Coefficient  Atom+Function  
  ----- ------------  ---------------      ----- ------------  ---------------
   575     -2.818549  36 N  s               533      2.723469  34 C  py        
   473      2.193180  30 C  s               318      2.093279  19 C  py        
   317      2.009540  19 C  px              599     -1.867973  37 H  s         
   608     -1.677009  38 H  s               226      1.615904  15 C  s         
   300      1.561649  18 H  s               454     -1.197950  28 H  s         

 Vector   68  Occ=0.000000D+00  E= 3.682947D-02
              MO Center= -1.7D+00, -2.1D+00, -1.5D+00, r^2= 3.8D+01
   Bfn.  Coefficient  Atom+Function         Bfn.  Coefficient  Atom+Function  
  ----- ------------  ---------------      ----- ------------  ---------------
   148      4.035377   9 C  py               64      3.138378   5 C  py        
   174     -3.118615  11 C  s               106      2.650598   7 N  s         
   147      2.585401   9 C  px               37      1.934441   3 H  s         
   463      1.801833  29 H  s                12     -1.732785   2 C  s         
   300     -1.479467  18 H  s               344     -1.401066  21 C  s         

 Vector   69  Occ=0.000000D+00  E= 3.936041D-02
              MO Center= -1.3D+00,  1.5D+00, -5.9D-01, r^2= 4.6D+01
   Bfn.  Coefficient  Atom+Function         Bfn.  Coefficient  Atom+Function  
  ----- ------------  ---------------      ----- ------------  ---------------
   148      3.620868   9 C  py              334      2.121443  20 H  s         
   317     -2.053103  19 C  px              351     -1.910468  21 C  px        
   420      1.838634  26 C  s               445     -1.693016  27 H  s         
   106      1.656111   7 N  s               394     -1.593317  24 C  px        
   300     -1.517509  18 H  s               174     -1.425877  11 C  s         

 Vector   70  Occ=0.000000D+00  E= 4.276952D-02
              MO Center=  2.4D-01,  3.4D+00, -7.0D-02, r^2= 3.5D+01
   Bfn.  Coefficient  Atom+Function         Bfn.  Coefficient  Atom+Function  
  ----- ------------  ---------------      ----- ------------  ---------------
   344      3.074092  21 C  s               473     -2.597251  30 C  s         
   368      2.495965  22 H  s                56      2.353136   5 C  s         
   608     -2.224765  38 H  s               353      1.986074  21 C  pz        
   396      1.832880  24 C  pz              497     -1.781960  31 H  s         
   482      1.733040  30 C  pz              533      1.650987  34 C  py        

 Vector   71  Occ=0.000000D+00  E= 4.811519D-02
              MO Center=  1.1D+00, -1.5D+00, -3.4D-02, r^2= 4.3D+01
   Bfn.  Coefficient  Atom+Function         Bfn.  Coefficient  Atom+Function  
  ----- ------------  ---------------      ----- ------------  ---------------
    64      2.937166   5 C  py              147      2.775091   9 C  px        
   216     -2.755343  14 H  s               515     -2.527361  33 H  s         
   300      2.176463  18 H  s               334     -2.173223  20 H  s         
    12     -2.066564   2 C  s               533     -2.048425  34 C  py        
   173      1.859579  11 C  s               575      1.682534  36 N  s         

 Vector   72  Occ=0.000000D+00  E= 5.082028D-02
              MO Center= -1.2D+00,  1.4D-01, -5.3D-01, r^2= 4.6D+01
   Bfn.  Coefficient  Atom+Function         Bfn.  Coefficient  Atom+Function  
  ----- ------------  ---------------      ----- ------------  ---------------
   454      2.682399  28 H  s               463     -2.453362  29 H  s         
    46      2.417704   4 H  s               497     -2.282943  31 H  s         
   411      2.249623  25 H  s               334     -2.084712  20 H  s         
   482      1.693601  30 C  pz              216     -1.637005  14 H  s         
    37     -1.604038   3 H  s               429     -1.606774  26 C  py        

 Vector   73  Occ=0.000000D+00  E= 5.661869D-02
              MO Center= -9.7D-01,  4.2D-01,  1.4D-01, r^2= 4.8D+01
   Bfn.  Coefficient  Atom+Function         Bfn.  Coefficient  Atom+Function  
  ----- ------------  ---------------      ----- ------------  ---------------
   497      3.278779  31 H  s               174     -2.624414  11 C  s         
   463     -2.513961  29 H  s               147      2.485697   9 C  px        
     3      2.395909   1 H  s               395      2.284511  24 C  py        
   599      2.163789  37 H  s               421     -2.107915  26 C  s         
   394     -2.067683  24 C  px              608     -2.063552  38 H  s         

 Vector   74  Occ=0.000000D+00  E= 5.720961D-02
              MO Center=  2.9D-01,  1.5D-01,  7.0D-01, r^2= 4.5D+01
   Bfn.  Coefficient  Atom+Function         Bfn.  Coefficient  Atom+Function  
  ----- ------------  ---------------      ----- ------------  ---------------
   334      3.957813  20 H  s               319      3.513486  19 C  pz        
   473      3.186938  30 C  s               216     -2.846033  14 H  s         
   198     -2.469283  12 H  s               368     -2.351641  22 H  s         
   497      2.316564  31 H  s               351      2.246979  21 C  px        
   445      2.206249  27 H  s               515     -2.054590  33 H  s         

 Vector   75  Occ=0.000000D+00  E= 6.316178D-02
              MO Center= -1.7D+00,  8.1D-01, -2.3D-01, r^2= 4.4D+01
   Bfn.  Coefficient  Atom+Function         Bfn.  Coefficient  Atom+Function  
  ----- ------------  ---------------      ----- ------------  ---------------
   394     -3.726331  24 C  px              368      3.488959  22 H  s         
   377      3.113917  23 H  s               411      2.979061  25 H  s         
   353      2.923450  21 C  pz                3     -2.762786   1 H  s         
   473     -2.602127  30 C  s               445     -2.334558  27 H  s         
   421     -2.302161  26 C  s                13     -2.258554   2 C  s         

 Vector   76  Occ=0.000000D+00  E= 6.633898D-02
              MO Center= -4.9D-01, -1.6D+00, -6.0D-01, r^2= 4.9D+01
   Bfn.  Coefficient  Atom+Function         Bfn.  Coefficient  Atom+Function  
  ----- ------------  ---------------      ----- ------------  ---------------
   334      4.148065  20 H  s                46     -3.067265   4 H  s         
    56      3.081514   5 C  s               174     -3.025981  11 C  s         
   411      3.040820  25 H  s                 3      2.833945   1 H  s         
   319      2.829349  19 C  pz               64      2.612017   5 C  py        
   394     -2.445753  24 C  px              463     -2.364819  29 H  s         

 Vector   77  Occ=0.000000D+00  E= 7.162926D-02
              MO Center= -2.0D-01, -2.4D-01, -1.0D+00, r^2= 4.9D+01
   Bfn.  Coefficient  Atom+Function         Bfn.  Coefficient  Atom+Function  
  ----- ------------  ---------------      ----- ------------  ---------------
   334      3.993608  20 H  s               599     -3.814217  37 H  s         
   506     -3.633591  32 H  s               106     -2.877454   7 N  s         
    37     -2.740675   3 H  s               411     -2.711183  25 H  s         
   421     -2.714657  26 C  s               515      2.671434  33 H  s         
   368      2.559164  22 H  s                 3      2.387626   1 H  s         

 Vector   78  Occ=0.000000D+00  E= 7.431123D-02
              MO Center=  1.1D-01, -1.0D+00, -1.9D-01, r^2= 4.8D+01
   Bfn.  Coefficient  Atom+Function         Bfn.  Coefficient  Atom+Function  
  ----- ------------  ---------------      ----- ------------  ---------------
   216      5.587791  14 H  s               515      5.344987  33 H  s         
   207     -4.443133  13 H  s               300     -4.063867  18 H  s         
   445      3.831671  27 H  s               411     -3.398112  25 H  s         
     3     -3.026068   1 H  s               506     -2.725190  32 H  s         
    13     -2.611460   2 C  s               114     -2.583580   7 N  py        

 Vector   79  Occ=0.000000D+00  E= 7.670311D-02
              MO Center= -4.4D-01,  3.3D-01,  2.5D-01, r^2= 4.6D+01
   Bfn.  Coefficient  Atom+Function         Bfn.  Coefficient  Atom+Function  
  ----- ------------  ---------------      ----- ------------  ---------------
   454      6.010843  28 H  s               198     -5.179617  12 H  s         
   445     -3.338560  27 H  s               234      3.188566  15 C  py        
   368     -3.072882  22 H  s               411     -2.701534  25 H  s         
   377     -2.679362  23 H  s               351     -2.631984  21 C  px        
    13      2.586255   2 C  s               207      2.558467  13 H  s         

 Vector   80  Occ=0.000000D+00  E= 8.129164D-02
              MO Center=  2.0D-03, -2.1D-01,  4.5D-01, r^2= 4.2D+01
   Bfn.  Coefficient  Atom+Function         Bfn.  Coefficient  Atom+Function  
  ----- ------------  ---------------      ----- ------------  ---------------
   368      6.149745  22 H  s               334     -5.392704  20 H  s         
   164     -4.795746  10 H  s               497      4.264439  31 H  s         
    56      3.611341   5 C  s               174     -3.615501  11 C  s         
    64      3.146771   5 C  py              149      2.882961   9 C  pz        
   319     -2.772812  19 C  pz              454     -2.705118  28 H  s         

 Vector   81  Occ=0.000000D+00  E= 8.520431D-02
              MO Center= -1.6D+00,  2.0D+00, -8.7D-02, r^2= 4.2D+01
   Bfn.  Coefficient  Atom+Function         Bfn.  Coefficient  Atom+Function  
  ----- ------------  ---------------      ----- ------------  ---------------
   411      6.821423  25 H  s               463      6.316549  29 H  s         
   395     -4.211213  24 C  py              445     -3.636418  27 H  s         
   368     -3.117313  22 H  s               429      3.100603  26 C  py        
   106     -2.952445   7 N  s               454     -2.602482  28 H  s         
   352      2.502140  21 C  py              608     -2.456006  38 H  s         

 Vector   82  Occ=0.000000D+00  E= 8.857009D-02
              MO Center= -9.7D-01,  5.8D-01,  1.7D-01, r^2= 4.1D+01
   Bfn.  Coefficient  Atom+Function         Bfn.  Coefficient  Atom+Function  
  ----- ------------  ---------------      ----- ------------  ---------------
   506      9.507982  32 H  s               368      6.965186  22 H  s         
   515     -5.520117  33 H  s               352     -4.940632  21 C  py        
   377     -4.171157  23 H  s               396     -4.029204  24 C  pz        
   497     -3.483458  31 H  s               445      3.192375  27 H  s         
   599     -3.200082  37 H  s               481      2.974519  30 C  py        

 Vector   83  Occ=0.000000D+00  E= 9.345732D-02
              MO Center= -2.0D-01, -1.1D+00, -1.6D-01, r^2= 4.9D+01
   Bfn.  Coefficient  Atom+Function         Bfn.  Coefficient  Atom+Function  
  ----- ------------  ---------------      ----- ------------  ---------------
   334     -5.492828  20 H  s                13      5.456490   2 C  s         
   445      5.192111  27 H  s               198     -5.034786  12 H  s         
   454     -4.889826  28 H  s               497     -4.897617  31 H  s         
   515      4.507473  33 H  s               300     -3.727334  18 H  s         
   368      3.655464  22 H  s               234      3.574550  15 C  py        

 Vector   84  Occ=0.000000D+00  E= 9.845135D-02
              MO Center= -7.7D-01,  7.1D-02, -1.5D-01, r^2= 4.4D+01
   Bfn.  Coefficient  Atom+Function         Bfn.  Coefficient  Atom+Function  
  ----- ------------  ---------------      ----- ------------  ---------------
   368      8.626255  22 H  s               377     -6.206794  23 H  s         
   454     -5.550942  28 H  s               497     -5.559323  31 H  s         
   421     -5.479529  26 C  s               515      4.766924  33 H  s         
   352     -4.662488  21 C  py              216     -4.437439  14 H  s         
   445      4.059089  27 H  s               207      3.685817  13 H  s         

[...]
   575     -7.277146  36 N  s               276     -6.872603  17 N  s         
   115      6.456133   7 N  pz              106      5.693330   7 N  s         
   318     -5.527880  19 C  py              284      5.444188  17 N  py        

 Vector  174  Occ=0.000000D+00  E= 4.442383D-01
              MO Center= -6.5D-01, -4.7D-01, -8.2D-02, r^2= 2.7D+01
   Bfn.  Coefficient  Atom+Function         Bfn.  Coefficient  Atom+Function  
  ----- ------------  ---------------      ----- ------------  ---------------
   421     10.689720  26 C  s               351     10.272771  21 C  px        
   319      8.686451  19 C  pz              575     -7.815154  36 N  s         
   533      6.453531  34 C  py              472      5.320787  30 C  s         
   276     -5.263921  17 N  s               148     -4.950691   9 C  py        
   353     -4.572758  21 C  pz              462     -4.052164  29 H  s         

 Vector  175  Occ=0.000000D+00  E= 4.458551D-01
              MO Center= -5.3D-01, -6.2D-01, -3.7D-01, r^2= 2.6D+01
   Bfn.  Coefficient  Atom+Function         Bfn.  Coefficient  Atom+Function  
  ----- ------------  ---------------      ----- ------------  ---------------
   352     -9.759009  21 C  py              318      8.942994  19 C  py        
   377     -7.495866  23 H  s                56     -6.925318   5 C  s         
   473      6.935365  30 C  s                 2     -4.750416   1 H  s         
   173     -4.762631  11 C  s               235     -4.705307  15 C  pz        
   368      4.632959  22 H  s               395      4.367472  24 C  py        

 Vector  176  Occ=0.000000D+00  E= 4.491596D-01
              MO Center= -1.8D-01, -9.5D-01, -1.6D-01, r^2= 2.4D+01
   Bfn.  Coefficient  Atom+Function         Bfn.  Coefficient  Atom+Function  
  ----- ------------  ---------------      ----- ------------  ---------------
   318     10.905952  19 C  py              473      9.219120  30 C  s         
    56     -8.155644   5 C  s               317      8.161348  19 C  px        
   319      7.963469  19 C  pz              284     -7.788485  17 N  py        
   353     -7.209821  21 C  pz              394     -6.608830  24 C  px        
   114     -6.551318   7 N  py              351      6.249402  21 C  px        

 Vector  177  Occ=0.000000D+00  E= 4.543439D-01
              MO Center= -4.0D-02,  2.6D-01, -3.5D-03, r^2= 2.4D+01
   Bfn.  Coefficient  Atom+Function         Bfn.  Coefficient  Atom+Function  
  ----- ------------  ---------------      ----- ------------  ---------------
   148      9.367161   9 C  py              174     -8.800132  11 C  s         
   173     -8.090331  11 C  s               206      7.459689  13 H  s         
   421     -6.895741  26 C  s                56      6.794618   5 C  s         
   344     -6.726246  21 C  s               473      6.142299  30 C  s         
   197      4.944932  12 H  s               575      4.932505  36 N  s         

 Vector  178  Occ=0.000000D+00  E= 4.584949D-01
              MO Center= -1.6D-01, -1.2D-01, -4.2D-01, r^2= 2.4D+01
   Bfn.  Coefficient  Atom+Function         Bfn.  Coefficient  Atom+Function  
  ----- ------------  ---------------      ----- ------------  ---------------
   394     11.292673  24 C  px              318    -10.706282  19 C  py        
   148     10.348228   9 C  py              235     10.257220  15 C  pz        
   421     10.113930  26 C  s               234     -8.619447  15 C  py        
   352      7.663572  21 C  py              377      7.507352  23 H  s         
   319     -6.002379  19 C  pz              226     -5.899790  15 C  s         

 Vector  179  Occ=0.000000D+00  E= 4.599343D-01
              MO Center= -7.5D-01,  4.1D-01,  2.2D-01, r^2= 2.3D+01
   Bfn.  Coefficient  Atom+Function         Bfn.  Coefficient  Atom+Function  
  ----- ------------  ---------------      ----- ------------  ---------------
   421    -11.923058  26 C  s               343     10.860362  21 C  s         
   173      9.334814  11 C  s               284      8.995100  17 N  py        
   148      8.702779   9 C  py              174      8.273462  11 C  s         
   206     -7.691866  13 H  s               351     -7.458120  21 C  px        
   318      7.205891  19 C  py              376     -6.731380  23 H  s         

 Vector  180  Occ=0.000000D+00  E= 4.649629D-01
              MO Center= -2.4D-01, -5.8D-01,  4.4D-01, r^2= 2.3D+01
   Bfn.  Coefficient  Atom+Function         Bfn.  Coefficient  Atom+Function  
  ----- ------------  ---------------      ----- ------------  ---------------
   300     -8.151678  18 H  s               148      7.918254   9 C  py        
   149      7.269472   9 C  pz              174     -6.967485  11 C  s         
   421     -6.756068  26 C  s               575      6.607446  36 N  s         
   351     -6.272175  21 C  px              319     -5.691449  19 C  pz        
   163     -5.549520  10 H  s               276      4.956196  17 N  s         

 Vector  181  Occ=0.000000D+00  E= 4.679528D-01
              MO Center=  2.3D-01, -1.5D+00,  4.0D-01, r^2= 2.1D+01
   Bfn.  Coefficient  Atom+Function         Bfn.  Coefficient  Atom+Function  
  ----- ------------  ---------------      ----- ------------  ---------------
   148     15.323079   9 C  py               56     14.945015   5 C  s         
   276    -13.120664  17 N  s               174     -9.259250  11 C  s         
   197      7.576674  12 H  s               473     -7.086940  30 C  s         
   106      6.776973   7 N  s                13     -6.674637   2 C  s         
   344      6.627157  21 C  s               525      6.446511  34 C  s         

 Vector  182  Occ=0.000000D+00  E= 4.703537D-01
              MO Center= -3.8D-01,  4.8D-01, -7.1D-02, r^2= 2.4D+01
   Bfn.  Coefficient  Atom+Function         Bfn.  Coefficient  Atom+Function  
  ----- ------------  ---------------      ----- ------------  ---------------
    13     19.918841   2 C  s               174     16.517173  11 C  s         
    56    -14.193370   5 C  s               234     10.028403  15 C  py        
   318      9.768268  19 C  py              395      8.900635  24 C  py        
    64      8.664375   5 C  py               12      7.569907   2 C  s         
   344     -7.512142  21 C  s               147     -7.204092   9 C  px        

 Vector  183  Occ=0.000000D+00  E= 4.734157D-01
              MO Center= -1.9D-01,  7.6D-01,  1.1D-01, r^2= 2.1D+01
   Bfn.  Coefficient  Atom+Function         Bfn.  Coefficient  Atom+Function  
  ----- ------------  ---------------      ----- ------------  ---------------
   410     11.177396  25 H  s               421    -10.256163  26 C  s         
   386     -9.563762  24 C  s               505      9.070726  32 H  s         
   148      7.934169   9 C  py              174      7.942556  11 C  s         
   472     -7.939198  30 C  s               114     -6.456715   7 N  py        
   394     -6.189610  24 C  px              514      5.901183  33 H  s         

 Vector  184  Occ=0.000000D+00  E= 4.776059D-01
              MO Center= -6.7D-01,  1.1D+00, -4.3D-02, r^2= 2.1D+01
   Bfn.  Coefficient  Atom+Function         Bfn.  Coefficient  Atom+Function  
  ----- ------------  ---------------      ----- ------------  ---------------
   421     15.155772  26 C  s               174     12.408843  11 C  s         
   420     10.717758  26 C  s               344     -9.911615  21 C  s         
   462     -8.431440  29 H  s               473      8.283287  30 C  s         
   453     -8.062385  28 H  s               276     -7.741656  17 N  s         
   343      6.734181  21 C  s               525      6.204153  34 C  s         

 Vector  185  Occ=0.000000D+00  E= 4.818655D-01
              MO Center= -5.7D-02, -9.8D-02,  2.3D-01, r^2= 2.5D+01
   Bfn.  Coefficient  Atom+Function         Bfn.  Coefficient  Atom+Function  
  ----- ------------  ---------------      ----- ------------  ---------------
    13     21.041807   2 C  s               276     16.682199  17 N  s         
   421    -16.628574  26 C  s               473     12.670346  30 C  s         
   318     11.653583  19 C  py               64     11.032902   5 C  py        
   525    -10.023328  34 C  s                56     -8.020309   5 C  s         
   344     -7.566998  21 C  s               284      7.263773  17 N  py        

 Vector  186  Occ=0.000000D+00  E= 4.828450D-01
              MO Center= -1.2D-01,  1.2D+00,  2.5D-01, r^2= 2.3D+01
   Bfn.  Coefficient  Atom+Function         Bfn.  Coefficient  Atom+Function  
  ----- ------------  ---------------      ----- ------------  ---------------
   421     15.525685  26 C  s               344     -8.496884  21 C  s         
   387     -8.432077  24 C  s               174      7.432017  11 C  s         
   575      7.372330  36 N  s                13      7.116703   2 C  s         
   149     -7.043118   9 C  pz               56     -6.875900   5 C  s         
   462     -6.895708  29 H  s               533     -6.533828  34 C  py        

 Vector  187  Occ=0.000000D+00  E= 4.856792D-01
              MO Center= -2.5D-01,  5.2D-01, -1.2D-01, r^2= 2.3D+01
   Bfn.  Coefficient  Atom+Function         Bfn.  Coefficient  Atom+Function  
  ----- ------------  ---------------      ----- ------------  ---------------
   421     16.331600  26 C  s                13     13.554709   2 C  s         
   148     11.961889   9 C  py              387    -10.358867  24 C  s         
   344     -8.947734  21 C  s               473     -8.902371  30 C  s         
   394      8.231014  24 C  px              106      7.654582   7 N  s         
   351     -7.670488  21 C  px              318      7.094088  19 C  py        

 Vector  188  Occ=0.000000D+00  E= 4.933974D-01
              MO Center= -1.6D-01, -8.5D-01,  5.1D-02, r^2= 2.3D+01
   Bfn.  Coefficient  Atom+Function         Bfn.  Coefficient  Atom+Function  
  ----- ------------  ---------------      ----- ------------  ---------------
   473     17.770593  30 C  s                56    -13.469106   5 C  s         
   344    -11.778908  21 C  s               106      9.768941   7 N  s         
   421      7.815603  26 C  s               318     -7.686819  19 C  py        
    13      7.580849   2 C  s               496     -7.465326  31 H  s         
   472      7.418125  30 C  s               114     -7.208376   7 N  py        

 Vector  189  Occ=0.000000D+00  E= 4.977108D-01
              MO Center= -6.0D-01,  5.6D-01,  1.8D-01, r^2= 2.1D+01
   Bfn.  Coefficient  Atom+Function         Bfn.  Coefficient  Atom+Function  
  ----- ------------  ---------------      ----- ------------  ---------------
   234      9.749472  15 C  py              317     -5.555222  19 C  px        
   505     -5.326808  32 H  s               396      4.620380  24 C  pz        
   506     -4.631992  32 H  s                56      4.505707   5 C  s         
   533      4.454053  34 C  py              343      4.188241  21 C  s         
   515      3.936270  33 H  s               318     -3.915509  19 C  py        

 Vector  190  Occ=0.000000D+00  E= 5.010404D-01
              MO Center= -1.3D+00,  8.7D-01,  1.4D-01, r^2= 2.2D+01
   Bfn.  Coefficient  Atom+Function         Bfn.  Coefficient  Atom+Function  
  ----- ------------  ---------------      ----- ------------  ---------------
   473     11.012668  30 C  s               472      8.774023  30 C  s         
   505     -8.192748  32 H  s               506     -6.584822  32 H  s         
   496     -6.334753  31 H  s               147      5.842873   9 C  px        
    64      5.595797   5 C  py              174     -5.398493  11 C  s         
    13      5.272634   2 C  s               197      4.898440  12 H  s         


 center of mass
 --------------
 x =   0.07057380 y =  -0.04205569 z =   0.00677770

 moments of inertia (a.u.)
 ------------------
        8264.163261061034          -0.000000000001          -0.000000000001
          -0.000000000001        2479.190821041502           0.000000000000
          -0.000000000001           0.000000000000        9243.551386599811

  Mulliken analysis of the total density
  --------------------------------------

    Atom       Charge   Shell Charges
 -----------   ------   -------------------------------------------------------
    1 H    1     1.01   0.76  0.25  0.01  0.03 -0.05
    2 C    6     6.28   2.01  0.66  0.21  0.17  2.06  1.04 -0.02  0.06  0.09
    3 H    1     0.86   0.76  0.13  0.00  0.03 -0.06
    4 H    1     0.87   0.76  0.13 -0.00  0.03 -0.06
    5 C    6     5.14   2.01  0.68  0.10 -0.05  1.90  0.30 -0.05  0.24  0.02
    6 O    8     8.71   2.01  0.82  0.99  0.15  2.79  1.82  0.14  0.01 -0.02
    7 N    7     7.60   2.01  0.72  0.86 -0.07  2.46  1.45  0.08  0.05  0.05
    8 H    1     1.00   0.75  0.22 -0.00  0.06 -0.03
    9 C    6     6.44   2.01  0.66  0.19  0.01  2.00  1.41 -0.10  0.14  0.13
   10 H    1     1.13   0.78  0.33 -0.00  0.03 -0.00
   11 C    6     5.61   2.01  0.67  0.20  0.18  2.04  0.46 -0.00  0.07 -0.01
   12 H    1     1.02   0.77  0.29 -0.00  0.03 -0.07
   13 H    1     0.88   0.77  0.15  0.00  0.03 -0.08
   14 H    1     0.90   0.77  0.13  0.03  0.03 -0.07
   15 C    6     4.65   2.01  0.68 -0.02  0.00  1.89  0.10  0.08  0.23 -0.32
   16 O    8     8.86   2.01  0.82  1.03  0.19  2.79  1.87  0.15  0.01 -0.00
   17 N    7     7.56   2.01  0.72  0.87 -0.10  2.45  1.46  0.06  0.05  0.04
   18 H    1     0.93   0.75  0.20 -0.04  0.05 -0.04
   19 C    6     6.04   2.01  0.66  0.13 -0.02  2.00  1.25 -0.09  0.14 -0.03
   20 H    1     1.19   0.78  0.36  0.01  0.03  0.01
   21 C    6     5.80   2.01  0.67  0.43 -0.01  2.03  0.47  0.03  0.09  0.09
   22 H    1     1.00   0.79  0.26 -0.00  0.03 -0.08
   23 H    1     0.96   0.78  0.27 -0.04  0.03 -0.08
   24 C    6     6.68   2.01  0.65 -0.03  0.16  2.02  1.53 -0.18  0.12  0.41
   25 H    1     1.13   0.80  0.33  0.02  0.03 -0.04
   26 C    6     5.55   2.01  0.66  0.20  0.14  2.04  0.57 -0.08  0.07 -0.07
   27 H    1     0.99   0.78  0.26  0.00  0.03 -0.08
   28 H    1     1.03   0.78  0.30  0.01  0.03 -0.09
   29 H    1     0.93   0.78  0.19  0.02  0.03 -0.08
   30 C    6     6.05   2.01  0.67  0.62  0.22  2.05  0.45 -0.05  0.07  0.03
   31 H    1     0.92   0.78  0.21  0.01  0.03 -0.11
   32 H    1     0.76   0.78  0.08 -0.02  0.03 -0.11
   33 H    1     0.92   0.78  0.17  0.04  0.03 -0.10
   34 C    6     4.54   2.01  0.68  0.00  0.11  1.89 -0.20 -0.03  0.23 -0.16
   35 O    8     8.83   2.01  0.82  1.03  0.16  2.79  1.86  0.14  0.01  0.00
   36 N    7     7.26   2.01  0.72  0.83 -0.15  2.47  1.28  0.08  0.04 -0.01
   37 H    1     0.97   0.76  0.21 -0.01  0.05 -0.04
   38 H    1     0.96   0.75  0.19 -0.01  0.05 -0.02

       Multipole analysis of the density wrt the origin
       ------------------------------------------------

     L   x y z        total         open         nuclear
     -   - - -        -----         ----         -------
     0   0 0 0      0.000000      0.000000    132.000000

     1   1 0 0      0.303368      0.000000     -0.000000
     1   0 1 0      1.733798      0.000000     -0.000000
     1   0 0 1     -1.487789      0.000000      0.000000

     2   2 0 0    -76.564339      0.000000   1014.295071
     2   1 1 0      1.191926      0.000000    -55.833647
     2   1 0 1     -1.413759      0.000000      1.578855
     2   0 2 0    -68.983833      0.000000   4164.549749
     2   0 1 1      1.990963      0.000000      8.494146
     2   0 0 2    -86.305723      0.000000    432.354287


 Task  times  cpu:     4628.5s     wall:     4927.0s


                                NWChem Input Module
                                -------------------


 Summary of allocated global arrays
-----------------------------------
  No active global arrays


MA_summarize_allocated_blocks: starting scan ...
MA_summarize_allocated_blocks: scan completed: 0 heap blocks, 0 stack blocks
MA usage statistics:

	allocation statistics:
					      heap	     stack
					      ----	     -----
	current number of blocks	         0	         0
	maximum number of blocks	        16	        14
	current total bytes		         0	         0
	maximum total bytes		    131256	  28332184
	maximum total K-bytes		       132	     28333
	maximum total M-bytes		         1	        29


                                     CITATION
                                     --------
                Please cite the following reference when publishing
                           results obtained with NWChem:

          E. Apra, E. J. Bylaska, W. A. de Jong, N. Govind, K. Kowalski,
       T. P. Straatsma, M. Valiev, H. J. J. van Dam, Y. Alexeev, J. Anchell,
       V. Anisimov, F. W. Aquino, R. Atta-Fynn, J. Autschbach, N. P. Bauman,
     J. C. Becca, D. E. Bernholdt, K. Bhaskaran-Nair, S. Bogatko, P. Borowski,
         J. Boschen, J. Brabec, A. Bruner, E. Cauet, Y. Chen, G. N. Chuev,
      C. J. Cramer, J. Daily, M. J. O. Deegan, T. H. Dunning Jr., M. Dupuis,
   K. G. Dyall, G. I. Fann, S. A. Fischer, A. Fonari, H. Fruchtl, L. Gagliardi,
      J. Garza, N. Gawande, S. Ghosh, K. Glaesemann, A. W. Gotz, J. Hammond,
       V. Helms, E. D. Hermes, K. Hirao, S. Hirata, M. Jacquelin, L. Jensen,
   B. G. Johnson, H. Jonsson, R. A. Kendall, M. Klemm, R. Kobayashi, V. Konkov,
      S. Krishnamoorthy, M. Krishnan, Z. Lin, R. D. Lins, R. J. Littlefield,
      A. J. Logsdail, K. Lopata, W. Ma, A. V. Marenich, J. Martin del Campo,
   D. Mejia-Rodriguez, J. E. Moore, J. M. Mullin, T. Nakajima, D. R. Nascimento,
    J. A. Nichols, P. J. Nichols, J. Nieplocha, A. Otero-de-la-Roza, B. Palmer,
    A. Panyala, T. Pirojsirikul, B. Peng, R. Peverati, J. Pittner, L. Pollack,
   R. M. Richard, P. Sadayappan, G. C. Schatz, W. A. Shelton, D. W. Silverstein,
   D. M. A. Smith, T. A. Soares, D. Song, M. Swart, H. L. Taylor, G. S. Thomas,
            V. Tipparaju, D. G. Truhlar, K. Tsemekhman, T. Van Voorhis,
      A. Vazquez-Mayagoitia, P. Verma, O. Villa, A. Vishnu, K. D. Vogiatzis,
        D. Wang, J. H. Weare, M. J. Williamson, T. L. Windus, K. Wolinski,
        A. T. Wong, Q. Wu, C. Yang, Q. Yu, M. Zacharias, Z. Zhang, Y. Zhao,
                                and R. J. Harrison
                        "NWChem: Past, present, and future
                         J. Chem. Phys. 152, 184102 (2020)
                               doi:10.1063/5.0004997

                                      AUTHORS
                                      -------
  E. Apra, E. J. Bylaska, N. Govind, K. Kowalski, M. Valiev, D. Mejia-Rodriguez,
       A. Kunitsa, N. P. Bauman, A. Panyala, W. A. de Jong, T. P. Straatsma,
   H. J. J. van Dam, D. Wang, T. L. Windus, J. Hammond, J. Autschbach, A. Woods,
    K. Bhaskaran-Nair, J. Brabec, K. Lopata, S. A. Fischer, S. Krishnamoorthy,
     M. Jacquelin, W. Ma, M. Klemm, O. Villa, Y. Chen, V. Anisimov, F. Aquino,
     S. Hirata, M. T. Hackler, E. Hermes, L. Jensen, J. E. Moore, J. C. Becca,
      V. Konjkov, T. Risthaus, M. Malagoli, A. Marenich, A. Otero-de-la-Roza,
        J. Mullin, P. Nichols, R. Peverati, J. Pittner, Y. Zhao, P.-D. Fan,
        A. Fonari, M. J. Williamson, R. J. Harrison, J. R. Rehr, M. Dupuis,
     D. Silverstein, D. M. A. Smith, J. Nieplocha, V. Tipparaju, M. Krishnan,
     B. E. Van Kuiken, A. Vazquez-Mayagoitia, M. Swart, Q. Wu, T. Van Voorhis,
     A. A. Auer, M. Nooijen, L. D. Crosby, E. Brown, G. Cisneros, G. I. Fann,
   H. Fruchtl, J. Garza, K. Hirao, R. A. Kendall, J. A. Nichols, K. Tsemekhman,
    K. Wolinski, J. Anchell, D. E. Bernholdt, P. Borowski, T. Clark, D. Clerc,
   H. Dachsel, M. J. O. Deegan, K. Dyall, D. Elwood, E. Glendening, M. Gutowski,
   A. C. Hess, J. Jaffe, B. G. Johnson, J. Ju, R. Kobayashi, R. Kutteh, Z. Lin,
   R. Littlefield, X. Long, B. Meng, T. Nakajima, S. Niu, L. Pollack, M. Rosing,
   K. Glaesemann, G. Sandrone, M. Stave, H. Taylor, G. Thomas, J. H. van Lenthe,
                               A. T. Wong, Z. Zhang.

 Total times  cpu:     4628.5s     wall:     4927.5s
