export TMOUT=5400
export TMPDIR=/tmp
export PTMPDIR=/tmp/ptmp
 argument  1 = ALA_VAL_0.nw
                                         
                                         


             Northwest Computational Chemistry Package (NWChem) 7.2.0
             --------------------------------------------------------


                    Environmental Molecular Sciences Laboratory
                       Pacific Northwest National Laboratory
                                Richland, WA 99352

                              Copyright (c) 1994-2022
                       Pacific Northwest National Laboratory
                            Battelle Memorial Institute

             NWChem is an open-source computational chemistry package
                        distributed under the terms of the
                      Educational Community License (ECL) 2.0
             A copy of the license is included with this distribution
                              in the LICENSE.TXT file

                                  ACKNOWLEDGMENT
                                  --------------

            This software and its documentation were developed at the
            EMSL at Pacific Northwest National Laboratory, a multiprogram
            national laboratory, operated for the U.S. Department of Energy
            by Battelle under Contract Number DE-AC05-76RL01830. Support
            for this work was provided by the Department of Energy Office
            of Biological and Environmental Research, Office of Basic
            Energy Sciences, and the Office of Advanced Scientific Computing.


           Job information
           ---------------

    hostname        = nova18-wide-41
    program         = /opt/rit/el9/20230413/app/linux-rhel9-x86_64_v3/gcc-11.2.1/nwchem-7.2.0-oxtctbuhfuzyfaoziquq6bki22grib3g/bin/nwchem
    date            = Tue Jul  1 09:11:43 2025

    compiled        = Wed_May_17_23:46:39_2023
    source          = /tmp/root/spack-stage/spack-stage-nwchem-7.2.0-oxtctbuhfuzyfaoziquq6bki22grib3g/spack-src
    nwchem branch   = 7.2.0
    nwchem revision = d0d141fd
    ga revision     = 5.8.0
    use scalapack   = T
    input           = ALA_VAL_0.nw
    prefix          = ALA_VAL_0.
    data base       = ./ALA_VAL_0.db
    status          = startup
    nproc           =        1
    time left       =     -1s



           Memory information
           ------------------

    heap     =   26214400 doubles =    200.0 Mbytes
    stack    =   26214397 doubles =    200.0 Mbytes
    global   =   52428800 doubles =    400.0 Mbytes (distinct from heap & stack)
    total    =  104857597 doubles =    800.0 Mbytes
    verify   = yes
    hardfail = no 


           Directory information
           ---------------------

  0 permanent = .
  0 scratch   = .




                                NWChem Input Module
                                -------------------



 Scaling coordinates for geometry "geometry" by  1.889725989
 (inverse scale =  0.529177249)

 C1  symmetry detected

          ------
          auto-z
          ------
  no constraints, skipping    0.0000000000000000     
  no constraints, skipping    0.0000000000000000     


                             Geometry "geometry" -> ""
                             -------------------------

 Output coordinates in angstroms (scale by  1.889725989 to convert to a.u.)

  No.       Tag          Charge          X              Y              Z
 ---- ---------------- ---------- -------------- -------------- --------------
    1 H                    1.0000    -2.95697175     3.33981023    -0.29550540
    2 C                    6.0000    -2.00155181     3.52507158     0.19507890
    3 H                    1.0000    -2.10269312     3.34962020     1.26378571
    4 H                    1.0000    -1.69410765     4.55385232     0.01344938
    5 C                    6.0000    -0.96750865     2.58398538    -0.37446963
    6 O                    8.0000    -1.27939271     1.77588085    -1.24006850
    7 N                    7.0000     0.26370212     2.67229472     0.12337624
    8 H                    1.0000     0.43146291     3.35638701     0.84267593
    9 C                    6.0000     1.40656099     1.85658848    -0.30646901
   10 H                    1.0000     1.38245205     1.79627162    -1.39642939
   11 C                    6.0000     2.69275954     2.59744143     0.08813358
   12 H                    1.0000     2.69637920     3.59875261    -0.34429884
   13 H                    1.0000     2.76636076     2.66926090     1.17419473
   14 H                    1.0000     3.56019608     2.05130869    -0.28695158
   15 C                    6.0000     1.35263099     0.39680932     0.21378705
   16 O                    8.0000     2.29873835    -0.09348706     0.82578405
   17 N                    7.0000     0.23463083    -0.30029118    -0.01083606
   18 H                    1.0000    -0.49008432     0.16804658    -0.54624776
   19 C                    6.0000    -0.08107940    -1.65144619     0.50720467
   20 H                    1.0000     0.24515857    -1.67865886     1.54695909
   21 C                    6.0000    -1.60883640    -1.89336573     0.51364567
   22 H                    1.0000    -1.80272142    -2.87589863     0.94539408
   23 C                    6.0000    -2.32681395    -0.86943099     1.40397083
   24 H                    1.0000    -2.24890594     0.13156031     0.98103259
   25 H                    1.0000    -3.38146042    -1.13419684     1.48415105
   26 H                    1.0000    -1.88959812    -0.87785815     2.40208370
   27 C                    6.0000    -2.23906855    -1.84973956    -0.88606866
   28 H                    1.0000    -1.77180161    -2.59642665    -1.52818236
   29 H                    1.0000    -3.30253314    -2.07813698    -0.81360710
   30 H                    1.0000    -2.11896980    -0.86429138    -1.33431210
   31 C                    6.0000     0.68591352    -2.80277078    -0.17857632
   32 O                    8.0000     0.20818454    -3.92624929    -0.26880966
   33 N                    7.0000     1.88531244    -2.56246820    -0.68967796
   34 H                    1.0000     2.37817362    -3.31984977    -1.13080270
   35 H                    1.0000     2.31586708    -1.66431413    -0.53009422

      Atomic Mass 
      ----------- 

      H                  1.007825
      C                 12.000000
      O                 15.994910
      N                 14.003070


 Effective nuclear repulsion energy (a.u.)    1216.7680261767

            Nuclear Dipole moment (a.u.) 
            ----------------------------
        X                 Y               Z
 ---------------- ---------------- ----------------
    -0.0000000000     0.0000000000    -0.0000000000



                                Z-matrix (autoz)
                                -------- 

 Units are Angstrom for bonds and degrees for angles

      Type          Name      I     J     K     L     M      Value
      ----------- --------  ----- ----- ----- ----- ----- ----------
    1 Stretch                  1     2                       1.08987
    2 Stretch                  2     3                       1.08773
    3 Stretch                  2     4                       1.08899
    4 Stretch                  2     5                       1.50973
    5 Stretch                  5     6                       1.22457
    6 Stretch                  5     7                       1.33099
    7 Stretch                  7     8                       1.00674
    8 Stretch                  7     9                       1.46842
    9 Stretch                  9    10                       1.09189
   10 Stretch                  9    11                       1.53586
   11 Stretch                  9    15                       1.55065
   12 Stretch                 11    12                       1.09070
   13 Stretch                 11    13                       1.09092
   14 Stretch                 11    14                       1.09151
   15 Stretch                 15    16                       1.22884
   16 Stretch                 15    17                       1.33654
   17 Stretch                 17    18                       1.01549
   18 Stretch                 17    19                       1.48110
   19 Stretch                 19    20                       1.09007
   20 Stretch                 19    21                       1.54681
   21 Stretch                 19    31                       1.54406
   22 Stretch                 21    22                       1.09058
   23 Stretch                 21    23                       1.53513
   24 Stretch                 21    27                       1.53567
   25 Stretch                 23    24                       1.08946
   26 Stretch                 23    25                       1.09033
   27 Stretch                 23    26                       1.08971
   28 Stretch                 27    28                       1.09004
   29 Stretch                 27    29                       1.09013
   30 Stretch                 27    30                       1.08924
   31 Stretch                 31    32                       1.22416
   32 Stretch                 31    33                       1.32572
   33 Stretch                 33    34                       1.00555
   34 Stretch                 33    35                       1.00872
   35 Bend                     1     2     3               109.47088
   36 Bend                     1     2     4               109.45108
   37 Bend                     1     2     5               108.94455
   38 Bend                     2     5     6               120.23697
   39 Bend                     2     5     7               116.81486
   40 Bend                     3     2     4               110.02956
   41 Bend                     3     2     5               109.49937
   42 Bend                     4     2     5               109.42642
   43 Bend                     5     7     8               117.80601
   44 Bend                     5     7     9               125.00142
   45 Bend                     6     5     7               122.94109
   46 Bend                     7     9    10               107.80079
   47 Bend                     7     9    11               107.97544
   48 Bend                     7     9    15               113.43218
   49 Bend                     8     7     9               117.18884
   50 Bend                     9    11    12               110.10551
   51 Bend                     9    11    13               110.12304
   52 Bend                     9    11    14               109.62636
   53 Bend                     9    15    16               121.05919
   54 Bend                     9    15    17               117.62687
   55 Bend                    10     9    11               107.55417
   56 Bend                    10     9    15               106.38809
   57 Bend                    11     9    15               113.39230
   58 Bend                    12    11    13               109.51438
   59 Bend                    12    11    14               108.69062
   60 Bend                    13    11    14               108.74949
   61 Bend                    15    17    18               116.42561
   62 Bend                    15    17    19               126.53648
   63 Bend                    16    15    17               121.30726
   64 Bend                    17    19    20               107.01374
   65 Bend                    17    19    21               110.77311
   66 Bend                    17    19    31               114.77129
   67 Bend                    18    17    19               116.93766
   68 Bend                    19    21    22               108.55076
   69 Bend                    19    21    23               111.10239
   70 Bend                    19    21    27               113.39713
   71 Bend                    19    31    32               121.54759
   72 Bend                    19    31    33               119.04380
   73 Bend                    20    19    21               106.72143
   74 Bend                    20    19    31               104.85423
   75 Bend                    21    19    31               112.07692
   76 Bend                    21    23    24               110.74715
   77 Bend                    21    23    25               109.45550
   78 Bend                    21    23    26               109.78006
   79 Bend                    21    27    28               109.97049
   80 Bend                    21    27    29               109.50078
   81 Bend                    21    27    30               110.82630
   82 Bend                    22    21    23               106.74840
   83 Bend                    22    21    27               108.26858
   84 Bend                    23    21    27               108.52580
   85 Bend                    24    23    25               108.71318
   86 Bend                    24    23    26               109.51124
   87 Bend                    25    23    26               108.59399
   88 Bend                    28    27    29               108.28972
   89 Bend                    28    27    30               109.27204
   90 Bend                    29    27    30               108.93322
   91 Bend                    31    33    34               118.42703
   92 Bend                    31    33    35               119.11488
   93 Bend                    32    31    33               119.40648
   94 Bend                    34    33    35               122.06190
   95 Torsion                  1     2     5     6          -0.57939
   96 Torsion                  1     2     5     7        -179.63948
   97 Torsion                  2     5     7     8          -0.10470
   98 Torsion                  2     5     7     9        -179.37987
   99 Torsion                  3     2     5     6         119.11707
  100 Torsion                  3     2     5     7         -59.94302
  101 Torsion                  4     2     5     6        -120.20827
  102 Torsion                  4     2     5     7          60.73165
  103 Torsion                  5     7     9    10          42.73820
  104 Torsion                  5     7     9    11         158.66365
  105 Torsion                  5     7     9    15         -74.78585
  106 Torsion                  6     5     7     8        -179.13710
  107 Torsion                  6     5     7     9           1.58773
  108 Torsion                  7     9    11    12         -56.16006
  109 Torsion                  7     9    11    13          64.70192
  110 Torsion                  7     9    11    14        -175.68742
  111 Torsion                  7     9    15    16        -126.71651
  112 Torsion                  7     9    15    17          52.35509
  113 Torsion                  8     7     9    10        -136.54102
  114 Torsion                  8     7     9    11         -20.61557
  115 Torsion                  8     7     9    15         105.93492
  116 Torsion                  9    15    17    18           2.57889
  117 Torsion                  9    15    17    19        -173.64839
  118 Torsion                 10     9    11    12          59.92650
  119 Torsion                 10     9    11    13        -179.21152
  120 Torsion                 10     9    11    14         -59.60085
  121 Torsion                 10     9    15    16         114.94003
  122 Torsion                 10     9    15    17         -65.98837
  123 Torsion                 11     9    15    16          -3.07806
  124 Torsion                 11     9    15    17         175.99354
  125 Torsion                 12    11     9    15         177.26615
  126 Torsion                 13    11     9    15         -61.87187
  127 Torsion                 14    11     9    15          57.73880
  128 Torsion                 15    17    19    20          41.90432
  129 Torsion                 15    17    19    21         157.87294
  130 Torsion                 15    17    19    31         -73.97418
  131 Torsion                 16    15    17    18        -178.35194
  132 Torsion                 16    15    17    19           5.42077
  133 Torsion                 17    19    21    22        -177.27612
  134 Torsion                 17    19    21    23         -60.19072
  135 Torsion                 17    19    21    27          62.36103
  136 Torsion                 17    19    31    32        -150.79320
  137 Torsion                 17    19    31    33          28.67264
  138 Torsion                 18    17    19    20        -134.30596
  139 Torsion                 18    17    19    21         -18.33734
  140 Torsion                 18    17    19    31         109.81554
  141 Torsion                 19    21    23    24          66.81465
  142 Torsion                 19    21    23    25        -173.33960
  143 Torsion                 19    21    23    26         -54.23473
  144 Torsion                 19    21    27    28          58.21662
  145 Torsion                 19    21    27    29         177.09204
  146 Torsion                 19    21    27    30         -62.71050
  147 Torsion                 19    31    33    34         179.75187
  148 Torsion                 19    31    33    35           6.82525
  149 Torsion                 20    19    21    22         -61.12627
  150 Torsion                 20    19    21    23          55.95913
  151 Torsion                 20    19    21    27         178.51088
  152 Torsion                 20    19    31    32          92.09145
  153 Torsion                 20    19    31    33         -88.44271
  154 Torsion                 21    19    31    32         -23.29935
  155 Torsion                 21    19    31    33         156.16649
  156 Torsion                 22    21    19    31          53.12296
  157 Torsion                 22    21    23    24        -175.00451
  158 Torsion                 22    21    23    25         -55.15876
  159 Torsion                 22    21    23    26          63.94611
  160 Torsion                 22    21    27    28         -62.30603
  161 Torsion                 22    21    27    29          56.56939
  162 Torsion                 22    21    27    30         176.76685
  163 Torsion                 23    21    19    31         170.20836
  164 Torsion                 23    21    27    28        -177.81602
  165 Torsion                 23    21    27    29         -58.94060
  166 Torsion                 23    21    27    30          61.25687
  167 Torsion                 24    23    21    27         -58.51132
  168 Torsion                 25    23    21    27          61.33443
  169 Torsion                 26    23    21    27        -179.56070
  170 Torsion                 27    21    19    31         -67.23989
  171 Torsion                 32    31    33    34          -0.77067
  172 Torsion                 32    31    33    35        -173.69729


            XYZ format geometry
            -------------------
    35
 geometry
 H                    -2.95697175     3.33981023    -0.29550540
 C                    -2.00155181     3.52507158     0.19507890
 H                    -2.10269312     3.34962020     1.26378571
 H                    -1.69410765     4.55385232     0.01344938
 C                    -0.96750865     2.58398538    -0.37446963
 O                    -1.27939271     1.77588085    -1.24006850
 N                     0.26370212     2.67229472     0.12337624
 H                     0.43146291     3.35638701     0.84267593
 C                     1.40656099     1.85658848    -0.30646901
 H                     1.38245205     1.79627162    -1.39642939
 C                     2.69275954     2.59744143     0.08813358
 H                     2.69637920     3.59875261    -0.34429884
 H                     2.76636076     2.66926090     1.17419473
 H                     3.56019608     2.05130869    -0.28695158
 C                     1.35263099     0.39680932     0.21378705
 O                     2.29873835    -0.09348706     0.82578405
 N                     0.23463083    -0.30029118    -0.01083606
 H                    -0.49008432     0.16804658    -0.54624776
 C                    -0.08107940    -1.65144619     0.50720467
 H                     0.24515857    -1.67865886     1.54695909
 C                    -1.60883640    -1.89336573     0.51364567
 H                    -1.80272142    -2.87589863     0.94539408
 C                    -2.32681395    -0.86943099     1.40397083
 H                    -2.24890594     0.13156031     0.98103259
 H                    -3.38146042    -1.13419684     1.48415105
 H                    -1.88959812    -0.87785815     2.40208370
 C                    -2.23906855    -1.84973956    -0.88606866
 H                    -1.77180161    -2.59642665    -1.52818236
 H                    -3.30253314    -2.07813698    -0.81360710
 H                    -2.11896980    -0.86429138    -1.33431210
 C                     0.68591352    -2.80277078    -0.17857632
 O                     0.20818454    -3.92624929    -0.26880966
 N                     1.88531244    -2.56246820    -0.68967796
 H                     2.37817362    -3.31984977    -1.13080270
 H                     2.31586708    -1.66431413    -0.53009422

 ==============================================================================
                                internuclear distances
 ------------------------------------------------------------------------------
       center one      |      center two      | atomic units |  angstroms
 ------------------------------------------------------------------------------
    2 C                |   1 H                |     2.05956  |     1.08987
    3 H                |   2 C                |     2.05550  |     1.08773
    4 H                |   2 C                |     2.05789  |     1.08899
    5 C                |   2 C                |     2.85297  |     1.50973
    6 O                |   5 C                |     2.31410  |     1.22457
    7 N                |   5 C                |     2.51520  |     1.33099
    8 H                |   7 N                |     1.90246  |     1.00674
    9 C                |   7 N                |     2.77492  |     1.46842
   10 H                |   9 C                |     2.06338  |     1.09189
   11 C                |   9 C                |     2.90236  |     1.53586
   12 H                |  11 C                |     2.06113  |     1.09070
   13 H                |  11 C                |     2.06154  |     1.09092
   14 H                |  11 C                |     2.06266  |     1.09151
   15 C                |   9 C                |     2.93031  |     1.55065
   16 O                |  15 C                |     2.32217  |     1.22884
   17 N                |  15 C                |     2.52569  |     1.33654
   18 H                |  17 N                |     1.91900  |     1.01549
   19 C                |  17 N                |     2.79887  |     1.48110
   20 H                |  19 C                |     2.05994  |     1.09007
   21 C                |  19 C                |     2.92304  |     1.54681
   22 H                |  21 C                |     2.06090  |     1.09058
   23 C                |  21 C                |     2.90097  |     1.53513
   24 H                |  23 C                |     2.05879  |     1.08946
   25 H                |  23 C                |     2.06042  |     1.09033
   26 H                |  23 C                |     2.05924  |     1.08971
   27 C                |  21 C                |     2.90200  |     1.53567
   28 H                |  27 C                |     2.05988  |     1.09004
   29 H                |  27 C                |     2.06004  |     1.09013
   30 H                |  27 C                |     2.05837  |     1.08924
   31 C                |  19 C                |     2.91785  |     1.54406
   32 O                |  31 C                |     2.31333  |     1.22416
   33 N                |  31 C                |     2.50524  |     1.32572
   34 H                |  33 N                |     1.90021  |     1.00555
   35 H                |  33 N                |     1.90621  |     1.00872
 ------------------------------------------------------------------------------
                         number of included internuclear distances:         34
 ==============================================================================



 ==============================================================================
                                 internuclear angles
 ------------------------------------------------------------------------------
        center 1       |       center 2       |       center 3       |  degrees
 ------------------------------------------------------------------------------
    1 H                |   2 C                |   3 H                |   109.47
    1 H                |   2 C                |   4 H                |   109.45
    1 H                |   2 C                |   5 C                |   108.94
    3 H                |   2 C                |   4 H                |   110.03
    3 H                |   2 C                |   5 C                |   109.50
    4 H                |   2 C                |   5 C                |   109.43
    2 C                |   5 C                |   6 O                |   120.24
    2 C                |   5 C                |   7 N                |   116.81
    6 O                |   5 C                |   7 N                |   122.94
    5 C                |   7 N                |   8 H                |   117.81
    5 C                |   7 N                |   9 C                |   125.00
    8 H                |   7 N                |   9 C                |   117.19
    7 N                |   9 C                |  10 H                |   107.80
    7 N                |   9 C                |  11 C                |   107.98
    7 N                |   9 C                |  15 C                |   113.43
   10 H                |   9 C                |  11 C                |   107.55
   10 H                |   9 C                |  15 C                |   106.39
   11 C                |   9 C                |  15 C                |   113.39
    9 C                |  11 C                |  12 H                |   110.11
    9 C                |  11 C                |  13 H                |   110.12
    9 C                |  11 C                |  14 H                |   109.63
   12 H                |  11 C                |  13 H                |   109.51
   12 H                |  11 C                |  14 H                |   108.69
   13 H                |  11 C                |  14 H                |   108.75
    9 C                |  15 C                |  16 O                |   121.06
    9 C                |  15 C                |  17 N                |   117.63
   16 O                |  15 C                |  17 N                |   121.31
   15 C                |  17 N                |  18 H                |   116.43
   15 C                |  17 N                |  19 C                |   126.54
   18 H                |  17 N                |  19 C                |   116.94
   17 N                |  19 C                |  20 H                |   107.01
   17 N                |  19 C                |  21 C                |   110.77
   17 N                |  19 C                |  31 C                |   114.77
   20 H                |  19 C                |  21 C                |   106.72
   20 H                |  19 C                |  31 C                |   104.85
   21 C                |  19 C                |  31 C                |   112.08
   19 C                |  21 C                |  22 H                |   108.55
   19 C                |  21 C                |  23 C                |   111.10
   19 C                |  21 C                |  27 C                |   113.40
   22 H                |  21 C                |  23 C                |   106.75
   22 H                |  21 C                |  27 C                |   108.27
   23 C                |  21 C                |  27 C                |   108.53
   21 C                |  23 C                |  24 H                |   110.75
   21 C                |  23 C                |  25 H                |   109.46
   21 C                |  23 C                |  26 H                |   109.78
   24 H                |  23 C                |  25 H                |   108.71
   24 H                |  23 C                |  26 H                |   109.51
   25 H                |  23 C                |  26 H                |   108.59
   21 C                |  27 C                |  28 H                |   109.97
   21 C                |  27 C                |  29 H                |   109.50
   21 C                |  27 C                |  30 H                |   110.83
   28 H                |  27 C                |  29 H                |   108.29
   28 H                |  27 C                |  30 H                |   109.27
   29 H                |  27 C                |  30 H                |   108.93
   19 C                |  31 C                |  32 O                |   121.55
   19 C                |  31 C                |  33 N                |   119.04
   32 O                |  31 C                |  33 N                |   119.41
   31 C                |  33 N                |  34 H                |   118.43
   31 C                |  33 N                |  35 H                |   119.11
   34 H                |  33 N                |  35 H                |   122.06
 ------------------------------------------------------------------------------
                            number of included internuclear angles:         60
 ==============================================================================



  library name resolved from: environment
  library file name is: </opt/rit/el9/20230413/app/linux-rhel9-x86_64_v3/gcc-11.2.1/nwchem-7.2.0-oxtctbuhfuzyfaoziquq6bki22grib3g/share/nwchem/libraries/>
  


 Summary of "ao basis" -> "" (cartesian)
 ------------------------------------------------------------------------------
       Tag                 Description            Shells   Functions and Types
 ---------------- ------------------------------  ------  ---------------------
 *                        aug-cc-pvdz                 on all atoms 


                      Basis "ao basis" -> "ao basis" (cartesian)
                      -----
  H (Hydrogen)
  ------------
            Exponent  Coefficients 
       -------------- ---------------------------------------------------------
  1 S  1.30100000E+01  0.019685
  1 S  1.96200000E+00  0.137977
  1 S  4.44600000E-01  0.478148

  2 S  1.22000000E-01  1.000000

  3 S  2.97400000E-02  1.000000

  4 P  7.27000000E-01  1.000000

  5 P  1.41000000E-01  1.000000

  C (Carbon)
  ----------
            Exponent  Coefficients 
       -------------- ---------------------------------------------------------
  1 S  6.66500000E+03  0.000692
  1 S  1.00000000E+03  0.005329
  1 S  2.28000000E+02  0.027077
  1 S  6.47100000E+01  0.101718
  1 S  2.10600000E+01  0.274740
  1 S  7.49500000E+00  0.448564
  1 S  2.79700000E+00  0.285074
  1 S  5.21500000E-01  0.015204

  2 S  6.66500000E+03 -0.000146
  2 S  1.00000000E+03 -0.001154
  2 S  2.28000000E+02 -0.005725
  2 S  6.47100000E+01 -0.023312
  2 S  2.10600000E+01 -0.063955
  2 S  7.49500000E+00 -0.149981
  2 S  2.79700000E+00 -0.127262
  2 S  5.21500000E-01  0.544529

  3 S  1.59600000E-01  1.000000

  4 S  4.69000000E-02  1.000000

  5 P  9.43900000E+00  0.038109
  5 P  2.00200000E+00  0.209480
  5 P  5.45600000E-01  0.508557

  6 P  1.51700000E-01  1.000000

  7 P  4.04100000E-02  1.000000

  8 D  5.50000000E-01  1.000000

  9 D  1.51000000E-01  1.000000

  O (Oxygen)
  ----------
            Exponent  Coefficients 
       -------------- ---------------------------------------------------------
  1 S  1.17200000E+04  0.000710
  1 S  1.75900000E+03  0.005470
  1 S  4.00800000E+02  0.027837
  1 S  1.13700000E+02  0.104800
  1 S  3.70300000E+01  0.283062
  1 S  1.32700000E+01  0.448719
  1 S  5.02500000E+00  0.270952
  1 S  1.01300000E+00  0.015458

  2 S  1.17200000E+04 -0.000160
  2 S  1.75900000E+03 -0.001263
  2 S  4.00800000E+02 -0.006267
  2 S  1.13700000E+02 -0.025716
  2 S  3.70300000E+01 -0.070924
  2 S  1.32700000E+01 -0.165411
  2 S  5.02500000E+00 -0.116955
  2 S  1.01300000E+00  0.557368

  3 S  3.02300000E-01  1.000000

  4 S  7.89600000E-02  1.000000

  5 P  1.77000000E+01  0.043018
  5 P  3.85400000E+00  0.228913
  5 P  1.04600000E+00  0.508728

  6 P  2.75300000E-01  1.000000

  7 P  6.85600000E-02  1.000000

  8 D  1.18500000E+00  1.000000

  9 D  3.32000000E-01  1.000000

  N (Nitrogen)
  ------------
            Exponent  Coefficients 
       -------------- ---------------------------------------------------------
  1 S  9.04600000E+03  0.000700
  1 S  1.35700000E+03  0.005389
  1 S  3.09300000E+02  0.027406
  1 S  8.77300000E+01  0.103207
  1 S  2.85600000E+01  0.278723
  1 S  1.02100000E+01  0.448540
  1 S  3.83800000E+00  0.278238
  1 S  7.46600000E-01  0.015440

  2 S  9.04600000E+03 -0.000153
  2 S  1.35700000E+03 -0.001208
  2 S  3.09300000E+02 -0.005992
  2 S  8.77300000E+01 -0.024544
  2 S  2.85600000E+01 -0.067459
  2 S  1.02100000E+01 -0.158078
  2 S  3.83800000E+00 -0.121831
  2 S  7.46600000E-01  0.549003

  3 S  2.24800000E-01  1.000000

  4 S  6.12400000E-02  1.000000

  5 P  1.35500000E+01  0.039919
  5 P  2.91700000E+00  0.217169
  5 P  7.97300000E-01  0.510319

  6 P  2.18500000E-01  1.000000

  7 P  5.61100000E-02  1.000000

  8 D  8.17000000E-01  1.000000

  9 D  2.30000000E-01  1.000000



 Summary of "ao basis" -> "ao basis" (cartesian)
 ------------------------------------------------------------------------------
       Tag                 Description            Shells   Functions and Types
 ---------------- ------------------------------  ------  ---------------------
 H                        aug-cc-pvdz                5        9   3s2p
 C                        aug-cc-pvdz                9       25   4s3p2d
 O                        aug-cc-pvdz                9       25   4s3p2d
 N                        aug-cc-pvdz                9       25   4s3p2d


                                 NWChem SCF Module
                                 -----------------



  ao basis        = "ao basis"
  functions       =   571
  atoms           =    35
  closed shells   =    62
  open shells     =     0
  charge          =   0.00
  wavefunction    = RHF 
  input vectors   = atomic
  output vectors  = ./ALA_VAL_0.movecs
  use symmetry    = F
  symmetry adapt  = F


 Summary of "ao basis" -> "ao basis" (cartesian)
 ------------------------------------------------------------------------------
       Tag                 Description            Shells   Functions and Types
 ---------------- ------------------------------  ------  ---------------------
 H                        aug-cc-pvdz                5        9   3s2p
 C                        aug-cc-pvdz                9       25   4s3p2d
 O                        aug-cc-pvdz                9       25   4s3p2d
 N                        aug-cc-pvdz                9       25   4s3p2d



 Forming initial guess at       0.6s


 !! The overlap matrix has   5 vectors deemed linearly dependent with
    eigenvalues:
 2.67D-06 3.26D-06 7.32D-06 8.79D-06 9.41D-06


      Superposition of Atomic Density Guess
      -------------------------------------

 Sum of atomic energies:        -773.36615600

      Non-variational initial energy
      ------------------------------

 Total energy =    -784.028354
 1-e energy   =   -3466.777157
 2-e energy   =    1465.980777
 HOMO         =      -0.308770
 LUMO         =       0.006811


 Starting SCF solution at     633.6s



 ----------------------------------------------
         Quadratically convergent ROHF

 Convergence threshold     :          1.000E-04
 Maximum no. of iterations :           30
 Final Fock-matrix accuracy:          1.000E-10
 ----------------------------------------------


              iter       energy          gnorm     gmax       time
             ----- ------------------- --------- --------- --------
                 1     -777.4882937334  2.39D+00  1.30D-01   1293.3
                 2     -777.7943823796  8.21D-01  3.62D-02   2616.0
                 3     -777.8532627989  6.25D-02  4.76D-03   4544.1
                 4     -777.8538561056  1.88D-03  1.24D-04   7729.7
                 5     -777.8538565552  4.72D-06  3.56D-07  12177.6


       Final RHF  results 
       ------------------ 

         Total SCF energy =   -777.853856555166
      One-electron energy =  -3479.074985436076
      Two-electron energy =   1484.453102704192
 Nuclear repulsion energy =   1216.768026176718

        Time for solution =  11548.6s


             Final eigenvalues
             -----------------

              1      
    1  -20.5509
    2  -20.5400
    3  -20.5087
    4  -15.6251
    5  -15.5959
    6  -15.5734
    7  -11.3806
    8  -11.3693
    9  -11.3434
   10  -11.3152
   11  -11.2902
   12  -11.2621
   13  -11.2521
   14  -11.2380
   15  -11.2211
   16  -11.2096
   17   -1.4171
   18   -1.3996
   19   -1.3722
   20   -1.2726
   21   -1.2428
   22   -1.2009
   23   -1.0899
   24   -1.0709
   25   -1.0116
   26   -0.9746
   27   -0.9279
   28   -0.9012
   29   -0.8337
   30   -0.8141
   31   -0.7994
   32   -0.7657
   33   -0.7331
   34   -0.7280
   35   -0.7043
   36   -0.6915
   37   -0.6695
   38   -0.6533
   39   -0.6353
   40   -0.6208
   41   -0.6088
   42   -0.6050
   43   -0.5989
   44   -0.5913
   45   -0.5832
   46   -0.5697
   47   -0.5580
   48   -0.5533
   49   -0.5462
   50   -0.5396
   51   -0.5349
   52   -0.5282
   53   -0.5213
   54   -0.4802
   55   -0.4724
   56   -0.4615
   57   -0.4593
   58   -0.4459
   59   -0.4316
   60   -0.4120
   61   -0.3950
   62   -0.3825
   63    0.0198
   64    0.0342
   65    0.0394
   66    0.0399
   67    0.0497
   68    0.0550
   69    0.0560
   70    0.0592
   71    0.0629
   72    0.0692

                       ROHF Final Molecular Orbital Analysis
                       -------------------------------------

 Vector   17  Occ=2.000000D+00  E=-1.417077D+00
              MO Center= -8.3D-01,  2.0D+00, -7.5D-01, r^2= 1.7D+00
   Bfn.  Coefficient  Atom+Function         Bfn.  Coefficient  Atom+Function  
  ----- ------------  ---------------      ----- ------------  ---------------
    80      0.342484   6 O  s                79      0.337320   6 O  s         
    54      0.237032   5 C  s                12      0.185036   2 C  s         

 Vector   18  Occ=2.000000D+00  E=-1.399561D+00
              MO Center=  1.6D+00,  9.4D-02,  4.5D-01, r^2= 2.0D+00
   Bfn.  Coefficient  Atom+Function         Bfn.  Coefficient  Atom+Function  
  ----- ------------  ---------------      ----- ------------  ---------------
   250      0.360024  16 O  s               249      0.342074  16 O  s         
   224      0.231593  15 C  s         

 Vector   19  Occ=2.000000D+00  E=-1.372248D+00
              MO Center=  5.4D-01, -3.4D+00, -2.6D-01, r^2= 1.2D+00
   Bfn.  Coefficient  Atom+Function         Bfn.  Coefficient  Atom+Function  
  ----- ------------  ---------------      ----- ------------  ---------------
   506      0.370614  32 O  s               505      0.349443  32 O  s         
   480      0.244468  31 C  s         

 Vector   20  Occ=2.000000D+00  E=-1.272604D+00
              MO Center=  1.1D-01,  2.4D+00, -1.0D-01, r^2= 1.9D+00
   Bfn.  Coefficient  Atom+Function         Bfn.  Coefficient  Atom+Function  
  ----- ------------  ---------------      ----- ------------  ---------------
   105      0.402519   7 N  s               104      0.341243   7 N  s         
    80     -0.219060   6 O  s                79     -0.182603   6 O  s         
   128      0.157175   8 H  s         

 Vector   21  Occ=2.000000D+00  E=-1.242825D+00
              MO Center=  4.8D-01, -4.0D-01,  1.2D-01, r^2= 2.2D+00
   Bfn.  Coefficient  Atom+Function         Bfn.  Coefficient  Atom+Function  
  ----- ------------  ---------------      ----- ------------  ---------------
   275      0.399476  17 N  s               274      0.336365  17 N  s         
   250     -0.205408  16 O  s               227     -0.171923  15 C  px        
   309     -0.164487  19 C  s               249     -0.161954  16 O  s         

 Vector   22  Occ=2.000000D+00  E=-1.200926D+00
              MO Center=  1.5D+00, -2.6D+00, -5.3D-01, r^2= 1.7D+00
   Bfn.  Coefficient  Atom+Function         Bfn.  Coefficient  Atom+Function  
  ----- ------------  ---------------      ----- ------------  ---------------
   531      0.407509  33 N  s               530      0.367205  33 N  s         
   506     -0.205885  32 O  s               309     -0.177181  19 C  s         
   505     -0.173772  32 O  s               483      0.170502  31 C  px        
   563      0.165827  35 H  s               275     -0.158382  17 N  s         
   554      0.157800  34 H  s         

 Vector   23  Occ=2.000000D+00  E=-1.089878D+00
              MO Center= -6.6D-01, -4.5D-01,  2.7D-01, r^2= 6.7D+00
   Bfn.  Coefficient  Atom+Function         Bfn.  Coefficient  Atom+Function  
  ----- ------------  ---------------      ----- ------------  ---------------
   309      0.245814  19 C  s               342      0.221444  21 C  s         
   314     -0.189226  19 C  px              308      0.155359  19 C  s         

 Vector   24  Occ=2.000000D+00  E=-1.070918D+00
              MO Center=  9.5D-02,  1.3D+00,  6.8D-02, r^2= 8.1D+00
   Bfn.  Coefficient  Atom+Function         Bfn.  Coefficient  Atom+Function  
  ----- ------------  ---------------      ----- ------------  ---------------
   138      0.203593   9 C  s               172      0.181119  11 C  s         
   309      0.169883  19 C  s               144      0.164639   9 C  px        
    12     -0.159765   2 C  s               225      0.158878  15 C  s         

 Vector   25  Occ=2.000000D+00  E=-1.011612D+00
              MO Center= -7.7D-01,  3.1D+00,  8.3D-02, r^2= 4.9D+00
   Bfn.  Coefficient  Atom+Function         Bfn.  Coefficient  Atom+Function  
  ----- ------------  ---------------      ----- ------------  ---------------
    11      0.314933   2 C  s               144      0.178107   9 C  px        
    55      0.166089   5 C  s               172      0.165480  11 C  s         

 Vector   26  Occ=2.000000D+00  E=-9.745724D-01
              MO Center= -2.3D-01, -1.1D+00,  3.1D-01, r^2= 5.8D+00
   Bfn.  Coefficient  Atom+Function         Bfn.  Coefficient  Atom+Function  
  ----- ------------  ---------------      ----- ------------  ---------------
   348      0.269865  21 C  px              308      0.257847  19 C  s         
   139     -0.207884   9 C  s               314      0.187772  19 C  px        
   145      0.158694   9 C  py              376     -0.156869  23 C  s         

 Vector   27  Occ=2.000000D+00  E=-9.279496D-01
              MO Center= -2.2D+00, -1.4D+00,  2.0D-01, r^2= 2.9D+00
   Bfn.  Coefficient  Atom+Function         Bfn.  Coefficient  Atom+Function  
  ----- ------------  ---------------      ----- ------------  ---------------
   350      0.358511  21 C  pz              428     -0.284299  27 C  s         
   376      0.264709  23 C  s               377     -0.168970  23 C  s         
   349      0.164968  21 C  py        

 Vector   28  Occ=2.000000D+00  E=-9.011623D-01
              MO Center=  1.4D+00,  1.5D+00,  1.6D-02, r^2= 6.3D+00
   Bfn.  Coefficient  Atom+Function         Bfn.  Coefficient  Atom+Function  
  ----- ------------  ---------------      ----- ------------  ---------------
   139      0.317312   9 C  s               145     -0.243938   9 C  py        
   172     -0.239975  11 C  s               173     -0.199832  11 C  s         
   225     -0.200365  15 C  s               138      0.189504   9 C  s         
   174     -0.187608  11 C  s               309      0.156304  19 C  s         

 Vector   29  Occ=2.000000D+00  E=-8.337060D-01
              MO Center=  6.8D-02,  2.2D+00, -1.5D-02, r^2= 4.3D+00
   Bfn.  Coefficient  Atom+Function         Bfn.  Coefficient  Atom+Function  
  ----- ------------  ---------------      ----- ------------  ---------------
   107      0.286051   7 N  px              139     -0.236906   9 C  s         
   128      0.226120   8 H  s                54     -0.213206   5 C  s         
    80      0.169185   6 O  s               105      0.167652   7 N  s         
   109      0.164564   7 N  pz               60     -0.161389   5 C  px        
    57     -0.152520   5 C  px        

 Vector   30  Occ=2.000000D+00  E=-8.141308D-01
              MO Center=  2.7D-01, -1.4D+00, -8.6D-02, r^2= 6.8D+00
   Bfn.  Coefficient  Atom+Function         Bfn.  Coefficient  Atom+Function  
  ----- ------------  ---------------      ----- ------------  ---------------
   309      0.393492  19 C  s               533     -0.211717  33 N  px        
   480      0.194929  31 C  s               554     -0.176649  34 H  s         
   277      0.162917  17 N  px              486      0.153375  31 C  px        

 Vector   31  Occ=2.000000D+00  E=-7.993735D-01
              MO Center=  7.8D-03, -1.9D-01,  1.4D-01, r^2= 6.3D+00
   Bfn.  Coefficient  Atom+Function         Bfn.  Coefficient  Atom+Function  
  ----- ------------  ---------------      ----- ------------  ---------------
   377     -0.241352  23 C  s               277      0.229424  17 N  px        
   343      0.224067  21 C  s               429     -0.207728  27 C  s         
   298     -0.172720  18 H  s               224      0.167561  15 C  s         
   250     -0.163839  16 O  s               145     -0.154962   9 C  py        
   231     -0.154023  15 C  py        

 Vector   32  Occ=2.000000D+00  E=-7.656870D-01
              MO Center=  2.4D-01, -1.2D+00, -9.3D-02, r^2= 6.3D+00
   Bfn.  Coefficient  Atom+Function         Bfn.  Coefficient  Atom+Function  
  ----- ------------  ---------------      ----- ------------  ---------------
   225      0.265065  15 C  s               343     -0.227164  21 C  s         
   533      0.199543  33 N  px              299     -0.185645  18 H  s         
   298     -0.183135  18 H  s               315      0.173295  19 C  py        
   563      0.169634  35 H  s               145      0.157931   9 C  py        

 Vector   33  Occ=2.000000D+00  E=-7.330507D-01
              MO Center=  4.8D-01,  4.6D-01,  1.1D-01, r^2= 8.0D+00
   Bfn.  Coefficient  Atom+Function         Bfn.  Coefficient  Atom+Function  
  ----- ------------  ---------------      ----- ------------  ---------------
   145      0.324434   9 C  py              343      0.237232  21 C  s         
   139     -0.217924   9 C  s               225      0.214386  15 C  s         
   228     -0.186841  15 C  py              142      0.167919   9 C  py        
   253     -0.162691  16 O  py              109     -0.158763   7 N  pz        
    55      0.150640   5 C  s         

 Vector   34  Occ=2.000000D+00  E=-7.280095D-01
              MO Center=  1.1D+00, -1.5D+00, -3.4D-01, r^2= 5.3D+00
   Bfn.  Coefficient  Atom+Function         Bfn.  Coefficient  Atom+Function  
  ----- ------------  ---------------      ----- ------------  ---------------
   534     -0.311267  33 N  py              225      0.309359  15 C  s         
   563     -0.276388  35 H  s               139     -0.222254   9 C  s         
   145      0.218535   9 C  py              315      0.209118  19 C  py        
   309     -0.197696  19 C  s               564     -0.182709  35 H  s         
   554      0.163064  34 H  s                56      0.150451   5 C  s         

 Vector   35  Occ=2.000000D+00  E=-7.042926D-01
              MO Center= -6.0D-01,  1.8D+00, -2.3D-01, r^2= 7.2D+00
   Bfn.  Coefficient  Atom+Function         Bfn.  Coefficient  Atom+Function  
  ----- ------------  ---------------      ----- ------------  ---------------
    57      0.224104   5 C  px               83     -0.212511   6 O  py        
    80      0.167273   6 O  s         

 Vector   36  Occ=2.000000D+00  E=-6.915157D-01
              MO Center=  3.5D-01,  1.9D+00, -4.5D-01, r^2= 4.6D+00
   Bfn.  Coefficient  Atom+Function         Bfn.  Coefficient  Atom+Function  
  ----- ------------  ---------------      ----- ------------  ---------------
   143      0.223285   9 C  pz               84      0.212248   6 O  pz        
   108     -0.211516   7 N  py              144     -0.207460   9 C  px        
   162     -0.199866  10 H  s                80     -0.189431   6 O  s         
    12      0.166328   2 C  s               173      0.157783  11 C  s         

 Vector   37  Occ=2.000000D+00  E=-6.694982D-01
              MO Center=  7.8D-01, -1.3D+00,  2.4D-02, r^2= 7.1D+00
   Bfn.  Coefficient  Atom+Function         Bfn.  Coefficient  Atom+Function  
  ----- ------------  ---------------      ----- ------------  ---------------
   315      0.222288  19 C  py              554     -0.188886  34 H  s         
   250     -0.186583  16 O  s               278     -0.178704  17 N  py        
   312      0.177403  19 C  py              509     -0.172960  32 O  py        
   483      0.166225  31 C  px              227      0.150697  15 C  px        
   506      0.150112  32 O  s         

 Vector   38  Occ=2.000000D+00  E=-6.533491D-01
              MO Center=  4.8D-01, -1.1D+00,  2.2D-01, r^2= 7.3D+00
   Bfn.  Coefficient  Atom+Function         Bfn.  Coefficient  Atom+Function  
  ----- ------------  ---------------      ----- ------------  ---------------
   139      0.232940   9 C  s               313      0.224156  19 C  pz        
   483      0.201116  31 C  px              225     -0.197143  15 C  s         
   332      0.189063  20 H  s               377     -0.162746  23 C  s         
   509     -0.161669  32 O  py        

 Vector   39  Occ=2.000000D+00  E=-6.353313D-01
              MO Center= -9.7D-01,  2.5D+00,  6.8D-02, r^2= 6.2D+00
   Bfn.  Coefficient  Atom+Function         Bfn.  Coefficient  Atom+Function  
  ----- ------------  ---------------      ----- ------------  ---------------
    44      0.221637   4 H  s                35     -0.213726   3 H  s         
    15      0.211230   2 C  py               16     -0.209070   2 C  pz        
   139     -0.192119   9 C  s                59     -0.154551   5 C  pz        

 Vector   40  Occ=2.000000D+00  E=-6.208047D-01
              MO Center= -9.5D-01, -9.1D-01,  3.2D-01, r^2= 7.5D+00
   Bfn.  Coefficient  Atom+Function         Bfn.  Coefficient  Atom+Function  
  ----- ------------  ---------------      ----- ------------  ---------------
   410     -0.171980  25 H  s               346      0.169091  21 C  py        
   226     -0.167424  15 C  s               106      0.164127   7 N  s         
   139     -0.164066   9 C  s               401      0.164727  24 H  s         
   409     -0.162540  25 H  s               225      0.160475  15 C  s         
   311     -0.154397  19 C  px              471      0.154975  30 H  s         

 Vector   41  Occ=2.000000D+00  E=-6.087549D-01
              MO Center= -6.1D-02,  5.6D-01,  5.4D-02, r^2= 8.2D+00
   Bfn.  Coefficient  Atom+Function         Bfn.  Coefficient  Atom+Function  
  ----- ------------  ---------------      ----- ------------  ---------------
    84      0.181597   6 O  pz              227      0.161597  15 C  px        
    58     -0.156589   5 C  py              254     -0.150990  16 O  pz        

 Vector   42  Occ=2.000000D+00  E=-6.049801D-01
              MO Center=  1.5D-01,  1.2D+00, -2.6D-02, r^2= 8.2D+00
   Bfn.  Coefficient  Atom+Function         Bfn.  Coefficient  Atom+Function  
  ----- ------------  ---------------      ----- ------------  ---------------
   252      0.203432  16 O  px               58     -0.175828   5 C  py        
   309      0.171203  19 C  s               145     -0.163756   9 C  py        
    59     -0.160802   5 C  pz              299     -0.155323  18 H  s         
   229     -0.152847  15 C  pz        

 Vector   43  Occ=2.000000D+00  E=-5.989261D-01
              MO Center= -9.3D-01, -1.8D+00,  2.5D-02, r^2= 7.0D+00
   Bfn.  Coefficient  Atom+Function         Bfn.  Coefficient  Atom+Function  
  ----- ------------  ---------------      ----- ------------  ---------------
   381      0.186992  23 C  pz              418      0.186854  26 H  s         
   452      0.185917  28 H  s               509     -0.175321  32 O  py        
   276     -0.162590  17 N  s               419      0.158590  26 H  s         
   484      0.156273  31 C  py              453      0.155312  28 H  s         
   348      0.153395  21 C  px        

 Vector   44  Occ=2.000000D+00  E=-5.912835D-01
              MO Center= -1.2D+00,  2.6D+00,  1.3D-02, r^2= 7.9D+00
   Bfn.  Coefficient  Atom+Function         Bfn.  Coefficient  Atom+Function  
  ----- ------------  ---------------      ----- ------------  ---------------
     1      0.304017   1 H  s                 2      0.299073   1 H  s         
    14     -0.235138   2 C  px               16     -0.229472   2 C  pz        
    35     -0.169172   3 H  s               175      0.154007  11 C  px        

 Vector   45  Occ=2.000000D+00  E=-5.832108D-01
              MO Center= -9.4D-02, -1.7D+00,  9.0D-02, r^2= 1.0D+01
   Bfn.  Coefficient  Atom+Function         Bfn.  Coefficient  Atom+Function  
  ----- ------------  ---------------      ----- ------------  ---------------
   509      0.299876  32 O  py              484     -0.246660  31 C  py        
   506     -0.206696  32 O  s               419      0.162375  26 H  s         
   418      0.150476  26 H  s         

 Vector   46  Occ=2.000000D+00  E=-5.697260D-01
              MO Center=  1.3D+00,  8.8D-01,  2.9D-01, r^2= 7.4D+00
   Bfn.  Coefficient  Atom+Function         Bfn.  Coefficient  Atom+Function  
  ----- ------------  ---------------      ----- ------------  ---------------
   177      0.250265  11 C  pz              174      0.237073  11 C  s         
   205      0.227117  13 H  s               215     -0.223352  14 H  s         
   225      0.205525  15 C  s               254     -0.197358  16 O  pz        
   229     -0.187538  15 C  pz              139     -0.169580   9 C  s         
   279     -0.169891  17 N  pz              214     -0.159269  14 H  s         

 Vector   47  Occ=2.000000D+00  E=-5.579798D-01
              MO Center=  5.6D-01,  1.8D+00,  2.7D-02, r^2= 8.8D+00
   Bfn.  Coefficient  Atom+Function         Bfn.  Coefficient  Atom+Function  
  ----- ------------  ---------------      ----- ------------  ---------------
   196     -0.201338  12 H  s               141      0.193586   9 C  px        
   176     -0.193485  11 C  py              197     -0.153307  12 H  s         
   108      0.152500   7 N  py              175     -0.151328  11 C  px        
    14     -0.150110   2 C  px        

 Vector   48  Occ=2.000000D+00  E=-5.532871D-01
              MO Center=  1.2D+00,  1.6D+00, -5.4D-02, r^2= 9.1D+00
   Bfn.  Coefficient  Atom+Function         Bfn.  Coefficient  Atom+Function  
  ----- ------------  ---------------      ----- ------------  ---------------
   176      0.266208  11 C  py              215     -0.258337  14 H  s         
   196      0.220123  12 H  s               214     -0.201040  14 H  s         
   139     -0.195211   9 C  s               197      0.182732  12 H  s         
   231      0.179375  15 C  py              482     -0.175934  31 C  s         
   228      0.164992  15 C  py               12     -0.163094   2 C  s         

 Vector   49  Occ=2.000000D+00  E=-5.462280D-01
              MO Center=  6.5D-03,  2.4D+00, -1.3D-01, r^2= 6.8D+00
   Bfn.  Coefficient  Atom+Function         Bfn.  Coefficient  Atom+Function  
  ----- ------------  ---------------      ----- ------------  ---------------
   175      0.227166  11 C  px               35      0.196737   3 H  s         
    83      0.191592   6 O  py               16      0.189613   2 C  pz        
   214      0.189909  14 H  s                45     -0.174894   4 H  s         
   141     -0.175174   9 C  px              215      0.168376  14 H  s         
    84     -0.164490   6 O  pz               55     -0.156289   5 C  s         

 Vector   50  Occ=2.000000D+00  E=-5.395821D-01
              MO Center= -9.1D-01, -1.4D+00, -2.4D-01, r^2= 6.9D+00
   Bfn.  Coefficient  Atom+Function         Bfn.  Coefficient  Atom+Function  
  ----- ------------  ---------------      ----- ------------  ---------------
   432      0.260122  27 C  py              470      0.222533  30 H  s         
   276     -0.195150  17 N  s               380     -0.192127  23 C  py        
   400     -0.179224  24 H  s               401     -0.172183  24 H  s         
   452     -0.171687  28 H  s               453     -0.159154  28 H  s         
   535     -0.157010  33 N  pz        

 Vector   51  Occ=2.000000D+00  E=-5.348877D-01
              MO Center= -6.1D-01, -1.2D+00, -7.4D-02, r^2= 9.5D+00
   Bfn.  Coefficient  Atom+Function         Bfn.  Coefficient  Atom+Function  
  ----- ------------  ---------------      ----- ------------  ---------------
   461     -0.209393  29 H  s               431      0.207654  27 C  px        
   462     -0.198207  29 H  s               174     -0.160323  11 C  s         
   400     -0.157553  24 H  s               471      0.156134  30 H  s         
   510      0.155605  32 O  pz              535      0.153462  33 N  pz        
   481      0.150788  31 C  s         

 Vector   52  Occ=2.000000D+00  E=-5.282016D-01
              MO Center= -3.2D-01,  7.5D-02,  3.3D-01, r^2= 1.1D+01
   Bfn.  Coefficient  Atom+Function         Bfn.  Coefficient  Atom+Function  
  ----- ------------  ---------------      ----- ------------  ---------------
   379      0.230023  23 C  px              409     -0.228848  25 H  s         
   410     -0.224558  25 H  s               173      0.193992  11 C  s         
   481     -0.194547  31 C  s               178     -0.187778  11 C  px        
   314      0.186395  19 C  px              143      0.175178   9 C  pz        
   162     -0.173292  10 H  s               177     -0.173443  11 C  pz        

 Vector   53  Occ=2.000000D+00  E=-5.212872D-01
              MO Center=  2.9D-01, -1.7D-01,  3.8D-01, r^2= 9.3D+00
   Bfn.  Coefficient  Atom+Function         Bfn.  Coefficient  Atom+Function  
  ----- ------------  ---------------      ----- ------------  ---------------
   343      0.290452  21 C  s               174      0.222421  11 C  s         
   178      0.205369  11 C  px              314      0.189044  19 C  px        
   162      0.187445  10 H  s               143     -0.182063   9 C  pz        
   379      0.179726  23 C  px              419      0.179162  26 H  s         
   173     -0.175589  11 C  s               410     -0.168038  25 H  s         

 Vector   54  Occ=2.000000D+00  E=-4.801745D-01
              MO Center= -1.2D+00, -1.5D+00,  2.5D-01, r^2= 5.3D+00
   Bfn.  Coefficient  Atom+Function         Bfn.  Coefficient  Atom+Function  
  ----- ------------  ---------------      ----- ------------  ---------------
   462      0.279982  29 H  s               311     -0.241034  19 C  px        
   471     -0.226663  30 H  s               401     -0.219521  24 H  s         
   345      0.211788  21 C  px              367     -0.206259  22 H  s         
   461      0.196714  29 H  s               366     -0.188432  22 H  s         
   410      0.165775  25 H  s               431     -0.165772  27 C  px        

 Vector   55  Occ=2.000000D+00  E=-4.723551D-01
              MO Center= -1.6D+00, -1.4D+00,  2.1D-01, r^2= 4.3D+00
   Bfn.  Coefficient  Atom+Function         Bfn.  Coefficient  Atom+Function  
  ----- ------------  ---------------      ----- ------------  ---------------
   346      0.239257  21 C  py              367     -0.222530  22 H  s         
   453      0.222710  28 H  s               366     -0.211061  22 H  s         
   345     -0.201583  21 C  px              380     -0.186073  23 C  py        
   309     -0.163575  19 C  s               311      0.163595  19 C  px        
   470     -0.164390  30 H  s               432     -0.158134  27 C  py        

 Vector   56  Occ=2.000000D+00  E=-4.614516D-01
              MO Center= -1.7D+00, -1.7D+00,  2.8D-01, r^2= 3.7D+00
   Bfn.  Coefficient  Atom+Function         Bfn.  Coefficient  Atom+Function  
  ----- ------------  ---------------      ----- ------------  ---------------
   347      0.274119  21 C  pz              433     -0.271008  27 C  pz        
   419     -0.238713  26 H  s               377      0.229777  23 C  s         
   381     -0.221446  23 C  pz              452      0.194908  28 H  s         
   418     -0.185431  26 H  s               436     -0.185180  27 C  pz        
   346      0.178363  21 C  py              453      0.167315  28 H  s         

 Vector   57  Occ=2.000000D+00  E=-4.592984D-01
              MO Center=  9.6D-02,  7.8D-01, -2.7D-02, r^2= 6.8D+00
   Bfn.  Coefficient  Atom+Function         Bfn.  Coefficient  Atom+Function  
  ----- ------------  ---------------      ----- ------------  ---------------
   253      0.292502  16 O  py              256      0.239990  16 O  py        
    82     -0.232709   6 O  px              139     -0.213533   9 C  s         
    84      0.197835   6 O  pz              109     -0.193570   7 N  pz        
    85     -0.185936   6 O  px              252      0.182803  16 O  px        
   112     -0.163144   7 N  pz               87      0.151126   6 O  pz        

 Vector   58  Occ=2.000000D+00  E=-4.458599D-01
              MO Center= -8.2D-01,  1.7D+00, -6.2D-01, r^2= 4.4D+00
   Bfn.  Coefficient  Atom+Function         Bfn.  Coefficient  Atom+Function  
  ----- ------------  ---------------      ----- ------------  ---------------
    82      0.423012   6 O  px               85      0.349347   6 O  px        
    83     -0.260082   6 O  py               86     -0.205341   6 O  py        
   225      0.177492  15 C  s               105     -0.165320   7 N  s         
   107      0.165506   7 N  px              144     -0.160092   9 C  px        
   226      0.159095  15 C  s               140      0.153114   9 C  s         

 Vector   59  Occ=2.000000D+00  E=-4.316422D-01
              MO Center=  6.4D-01, -1.8D+00,  4.9D-02, r^2= 5.8D+00
   Bfn.  Coefficient  Atom+Function         Bfn.  Coefficient  Atom+Function  
  ----- ------------  ---------------      ----- ------------  ---------------
   508      0.359583  32 O  px              511      0.277572  32 O  px        
   279     -0.263209  17 N  pz              254      0.250857  16 O  pz        
   309      0.242600  19 C  s               282     -0.228485  17 N  pz        
   257      0.196320  16 O  pz              276      0.157854  17 N  s         
   429     -0.156725  27 C  s         

 Vector   60  Occ=2.000000D+00  E=-4.120427D-01
              MO Center=  7.4D-01,  1.1D+00, -2.4D-02, r^2= 5.7D+00
   Bfn.  Coefficient  Atom+Function         Bfn.  Coefficient  Atom+Function  
  ----- ------------  ---------------      ----- ------------  ---------------
   253      0.297335  16 O  py              108     -0.248938   7 N  py        
   109      0.239642   7 N  pz              256      0.234736  16 O  py        
   111     -0.231905   7 N  py              112      0.210854   7 N  pz        
   145      0.195271   9 C  py               84     -0.168888   6 O  pz        
   228     -0.156645  15 C  py               83      0.150017   6 O  py        

 Vector   61  Occ=2.000000D+00  E=-3.949638D-01
              MO Center=  9.7D-01, -2.7D+00, -3.6D-01, r^2= 4.0D+00
   Bfn.  Coefficient  Atom+Function         Bfn.  Coefficient  Atom+Function  
  ----- ------------  ---------------      ----- ------------  ---------------
   510      0.395223  32 O  pz              513      0.309023  32 O  pz        
   535     -0.306722  33 N  pz              538     -0.262790  33 N  pz        
   533     -0.207705  33 N  px              536     -0.182732  33 N  px        

 Vector   62  Occ=2.000000D+00  E=-3.825375D-01
              MO Center=  6.6D-01, -1.9D+00, -1.8D-02, r^2= 4.5D+00
   Bfn.  Coefficient  Atom+Function         Bfn.  Coefficient  Atom+Function  
  ----- ------------  ---------------      ----- ------------  ---------------
   508      0.309985  32 O  px              279      0.268678  17 N  pz        
   511      0.253046  32 O  px              282      0.243878  17 N  pz        
   535     -0.216205  33 N  pz              254     -0.181103  16 O  pz        
   509     -0.174655  32 O  py              538     -0.166532  33 N  pz        
   481      0.159758  31 C  s         

 Vector   63  Occ=0.000000D+00  E= 1.978878D-02
              MO Center= -9.7D-02,  4.9D+00,  9.7D-01, r^2= 2.0D+01
   Bfn.  Coefficient  Atom+Function         Bfn.  Coefficient  Atom+Function  
  ----- ------------  ---------------      ----- ------------  ---------------
   234      3.594228  15 C  py              300      3.588228  18 H  s         
   148      2.879455   9 C  py              402      2.681311  24 H  s         
   233      2.361560  15 C  px              226      2.340363  15 C  s         
   482      2.328404  31 C  s               198     -1.905113  12 H  s         
    46     -1.873865   4 H  s                63     -1.784160   5 C  px        

 Vector   64  Occ=0.000000D+00  E= 3.418465D-02
              MO Center=  6.2D-01,  2.7D+00,  1.6D-01, r^2= 3.5D+01
   Bfn.  Coefficient  Atom+Function         Bfn.  Coefficient  Atom+Function  
  ----- ------------  ---------------      ----- ------------  ---------------
   378      3.063895  23 C  s                63      2.956463   5 C  px        
    37      2.472557   3 H  s               198     -2.477860  12 H  s         
   234      2.326780  15 C  py              351      2.214851  21 C  px        
   276      2.183614  17 N  s               233      2.115850  15 C  px        
   147      2.008847   9 C  px               64     -1.926921   5 C  py        

 Vector   65  Occ=0.000000D+00  E= 3.938370D-02
              MO Center= -5.6D-01,  3.5D+00,  9.8D-01, r^2= 2.9D+01
   Bfn.  Coefficient  Atom+Function         Bfn.  Coefficient  Atom+Function  
  ----- ------------  ---------------      ----- ------------  ---------------
   147      2.890223   9 C  px               46      2.317521   4 H  s         
   207     -2.319123  13 H  s                63      2.291065   5 C  px        
     3      2.159121   1 H  s               130     -1.838462   8 H  s         
   164      1.784138  10 H  s               402     -1.648590  24 H  s         
    56      1.584107   5 C  s               106     -1.576353   7 N  s         

 Vector   66  Occ=0.000000D+00  E= 3.985900D-02
              MO Center=  1.8D-01,  1.3D-01, -3.7D-01, r^2= 4.0D+01
   Bfn.  Coefficient  Atom+Function         Bfn.  Coefficient  Atom+Function  
  ----- ------------  ---------------      ----- ------------  ---------------
   300      4.004692  18 H  s               482      3.513680  31 C  s         
   164     -2.582364  10 H  s               147      2.403939   9 C  px        
   402      2.054749  24 H  s               106      2.020196   7 N  s         
   310      1.955563  19 C  s               411     -1.877606  25 H  s         
   317     -1.856615  19 C  px              174     -1.813029  11 C  s         

 Vector   67  Occ=0.000000D+00  E= 4.968427D-02
              MO Center=  2.8D-02, -2.9D-01, -1.8D-01, r^2= 4.7D+01
   Bfn.  Coefficient  Atom+Function         Bfn.  Coefficient  Atom+Function  
  ----- ------------  ---------------      ----- ------------  ---------------
   482     -3.324868  31 C  s               198      3.273138  12 H  s         
   174      3.031222  11 C  s               318     -2.959574  19 C  py        
   148     -2.931409   9 C  py              234     -2.455136  15 C  py        
   411      2.400871  25 H  s               489      2.309643  31 C  px        
   556     -2.163295  34 H  s               226     -2.105437  15 C  s         

 Vector   68  Occ=0.000000D+00  E= 5.504985D-02
              MO Center= -1.7D-01,  1.2D+00,  7.2D-01, r^2= 4.3D+01
   Bfn.  Coefficient  Atom+Function         Bfn.  Coefficient  Atom+Function  
  ----- ------------  ---------------      ----- ------------  ---------------
   174      3.717726  11 C  s                 3     -3.097004   1 H  s         
    56     -3.022659   5 C  s                63     -2.900030   5 C  px        
   430     -2.660064  27 C  s               164      2.620716  10 H  s         
   216     -2.406353  14 H  s               106      2.028869   7 N  s         
   130      1.958885   8 H  s               402     -1.968336  24 H  s         

 Vector   69  Occ=0.000000D+00  E= 5.599726D-02
              MO Center= -1.0D+00, -5.4D-02, -2.6D-01, r^2= 4.1D+01
   Bfn.  Coefficient  Atom+Function         Bfn.  Coefficient  Atom+Function  
  ----- ------------  ---------------      ----- ------------  ---------------
   463     -3.073572  29 H  s               482      2.956738  31 C  s         
   164      2.905314  10 H  s               532     -2.676897  33 N  s         
    37      2.421862   3 H  s               226      2.303871  15 C  s         
   207     -2.233847  13 H  s               310      2.155829  19 C  s         
   420      1.925255  26 H  s               149      1.828433   9 C  pz        

 Vector   70  Occ=0.000000D+00  E= 5.915369D-02
              MO Center= -3.2D-01,  5.0D-01, -1.4D-01, r^2= 3.9D+01
   Bfn.  Coefficient  Atom+Function         Bfn.  Coefficient  Atom+Function  
  ----- ------------  ---------------      ----- ------------  ---------------
   164      4.564418  10 H  s                46     -2.891282   4 H  s         
   130      2.634702   8 H  s               300     -2.488424  18 H  s         
   174     -2.435906  11 C  s               149      2.409779   9 C  pz        
   353      2.159005  21 C  pz              216     -2.116057  14 H  s         
   472      2.109757  30 H  s               429     -2.033402  27 C  s         

 Vector   71  Occ=0.000000D+00  E= 6.291412D-02
              MO Center= -5.4D-01,  7.4D-01,  1.1D+00, r^2= 3.8D+01
   Bfn.  Coefficient  Atom+Function         Bfn.  Coefficient  Atom+Function  
  ----- ------------  ---------------      ----- ------------  ---------------
   430     -3.901880  27 C  s               207      3.727640  13 H  s         
   334      3.631305  20 H  s               164      3.283274  10 H  s         
   300     -3.215857  18 H  s                 3      2.754492   1 H  s         
   482      2.741109  31 C  s               310      2.676250  19 C  s         
   472      2.580322  30 H  s               149      2.544660   9 C  pz        

 Vector   72  Occ=0.000000D+00  E= 6.916392D-02
              MO Center=  7.5D-01,  6.7D-01, -6.3D-01, r^2= 4.8D+01
   Bfn.  Coefficient  Atom+Function         Bfn.  Coefficient  Atom+Function  
  ----- ------------  ---------------      ----- ------------  ---------------
   198      4.436337  12 H  s               402      4.293933  24 H  s         
   216     -4.093497  14 H  s               226     -4.030365  15 C  s         
    13      3.979764   2 C  s                63      3.420263   5 C  px        
   113      3.309931   7 N  px              140     -2.944866   9 C  s         
     3      2.902364   1 H  s                46     -2.737386   4 H  s         

 Vector   73  Occ=0.000000D+00  E= 7.361458D-02
              MO Center= -1.4D+00,  1.6D-01, -3.1D-02, r^2= 4.3D+01
   Bfn.  Coefficient  Atom+Function         Bfn.  Coefficient  Atom+Function  
  ----- ------------  ---------------      ----- ------------  ---------------
   411      5.004870  25 H  s               198     -3.763559  12 H  s         
    37     -3.717359   3 H  s               430      3.217847  27 C  s         
   385      3.127385  23 C  px              317      3.019331  19 C  px        
   454     -2.911851  28 H  s               276      2.863828  17 N  s         
   130      2.580369   8 H  s               378      2.272734  23 C  s         

 Vector   74  Occ=0.000000D+00  E= 8.008009D-02
              MO Center= -1.6D+00, -9.1D-01,  1.1D+00, r^2= 3.9D+01
   Bfn.  Coefficient  Atom+Function         Bfn.  Coefficient  Atom+Function  
  ----- ------------  ---------------      ----- ------------  ---------------
   368      6.879600  22 H  s               352      5.707151  21 C  py        
   317     -5.060764  19 C  px              420     -5.016574  26 H  s         
   402      4.041755  24 H  s                46     -3.725755   4 H  s         
   353     -3.345162  21 C  pz              454     -3.222950  28 H  s         
   300     -2.603471  18 H  s               411     -2.565258  25 H  s         

 Vector   75  Occ=0.000000D+00  E= 8.069582D-02
              MO Center= -2.9D-01, -5.8D-01,  4.3D-01, r^2= 4.1D+01
   Bfn.  Coefficient  Atom+Function         Bfn.  Coefficient  Atom+Function  
  ----- ------------  ---------------      ----- ------------  ---------------
   174      5.524691  11 C  s               463      4.781123  29 H  s         
   207     -4.096347  13 H  s               368     -4.062684  22 H  s         
   402      3.622437  24 H  s               234      3.286533  15 C  py        
   454     -3.011923  28 H  s               226     -2.854509  15 C  s         
   334      2.857262  20 H  s                56     -2.810426   5 C  s         

 Vector   76  Occ=0.000000D+00  E= 8.684266D-02
              MO Center= -7.5D-01,  1.0D+00,  8.8D-01, r^2= 3.9D+01
   Bfn.  Coefficient  Atom+Function         Bfn.  Coefficient  Atom+Function  
  ----- ------------  ---------------      ----- ------------  ---------------
   402      5.524118  24 H  s               334      4.915752  20 H  s         
   472     -4.766923  30 H  s               130     -4.593652   8 H  s         
   420     -4.449076  26 H  s               207      4.205499  13 H  s         
   147     -3.761180   9 C  px              216     -3.399026  14 H  s         
   463      3.398212  29 H  s                 3     -3.334488   1 H  s         

 Vector   77  Occ=0.000000D+00  E= 9.356717D-02
              MO Center= -1.5D+00, -9.1D-01,  2.1D-01, r^2= 3.7D+01
   Bfn.  Coefficient  Atom+Function         Bfn.  Coefficient  Atom+Function  
  ----- ------------  ---------------      ----- ------------  ---------------
   472      9.862812  30 H  s               463     -6.619872  29 H  s         
   411      6.392174  25 H  s               334      6.073746  20 H  s         
   420     -5.353152  26 H  s               319     -5.251139  19 C  pz        
   300     -3.883724  18 H  s               353      3.694883  21 C  pz        
   402     -3.706617  24 H  s               482     -3.480546  31 C  s         

 Vector   78  Occ=0.000000D+00  E= 9.644013D-02
              MO Center= -1.2D+00,  1.9D-02, -3.8D-01, r^2= 3.9D+01
   Bfn.  Coefficient  Atom+Function         Bfn.  Coefficient  Atom+Function  
  ----- ------------  ---------------      ----- ------------  ---------------
   402     11.569763  24 H  s               300      9.929900  18 H  s         
   472     -8.729689  30 H  s                56     -7.025678   5 C  s         
   454      6.879611  28 H  s               378     -6.639555  23 C  s         
   420     -6.252406  26 H  s               317     -4.648735  19 C  px        
   233      3.728733  15 C  px              216      3.531961  14 H  s         

 Vector   79  Occ=0.000000D+00  E= 1.010071D-01
              MO Center=  2.4D-01,  7.0D-01, -1.4D+00, r^2= 3.6D+01
   Bfn.  Coefficient  Atom+Function         Bfn.  Coefficient  Atom+Function  
  ----- ------------  ---------------      ----- ------------  ---------------
   147      8.653692   9 C  px              472     -7.403560  30 H  s         
    56      7.312071   5 C  s               226     -5.321211  15 C  s         
   174     -5.154557  11 C  s                63      5.083140   5 C  px        
   276      4.966964  17 N  s               565      4.739022  35 H  s         
    64     -4.618887   5 C  py              300      4.265993  18 H  s         

 Vector   80  Occ=0.000000D+00  E= 1.045569D-01
              MO Center=  1.5D+00, -6.5D-01, -1.3D-01, r^2= 3.9D+01
   Bfn.  Coefficient  Atom+Function         Bfn.  Coefficient  Atom+Function  
  ----- ------------  ---------------      ----- ------------  ---------------
   565      8.011547  35 H  s               378     -6.505366  23 C  s         
   174      6.436653  11 C  s               430     -6.161399  27 C  s         
   368      5.290856  22 H  s               352      5.122550  21 C  py        
   334     -4.765951  20 H  s               402      4.702320  24 H  s         
   317     -4.569938  19 C  px              164     -4.253503  10 H  s         

 Vector   81  Occ=0.000000D+00  E= 1.172609D-01
              MO Center= -1.6D+00,  1.2D+00, -8.8D-02, r^2= 3.3D+01
   Bfn.  Coefficient  Atom+Function         Bfn.  Coefficient  Atom+Function  
  ----- ------------  ---------------      ----- ------------  ---------------
   402     16.081696  24 H  s               174     -8.273255  11 C  s         
   378     -7.308113  23 C  s               411     -7.013992  25 H  s         
   147      6.584728   9 C  px               56      4.546902   5 C  s         
   454     -4.152294  28 H  s                37     -3.601326   3 H  s         
   386     -3.554264  23 C  py              300      3.431970  18 H  s         

 Vector   82  Occ=0.000000D+00  E= 1.192081D-01
              MO Center=  2.1D-01,  1.0D+00, -7.9D-01, r^2= 3.4D+01
   Bfn.  Coefficient  Atom+Function         Bfn.  Coefficient  Atom+Function  
  ----- ------------  ---------------      ----- ------------  ---------------
   300     26.192825  18 H  s               174    -20.249819  11 C  s         
   234     15.579990  15 C  py              276      9.905547  17 N  s         
   344     -9.592214  21 C  s               148      9.060444   9 C  py        
   482      8.772076  31 C  s               233      7.772538  15 C  px        
   378      7.709669  23 C  s               472     -7.310695  30 H  s         

 Vector   83  Occ=0.000000D+00  E= 1.294522D-01
              MO Center=  5.4D-01,  1.1D+00,  8.1D-01, r^2= 3.0D+01
   Bfn.  Coefficient  Atom+Function         Bfn.  Coefficient  Atom+Function  
  ----- ------------  ---------------      ----- ------------  ---------------
   174     14.247767  11 C  s               226    -13.816107  15 C  s         
   148     -9.820007   9 C  py              140     -8.527059   9 C  s         
   147     -6.070827   9 C  px              430     -5.834299  27 C  s         
    13      5.248135   2 C  s                56     -4.948444   5 C  s         
    63      4.816554   5 C  px              472      4.839328  30 H  s         

 Vector   84  Occ=0.000000D+00  E= 1.328102D-01
              MO Center= -5.2D-01,  2.2D+00, -1.1D-01, r^2= 3.1D+01
   Bfn.  Coefficient  Atom+Function         Bfn.  Coefficient  Atom+Function  
  ----- ------------  ---------------      ----- ------------  ---------------
   226     11.488600  15 C  s               106     -8.784319   7 N  s         
   148      8.559465   9 C  py              482      7.074813  31 C  s         
   318      6.138177  19 C  py              300     -5.817796  18 H  s         
   174     -5.747028  11 C  s               234      5.473872  15 C  py        
    56      4.672849   5 C  s               140      4.282639   9 C  s         

 Vector   85  Occ=0.000000D+00  E= 1.406560D-01
              MO Center=  1.0D+00, -7.4D-01, -3.2D-01, r^2= 3.1D+01
   Bfn.  Coefficient  Atom+Function         Bfn.  Coefficient  Atom+Function  
  ----- ------------  ---------------      ----- ------------  ---------------
    63      8.116581   5 C  px               56      6.856928   5 C  s         
[...]
   276     10.775246  17 N  s               234      9.835163  15 C  py        
   226     -9.014480  15 C  s                13      8.790065   2 C  s         
   140     -8.075320   9 C  s               300      6.216620  18 H  s         
   319      5.778476  19 C  pz              429     -5.713750  27 C  s         
   453      5.545234  28 H  s               173      5.504421  11 C  s         

 Vector  160  Occ=0.000000D+00  E= 4.368487D-01
              MO Center=  1.0D-01,  1.8D-01,  1.3D-01, r^2= 2.1D+01
   Bfn.  Coefficient  Atom+Function         Bfn.  Coefficient  Atom+Function  
  ----- ------------  ---------------      ----- ------------  ---------------
   482      8.413782  31 C  s               352     -8.081304  21 C  py        
   318      7.912292  19 C  py              378      7.820569  23 C  s         
   234      6.414187  15 C  py              532     -6.314490  33 N  s         
   226     -5.490028  15 C  s               351      5.449208  21 C  px        
    56     -5.283187   5 C  s               430     -5.181621  27 C  s         

 Vector  161  Occ=0.000000D+00  E= 4.427978D-01
              MO Center= -9.3D-01, -4.0D-02,  2.8D-02, r^2= 2.2D+01
   Bfn.  Coefficient  Atom+Function         Bfn.  Coefficient  Atom+Function  
  ----- ------------  ---------------      ----- ------------  ---------------
   317     14.283132  19 C  px              430     13.483245  27 C  s         
    56    -12.837683   5 C  s               318     11.143956  19 C  py        
   234     10.675420  15 C  py              532     10.083009  33 N  s         
   378      9.445674  23 C  s                13     -9.393255   2 C  s         
   310     -7.649996  19 C  s               489     -7.453328  31 C  px        

 Vector  162  Occ=0.000000D+00  E= 4.458698D-01
              MO Center= -7.1D-01,  9.3D-01,  7.3D-02, r^2= 1.9D+01
   Bfn.  Coefficient  Atom+Function         Bfn.  Coefficient  Atom+Function  
  ----- ------------  ---------------      ----- ------------  ---------------
   276     17.318531  17 N  s               482    -15.895491  31 C  s         
    12     10.035536   2 C  s               310     -8.892636  19 C  s         
   430      8.167059  27 C  s               317      8.103185  19 C  px        
   532      7.961251  33 N  s                56      7.676571   5 C  s         
   377     -7.700463  23 C  s               234      6.067865  15 C  py        

 Vector  163  Occ=0.000000D+00  E= 4.491468D-01
              MO Center= -9.8D-01,  2.1D-01,  2.1D-01, r^2= 2.2D+01
   Bfn.  Coefficient  Atom+Function         Bfn.  Coefficient  Atom+Function  
  ----- ------------  ---------------      ----- ------------  ---------------
   402      9.761626  24 H  s                56      8.768739   5 C  s         
    13      6.989957   2 C  s                63      6.324643   5 C  px        
   532     -6.272878  33 N  s                64     -5.988348   5 C  py        
   147      5.614009   9 C  px              411     -4.862661  25 H  s         
   429     -4.879818  27 C  s               226     -4.769914  15 C  s         

 Vector  164  Occ=0.000000D+00  E= 4.542212D-01
              MO Center= -5.4D-01, -5.2D-01, -2.2D-01, r^2= 2.0D+01
   Bfn.  Coefficient  Atom+Function         Bfn.  Coefficient  Atom+Function  
  ----- ------------  ---------------      ----- ------------  ---------------
   226     22.235898  15 C  s               276    -15.168913  17 N  s         
   378    -12.681014  23 C  s               106    -12.519626   7 N  s         
   140     10.159980   9 C  s               174     -8.861714  11 C  s         
    12     -7.224504   2 C  s               300     -6.708798  18 H  s         
   482      6.531152  31 C  s               148      6.191609   9 C  py        

 Vector  165  Occ=0.000000D+00  E= 4.584909D-01
              MO Center=  4.5D-01,  9.9D-01,  1.1D-01, r^2= 1.9D+01
   Bfn.  Coefficient  Atom+Function         Bfn.  Coefficient  Atom+Function  
  ----- ------------  ---------------      ----- ------------  ---------------
   106     11.753651   7 N  s               276     -9.022632  17 N  s         
   284      6.997481  17 N  py              234     -6.559012  15 C  py        
   149     -5.832554   9 C  pz              353      5.527386  21 C  pz        
   235      5.454576  15 C  pz              147      5.311699   9 C  px        
    13     -4.528043   2 C  s               319     -4.497158  19 C  pz        

 Vector  166  Occ=0.000000D+00  E= 4.594562D-01
              MO Center=  5.7D-01,  1.2D-01, -2.5D-02, r^2= 2.1D+01
   Bfn.  Coefficient  Atom+Function         Bfn.  Coefficient  Atom+Function  
  ----- ------------  ---------------      ----- ------------  ---------------
   174     25.849157  11 C  s               276    -16.589944  17 N  s         
   234    -15.928194  15 C  py              147     -9.962713   9 C  px        
   319     -8.633661  19 C  pz              482     -8.344761  31 C  s         
   344      8.197518  21 C  s               317      7.544324  19 C  px        
   489     -7.529656  31 C  px              173      7.482830  11 C  s         

 Vector  167  Occ=0.000000D+00  E= 4.611485D-01
              MO Center=  2.2D-01,  5.1D-01,  1.3D-01, r^2= 2.0D+01
   Bfn.  Coefficient  Atom+Function         Bfn.  Coefficient  Atom+Function  
  ----- ------------  ---------------      ----- ------------  ---------------
   106     10.005111   7 N  s               233     -7.618135  15 C  px        
   234     -6.302758  15 C  py               12      6.230349   2 C  s         
   430     -5.741242  27 C  s               283      5.551718  17 N  px        
   319     -5.346856  19 C  pz              377     -5.068112  23 C  s         
   251     -4.958418  16 O  s               410      4.778866  25 H  s         

 Vector  168  Occ=0.000000D+00  E= 4.687813D-01
              MO Center= -5.0D-01, -2.2D-01,  2.7D-01, r^2= 2.0D+01
   Bfn.  Coefficient  Atom+Function         Bfn.  Coefficient  Atom+Function  
  ----- ------------  ---------------      ----- ------------  ---------------
   482     18.006856  31 C  s                56     12.818603   5 C  s         
   378     12.461318  23 C  s               430    -10.988355  27 C  s         
   300    -10.157440  18 H  s                13      9.990160   2 C  s         
   276     -9.155360  17 N  s               113      8.344337   7 N  px        
   353     -8.089761  21 C  pz              532     -7.782805  33 N  s         

 Vector  169  Occ=0.000000D+00  E= 4.710589D-01
              MO Center= -9.4D-01, -3.3D-01,  3.5D-01, r^2= 2.0D+01
   Bfn.  Coefficient  Atom+Function         Bfn.  Coefficient  Atom+Function  
  ----- ------------  ---------------      ----- ------------  ---------------
   430     18.670207  27 C  s               317     16.394122  19 C  px        
   482    -13.551237  31 C  s               174    -11.172563  11 C  s         
   310    -10.804274  19 C  s                13    -10.670552   2 C  s         
   353      9.432783  21 C  pz              140      8.592729   9 C  s         
   283     -8.088763  17 N  px              532      7.438302  33 N  s         

 Vector  170  Occ=0.000000D+00  E= 4.754445D-01
              MO Center=  8.9D-01,  1.8D+00,  2.8D-01, r^2= 1.8D+01
   Bfn.  Coefficient  Atom+Function         Bfn.  Coefficient  Atom+Function  
  ----- ------------  ---------------      ----- ------------  ---------------
   206      7.915325  13 H  s               300      7.935345  18 H  s         
   174     -6.625656  11 C  s               482     -6.406686  31 C  s         
    56      5.882681   5 C  s                12      5.591597   2 C  s         
   163      5.339585  10 H  s               234     -5.164430  15 C  py        
   402     -4.946399  24 H  s               284     -4.761273  17 N  py        

 Vector  171  Occ=0.000000D+00  E= 4.837267D-01
              MO Center= -2.7D-01, -5.1D-01, -7.5D-02, r^2= 1.9D+01
   Bfn.  Coefficient  Atom+Function         Bfn.  Coefficient  Atom+Function  
  ----- ------------  ---------------      ----- ------------  ---------------
   226     21.394121  15 C  s               276    -16.200261  17 N  s         
   140     14.872370   9 C  s               106    -12.436371   7 N  s         
   300    -12.316422  18 H  s               378    -11.058859  23 C  s         
   147     -9.770333   9 C  px              284     -9.514246  17 N  py        
   344      9.224802  21 C  s               283     -8.843301  17 N  px        

 Vector  172  Occ=0.000000D+00  E= 4.865859D-01
              MO Center= -5.7D-01,  1.5D-01,  3.7D-01, r^2= 2.0D+01
   Bfn.  Coefficient  Atom+Function         Bfn.  Coefficient  Atom+Function  
  ----- ------------  ---------------      ----- ------------  ---------------
   482     33.763100  31 C  s               378     21.572549  23 C  s         
   234     15.413815  15 C  py              174    -15.060438  11 C  s         
   318     13.472387  19 C  py              377     11.034455  23 C  s         
   532    -11.000219  33 N  s               401    -10.699790  24 H  s         
   352    -10.218078  21 C  py              402    -10.161426  24 H  s         

 Vector  173  Occ=0.000000D+00  E= 4.903020D-01
              MO Center= -3.7D-01,  8.5D-02, -7.5D-03, r^2= 2.0D+01
   Bfn.  Coefficient  Atom+Function         Bfn.  Coefficient  Atom+Function  
  ----- ------------  ---------------      ----- ------------  ---------------
   174    -15.126864  11 C  s                56     14.766970   5 C  s         
   226     12.309401  15 C  s               482    -12.145094  31 C  s         
   140     10.427980   9 C  s               429      9.871829  27 C  s         
   147      9.486121   9 C  px              430      8.003098  27 C  s         
   318     -7.594169  19 C  py              310     -7.013525  19 C  s         

 Vector  174  Occ=0.000000D+00  E= 4.936595D-01
              MO Center=  7.2D-02,  8.2D-01, -5.3D-03, r^2= 1.8D+01
   Bfn.  Coefficient  Atom+Function         Bfn.  Coefficient  Atom+Function  
  ----- ------------  ---------------      ----- ------------  ---------------
   226    -17.715404  15 C  s               174     16.842985  11 C  s         
   140    -12.062183   9 C  s               378     10.895792  23 C  s         
    13      7.505991   2 C  s               148     -7.386447   9 C  py        
   353     -6.163501  21 C  pz              402     -5.491271  24 H  s         
   430     -5.476595  27 C  s               147     -5.325532   9 C  px        

 Vector  175  Occ=0.000000D+00  E= 4.962518D-01
              MO Center= -6.9D-01,  9.3D-01,  8.7D-02, r^2= 1.9D+01
   Bfn.  Coefficient  Atom+Function         Bfn.  Coefficient  Atom+Function  
  ----- ------------  ---------------      ----- ------------  ---------------
   174    -19.343861  11 C  s                56     18.137055   5 C  s         
   147     15.198310   9 C  px               13      8.488678   2 C  s         
   148      8.480998   9 C  py              226      8.393795  15 C  s         
     2     -8.306922   1 H  s               430     -8.109948  27 C  s         
   429     -7.907033  27 C  s               377     -7.845963  23 C  s         

 Vector  176  Occ=0.000000D+00  E= 5.034517D-01
              MO Center= -5.2D-01, -4.6D-01, -1.5D-01, r^2= 1.7D+01
   Bfn.  Coefficient  Atom+Function         Bfn.  Coefficient  Atom+Function  
  ----- ------------  ---------------      ----- ------------  ---------------
   226     16.654412  15 C  s               140     12.456526   9 C  s         
    13    -11.515032   2 C  s               430      9.613703  27 C  s         
   300     -9.333320  18 H  s               482     -8.533175  31 C  s         
   367     -8.369363  22 H  s               343      7.972865  21 C  s         
    63     -7.195873   5 C  px              276     -7.049553  17 N  s         


 center of mass
 --------------
 x =   0.06533552 y =  -0.06475819 z =  -0.02001071

 moments of inertia (a.u.)
 ------------------
        4633.129902679052           0.000000000001          -0.000000000000
           0.000000000001        2600.963467844837           0.000000000000
          -0.000000000000           0.000000000000        6433.430524867550

  Mulliken analysis of the total density
  --------------------------------------

    Atom       Charge   Shell Charges
 -----------   ------   -------------------------------------------------------
    1 H    1     0.93   0.76  0.19  0.01  0.03 -0.06
    2 C    6     6.29   2.01  0.66  0.27  0.14  2.07  0.99 -0.01  0.06  0.11
    3 H    1     0.87   0.76  0.13  0.01  0.03 -0.06
    4 H    1     0.85   0.76  0.11  0.01  0.03 -0.07
    5 C    6     5.18   2.01  0.68  0.06  0.04  1.89  0.35 -0.10  0.24  0.01
    6 O    8     8.77   2.01  0.82  1.00  0.16  2.80  1.87  0.12  0.02 -0.01
    7 N    7     7.48   2.01  0.72  0.81 -0.14  2.45  1.45  0.09  0.05  0.04
    8 H    1     0.98   0.77  0.22 -0.03  0.05 -0.04
    9 C    6     6.81   2.01  0.66  0.13  0.04  1.99  1.70 -0.09  0.14  0.24
   10 H    1     1.02   0.78  0.18  0.02  0.03  0.02
   11 C    6     5.75   2.01  0.66  0.22  0.29  2.04  0.50 -0.04  0.07  0.00
   12 H    1     0.94   0.77  0.21  0.01  0.03 -0.09
   13 H    1     0.89   0.77  0.15  0.02  0.03 -0.07
   14 H    1     0.95   0.77  0.23  0.01  0.03 -0.08
   15 C    6     4.47   2.01  0.68 -0.09  0.03  1.89  0.18  0.01  0.24 -0.46
   16 O    8     8.83   2.01  0.82  1.03  0.17  2.79  1.86  0.14  0.01 -0.00
   17 N    7     7.40   2.01  0.72  0.89 -0.20  2.45  1.44  0.00  0.05  0.03
   18 H    1     0.83   0.74  0.33 -0.11  0.06 -0.19
   19 C    6     6.61   2.01  0.67  0.09  0.04  1.99  1.30  0.32  0.14  0.06
   20 H    1     1.03   0.79  0.21 -0.01  0.03  0.02
   21 C    6     6.70   2.01  0.66  0.07  0.11  2.01  1.46 -0.18  0.12  0.44
   22 H    1     1.09   0.79  0.28  0.05  0.03 -0.05
   23 C    6     5.15   2.01  0.67 -0.00  0.01  2.04  0.48 -0.04  0.07 -0.08
   24 H    1     1.08   0.78  0.27  0.01  0.03 -0.01
   25 H    1     1.00   0.78  0.29 -0.01  0.03 -0.08
   26 H    1     1.07   0.78  0.35  0.00  0.03 -0.09
   27 C    6     5.46   2.01  0.66  0.19  0.06  2.05  0.50 -0.03  0.07 -0.05
   28 H    1     0.94   0.77  0.21 -0.01  0.03 -0.07
   29 H    1     1.00   0.78  0.29 -0.01  0.03 -0.08
   30 H    1     1.07   0.78  0.24  0.07  0.03 -0.04
   31 C    6     4.54   2.01  0.68  0.08  0.06  1.89 -0.15 -0.04  0.24 -0.22
   32 O    8     8.78   2.01  0.82  1.02  0.15  2.79  1.84  0.14  0.01 -0.01
   33 N    7     7.28   2.01  0.72  0.86 -0.14  2.47  1.25  0.09  0.04 -0.01
   34 H    1     1.01   0.76  0.23 -0.00  0.05 -0.03
   35 H    1     0.93   0.74  0.19 -0.02  0.06 -0.04

       Multipole analysis of the density wrt the origin
       ------------------------------------------------

     L   x y z        total         open         nuclear
     -   - - -        -----         ----         -------
     0   0 0 0     -0.000000      0.000000    124.000000

     1   1 0 0      0.021399      0.000000     -0.000000
     1   0 1 0      2.961789      0.000000      0.000000
     1   0 0 1      0.415190      0.000000     -0.000000

     2   2 0 0    -71.468390      0.000000   1276.052102
     2   1 1 0     -0.413525      0.000000     26.298899
     2   1 0 1     -7.674139      0.000000    -18.874296
     2   0 2 0    -74.288964      0.000000   2330.760090
     2   0 1 1      3.363407      0.000000     13.079157
     2   0 0 2    -74.846674      0.000000    244.132835


 Task  times  cpu:    12178.4s     wall:    12265.2s


                                NWChem Input Module
                                -------------------


 Summary of allocated global arrays
-----------------------------------
  No active global arrays


MA_summarize_allocated_blocks: starting scan ...
MA_summarize_allocated_blocks: scan completed: 0 heap blocks, 0 stack blocks
MA usage statistics:

	allocation statistics:
					      heap	     stack
					      ----	     -----
	current number of blocks	         0	         0
	maximum number of blocks	        16	        14
	current total bytes		         0	         0
	maximum total bytes		    121360	  26827976
	maximum total K-bytes		       122	     26828
	maximum total M-bytes		         1	        27


                                     CITATION
                                     --------
                Please cite the following reference when publishing
                           results obtained with NWChem:

          E. Apra, E. J. Bylaska, W. A. de Jong, N. Govind, K. Kowalski,
       T. P. Straatsma, M. Valiev, H. J. J. van Dam, Y. Alexeev, J. Anchell,
       V. Anisimov, F. W. Aquino, R. Atta-Fynn, J. Autschbach, N. P. Bauman,
     J. C. Becca, D. E. Bernholdt, K. Bhaskaran-Nair, S. Bogatko, P. Borowski,
         J. Boschen, J. Brabec, A. Bruner, E. Cauet, Y. Chen, G. N. Chuev,
      C. J. Cramer, J. Daily, M. J. O. Deegan, T. H. Dunning Jr., M. Dupuis,
   K. G. Dyall, G. I. Fann, S. A. Fischer, A. Fonari, H. Fruchtl, L. Gagliardi,
      J. Garza, N. Gawande, S. Ghosh, K. Glaesemann, A. W. Gotz, J. Hammond,
       V. Helms, E. D. Hermes, K. Hirao, S. Hirata, M. Jacquelin, L. Jensen,
   B. G. Johnson, H. Jonsson, R. A. Kendall, M. Klemm, R. Kobayashi, V. Konkov,
      S. Krishnamoorthy, M. Krishnan, Z. Lin, R. D. Lins, R. J. Littlefield,
      A. J. Logsdail, K. Lopata, W. Ma, A. V. Marenich, J. Martin del Campo,
   D. Mejia-Rodriguez, J. E. Moore, J. M. Mullin, T. Nakajima, D. R. Nascimento,
    J. A. Nichols, P. J. Nichols, J. Nieplocha, A. Otero-de-la-Roza, B. Palmer,
    A. Panyala, T. Pirojsirikul, B. Peng, R. Peverati, J. Pittner, L. Pollack,
   R. M. Richard, P. Sadayappan, G. C. Schatz, W. A. Shelton, D. W. Silverstein,
   D. M. A. Smith, T. A. Soares, D. Song, M. Swart, H. L. Taylor, G. S. Thomas,
            V. Tipparaju, D. G. Truhlar, K. Tsemekhman, T. Van Voorhis,
      A. Vazquez-Mayagoitia, P. Verma, O. Villa, A. Vishnu, K. D. Vogiatzis,
        D. Wang, J. H. Weare, M. J. Williamson, T. L. Windus, K. Wolinski,
        A. T. Wong, Q. Wu, C. Yang, Q. Yu, M. Zacharias, Z. Zhang, Y. Zhao,
                                and R. J. Harrison
                        "NWChem: Past, present, and future
                         J. Chem. Phys. 152, 184102 (2020)
                               doi:10.1063/5.0004997

                                      AUTHORS
                                      -------
  E. Apra, E. J. Bylaska, N. Govind, K. Kowalski, M. Valiev, D. Mejia-Rodriguez,
       A. Kunitsa, N. P. Bauman, A. Panyala, W. A. de Jong, T. P. Straatsma,
   H. J. J. van Dam, D. Wang, T. L. Windus, J. Hammond, J. Autschbach, A. Woods,
    K. Bhaskaran-Nair, J. Brabec, K. Lopata, S. A. Fischer, S. Krishnamoorthy,
     M. Jacquelin, W. Ma, M. Klemm, O. Villa, Y. Chen, V. Anisimov, F. Aquino,
     S. Hirata, M. T. Hackler, E. Hermes, L. Jensen, J. E. Moore, J. C. Becca,
      V. Konjkov, T. Risthaus, M. Malagoli, A. Marenich, A. Otero-de-la-Roza,
        J. Mullin, P. Nichols, R. Peverati, J. Pittner, Y. Zhao, P.-D. Fan,
        A. Fonari, M. J. Williamson, R. J. Harrison, J. R. Rehr, M. Dupuis,
     D. Silverstein, D. M. A. Smith, J. Nieplocha, V. Tipparaju, M. Krishnan,
     B. E. Van Kuiken, A. Vazquez-Mayagoitia, M. Swart, Q. Wu, T. Van Voorhis,
     A. A. Auer, M. Nooijen, L. D. Crosby, E. Brown, G. Cisneros, G. I. Fann,
   H. Fruchtl, J. Garza, K. Hirao, R. A. Kendall, J. A. Nichols, K. Tsemekhman,
    K. Wolinski, J. Anchell, D. E. Bernholdt, P. Borowski, T. Clark, D. Clerc,
   H. Dachsel, M. J. O. Deegan, K. Dyall, D. Elwood, E. Glendening, M. Gutowski,
   A. C. Hess, J. Jaffe, B. G. Johnson, J. Ju, R. Kobayashi, R. Kutteh, Z. Lin,
   R. Littlefield, X. Long, B. Meng, T. Nakajima, S. Niu, L. Pollack, M. Rosing,
   K. Glaesemann, G. Sandrone, M. Stave, H. Taylor, G. Thomas, J. H. van Lenthe,
                               A. T. Wong, Z. Zhang.

 Total times  cpu:    12178.4s     wall:    12265.7s
