export TMOUT=5400
export TMPDIR=/tmp
export PTMPDIR=/tmp/ptmp
 argument  1 = ALA_PRO_1.nw
                                         
                                         


             Northwest Computational Chemistry Package (NWChem) 7.2.0
             --------------------------------------------------------


                    Environmental Molecular Sciences Laboratory
                       Pacific Northwest National Laboratory
                                Richland, WA 99352

                              Copyright (c) 1994-2022
                       Pacific Northwest National Laboratory
                            Battelle Memorial Institute

             NWChem is an open-source computational chemistry package
                        distributed under the terms of the
                      Educational Community License (ECL) 2.0
             A copy of the license is included with this distribution
                              in the LICENSE.TXT file

                                  ACKNOWLEDGMENT
                                  --------------

            This software and its documentation were developed at the
            EMSL at Pacific Northwest National Laboratory, a multiprogram
            national laboratory, operated for the U.S. Department of Energy
            by Battelle under Contract Number DE-AC05-76RL01830. Support
            for this work was provided by the Department of Energy Office
            of Biological and Environmental Research, Office of Basic
            Energy Sciences, and the Office of Advanced Scientific Computing.


           Job information
           ---------------

    hostname        = nova18-41
    program         = /opt/rit/el9/20230413/app/linux-rhel9-x86_64_v3/gcc-11.2.1/nwchem-7.2.0-oxtctbuhfuzyfaoziquq6bki22grib3g/bin/nwchem
    date            = Mon Jun 30 10:46:04 2025

    compiled        = Wed_May_17_23:46:39_2023
    source          = /tmp/root/spack-stage/spack-stage-nwchem-7.2.0-oxtctbuhfuzyfaoziquq6bki22grib3g/spack-src
    nwchem branch   = 7.2.0
    nwchem revision = d0d141fd
    ga revision     = 5.8.0
    use scalapack   = T
    input           = ALA_PRO_1.nw
    prefix          = ALA_PRO_1.
    data base       = ./ALA_PRO_1.db
    status          = startup
    nproc           =        8
    time left       =     -1s



           Memory information
           ------------------

    heap     =   26214400 doubles =    200.0 Mbytes
    stack    =   26214397 doubles =    200.0 Mbytes
    global   =   52428800 doubles =    400.0 Mbytes (distinct from heap & stack)
    total    =  104857597 doubles =    800.0 Mbytes
    verify   = yes
    hardfail = no 


           Directory information
           ---------------------

  0 permanent = .
  0 scratch   = .




                                NWChem Input Module
                                -------------------



 Scaling coordinates for geometry "geometry" by  1.889725989
 (inverse scale =  0.529177249)

 C1  symmetry detected

          ------
          auto-z
          ------
  no constraints, skipping    0.0000000000000000     
  no constraints, skipping    0.0000000000000000     


                             Geometry "geometry" -> ""
                             -------------------------

 Output coordinates in angstroms (scale by  1.889725989 to convert to a.u.)

  No.       Tag          Charge          X              Y              Z
 ---- ---------------- ---------- -------------- -------------- --------------
    1 H                    1.0000     0.77418821     4.91775782    -1.78259254
    2 C                    6.0000    -0.04316119     4.59076491    -1.14168492
    3 H                    1.0000    -0.92905458     4.40826901    -1.74631386
    4 H                    1.0000    -0.25049272     5.35569102    -0.39473466
    5 C                    6.0000     0.36006770     3.30984104    -0.45055432
    6 O                    8.0000     1.45827960     2.81199097    -0.66380752
    7 N                    7.0000    -0.52655524     2.77459578     0.38457517
    8 H                    1.0000    -1.42537980     3.21413580     0.48155444
    9 C                    6.0000    -0.31692979     1.47868952     1.02873520
   10 H                    1.0000     0.69315475     1.47579545     1.43781079
   11 C                    6.0000    -1.30182190     1.33744088     2.19548169
   12 H                    1.0000    -2.32723350     1.35380048     1.82220778
   13 H                    1.0000    -1.12754102     0.39138745     2.71052254
   14 H                    1.0000    -1.16053719     2.15535474     2.90259452
   15 C                    6.0000    -0.46282443     0.31603259     0.01542152
   16 O                    8.0000    -1.37981022     0.35434350    -0.81033773
   17 N                    7.0000     0.37562483    -0.73968661     0.08407152
   18 C                    6.0000     1.51192158    -0.87185070     0.98840739
   19 H                    1.0000     1.20480141    -0.77451475     2.03095806
   20 H                    1.0000     2.25868364    -0.11453524     0.74280462
   21 C                    6.0000     2.09810228    -2.26192472     0.74178541
   22 H                    1.0000     1.61269104    -2.98991656     1.39426516
   23 H                    1.0000     3.17881111    -2.27727905     0.88604795
   24 C                    6.0000     1.71434187    -2.53229094    -0.71195323
   25 H                    1.0000     1.71506356    -3.59778267    -0.94757123
   26 H                    1.0000     2.40597610    -2.00575920    -1.37156783
   27 C                    6.0000     0.32285243    -1.89279629    -0.81970175
   28 H                    1.0000     0.17464487    -1.54907832    -1.84498682
   29 C                    6.0000    -0.83326665    -2.85394311    -0.47065526
   30 O                    8.0000    -0.63571863    -3.97515403    -0.01932074
   31 N                    7.0000    -2.07388599    -2.42072064    -0.64532911
   32 H                    1.0000    -2.22603234    -1.47557288    -0.97254493
   33 H                    1.0000    -2.83572612    -3.03629541    -0.41563947

      Atomic Mass 
      ----------- 

      H                  1.007825
      C                 12.000000
      O                 15.994910
      N                 14.003070


 Effective nuclear repulsion energy (a.u.)    1189.3682490660

            Nuclear Dipole moment (a.u.) 
            ----------------------------
        X                 Y               Z
 ---------------- ---------------- ----------------
    -0.0000000000    -0.0000000000     0.0000000000



                                Z-matrix (autoz)
                                -------- 

 Units are Angstrom for bonds and degrees for angles

      Type          Name      I     J     K     L     M      Value
      ----------- --------  ----- ----- ----- ----- ----- ----------
    1 Stretch                  1     2                       1.08892
    2 Stretch                  2     3                       1.08797
    3 Stretch                  2     4                       1.08905
    4 Stretch                  2     5                       1.51030
    5 Stretch                  5     6                       1.22450
    6 Stretch                  5     7                       1.33042
    7 Stretch                  7     8                       1.00523
    8 Stretch                  7     9                       1.46228
    9 Stretch                  9    10                       1.08978
   10 Stretch                  9    11                       1.53338
   11 Stretch                  9    15                       1.54915
   12 Stretch                 11    12                       1.09136
   13 Stretch                 11    13                       1.09117
   14 Stretch                 11    14                       1.09039
   15 Stretch                 15    16                       1.23459
   16 Stretch                 15    17                       1.34991
   17 Stretch                 17    18                       1.45824
   18 Stretch                 17    27                       1.46603
   19 Stretch                 18    19                       1.09120
   20 Stretch                 18    20                       1.09156
   21 Stretch                 18    21                       1.52864
   22 Stretch                 21    22                       1.09148
   23 Stretch                 21    23                       1.09040
   24 Stretch                 21    24                       1.52765
   25 Stretch                 24    25                       1.09123
   26 Stretch                 24    26                       1.09119
   27 Stretch                 24    27                       1.53519
   28 Stretch                 27    28                       1.09147
   29 Stretch                 27    29                       1.54345
   30 Stretch                 29    30                       1.22468
   31 Stretch                 29    31                       1.32564
   32 Stretch                 31    32                       1.01169
   33 Stretch                 31    33                       1.00603
   34 Bend                     1     2     3               109.54009
   35 Bend                     1     2     4               109.61304
   36 Bend                     1     2     5               108.88196
   37 Bend                     2     5     6               120.30342
   38 Bend                     2     5     7               116.77798
   39 Bend                     3     2     4               110.11861
   40 Bend                     3     2     5               109.23498
   41 Bend                     4     2     5               109.43086
   42 Bend                     5     7     8               118.71978
   43 Bend                     5     7     9               122.51523
   44 Bend                     6     5     7               122.91817
   45 Bend                     7     9    10               107.49270
   46 Bend                     7     9    11               108.95025
   47 Bend                     7     9    15               111.31376
   48 Bend                     8     7     9               118.24135
   49 Bend                     9    11    12               109.99020
   50 Bend                     9    11    13               109.65928
   51 Bend                     9    11    14               109.94491
   52 Bend                     9    15    16               118.95774
   53 Bend                     9    15    17               119.68242
   54 Bend                    10     9    11               108.02686
   55 Bend                    10     9    15               109.31935
   56 Bend                    11     9    15               111.59765
   57 Bend                    12    11    13               108.93542
   58 Bend                    12    11    14               109.40845
   59 Bend                    13    11    14               108.87844
   60 Bend                    15    17    18               125.90253
   61 Bend                    15    17    27               124.15451
   62 Bend                    16    15    17               121.30640
   63 Bend                    17    18    19               111.41435
   64 Bend                    17    18    20               109.30948
   65 Bend                    17    18    21               106.33011
   66 Bend                    17    27    24               104.58101
   67 Bend                    17    27    28               109.65068
   68 Bend                    17    27    29               112.16990
   69 Bend                    18    17    27               109.82043
   70 Bend                    18    21    22               109.84861
   71 Bend                    18    21    23               111.80918
   72 Bend                    18    21    24               102.59963
   73 Bend                    19    18    20               110.22043
   74 Bend                    19    18    21               110.07105
   75 Bend                    20    18    21               109.40627
   76 Bend                    21    24    25               112.21680
   77 Bend                    21    24    26               109.30645
   78 Bend                    21    24    27               102.75378
   79 Bend                    22    21    23               110.62762
   80 Bend                    22    21    24               109.82253
   81 Bend                    23    21    24               111.86273
   82 Bend                    24    27    28               108.67410
   83 Bend                    24    27    29               113.80720
   84 Bend                    25    24    26               109.88959
   85 Bend                    25    24    27               113.08999
   86 Bend                    26    24    27               109.33426
   87 Bend                    27    29    30               122.18329
   88 Bend                    27    29    31               117.88504
   89 Bend                    28    27    29               107.86800
   90 Bend                    29    31    32               119.25292
   91 Bend                    29    31    33               118.59770
   92 Bend                    30    29    31               119.91477
   93 Bend                    32    31    33               122.11353
   94 Torsion                  1     2     5     6          -0.27475
   95 Torsion                  1     2     5     7         179.49541
   96 Torsion                  2     5     7     8           2.92100
   97 Torsion                  2     5     7     9         174.46908
   98 Torsion                  3     2     5     6         119.31118
   99 Torsion                  3     2     5     7         -60.91865
  100 Torsion                  4     2     5     6        -120.06560
  101 Torsion                  4     2     5     7          59.70456
  102 Torsion                  5     7     9    10          47.57587
  103 Torsion                  5     7     9    11         164.40127
  104 Torsion                  5     7     9    15         -72.11388
  105 Torsion                  6     5     7     8        -177.31538
  106 Torsion                  6     5     7     9          -5.76731
  107 Torsion                  7     9    11    12          62.55425
  108 Torsion                  7     9    11    13        -177.66782
  109 Torsion                  7     9    11    14         -57.98806
  110 Torsion                  7     9    15    16         -42.12171
  111 Torsion                  7     9    15    17         140.50178
  112 Torsion                  8     7     9    10        -140.83758
  113 Torsion                  8     7     9    11         -24.01218
  114 Torsion                  8     7     9    15          99.47267
  115 Torsion                  9    15    17    18          -4.66275
  116 Torsion                  9    15    17    27         179.77679
  117 Torsion                 10     9    11    12         179.03882
  118 Torsion                 10     9    11    13         -61.18325
  119 Torsion                 10     9    11    14          58.49651
  120 Torsion                 10     9    15    16        -160.72130
  121 Torsion                 10     9    15    17          21.90219
  122 Torsion                 11     9    15    16          79.84105
  123 Torsion                 11     9    15    17         -97.53545
  124 Torsion                 12    11     9    15         -60.76138
  125 Torsion                 13    11     9    15          59.01655
  126 Torsion                 14    11     9    15         178.69631
  127 Torsion                 15    17    18    19          57.05604
  128 Torsion                 15    17    18    20         -65.00395
  129 Torsion                 15    17    18    21         176.99236
  130 Torsion                 15    17    27    24         159.66964
  131 Torsion                 15    17    27    28          43.29837
  132 Torsion                 15    17    27    29         -76.52399
  133 Torsion                 16    15    17    18         178.02397
  134 Torsion                 16    15    17    27           2.46351
  135 Torsion                 17    18    21    22         -89.31221
  136 Torsion                 17    18    21    23         147.46702
  137 Torsion                 17    18    21    24          27.43842
  138 Torsion                 17    27    24    21          33.12932
  139 Torsion                 17    27    24    25         154.32327
  140 Torsion                 17    27    24    26         -82.88920
  141 Torsion                 17    27    29    30        -111.41004
  142 Torsion                 17    27    29    31          67.09221
  143 Torsion                 18    17    27    24         -16.50880
  144 Torsion                 18    17    27    28        -132.88007
  145 Torsion                 18    17    27    29         107.29757
  146 Torsion                 18    21    24    25        -158.48472
  147 Torsion                 18    21    24    26          79.34262
  148 Torsion                 18    21    24    27         -36.69587
  149 Torsion                 19    18    17    27        -126.84826
  150 Torsion                 19    18    21    22          31.49229
  151 Torsion                 19    18    21    23         -91.72849
  152 Torsion                 19    18    21    24         148.24291
  153 Torsion                 20    18    17    27         111.09175
  154 Torsion                 20    18    21    22         152.74814
  155 Torsion                 20    18    21    23          29.52737
  156 Torsion                 20    18    21    24         -90.50123
  157 Torsion                 21    18    17    27          -6.91194
  158 Torsion                 21    24    27    28         150.17510
  159 Torsion                 21    24    27    29         -89.61865
  160 Torsion                 22    21    24    25         -41.71543
  161 Torsion                 22    21    24    26        -163.88809
  162 Torsion                 22    21    24    27          80.07342
  163 Torsion                 23    21    24    25          81.52383
  164 Torsion                 23    21    24    26         -40.64883
  165 Torsion                 23    21    24    27        -156.68732
  166 Torsion                 24    27    29    30           7.07379
  167 Torsion                 24    27    29    31        -174.42396
  168 Torsion                 25    24    27    28         -88.63094
  169 Torsion                 25    24    27    29          31.57530
  170 Torsion                 26    24    27    28          34.15658
  171 Torsion                 26    24    27    29         154.36282
  172 Torsion                 27    29    31    32          -1.74531
  173 Torsion                 27    29    31    33        -179.61431
  174 Torsion                 28    27    29    30         127.73307
  175 Torsion                 28    27    29    31         -53.76469
  176 Torsion                 30    29    31    32         176.79223
  177 Torsion                 30    29    31    33          -1.07677


            XYZ format geometry
            -------------------
    33
 geometry
 H                     0.77418821     4.91775782    -1.78259254
 C                    -0.04316119     4.59076491    -1.14168492
 H                    -0.92905458     4.40826901    -1.74631386
 H                    -0.25049272     5.35569102    -0.39473466
 C                     0.36006770     3.30984104    -0.45055432
 O                     1.45827960     2.81199097    -0.66380752
 N                    -0.52655524     2.77459578     0.38457517
 H                    -1.42537980     3.21413580     0.48155444
 C                    -0.31692979     1.47868952     1.02873520
 H                     0.69315475     1.47579545     1.43781079
 C                    -1.30182190     1.33744088     2.19548169
 H                    -2.32723350     1.35380048     1.82220778
 H                    -1.12754102     0.39138745     2.71052254
 H                    -1.16053719     2.15535474     2.90259452
 C                    -0.46282443     0.31603259     0.01542152
 O                    -1.37981022     0.35434350    -0.81033773
 N                     0.37562483    -0.73968661     0.08407152
 C                     1.51192158    -0.87185070     0.98840739
 H                     1.20480141    -0.77451475     2.03095806
 H                     2.25868364    -0.11453524     0.74280462
 C                     2.09810228    -2.26192472     0.74178541
 H                     1.61269104    -2.98991656     1.39426516
 H                     3.17881111    -2.27727905     0.88604795
 C                     1.71434187    -2.53229094    -0.71195323
 H                     1.71506356    -3.59778267    -0.94757123
 H                     2.40597610    -2.00575920    -1.37156783
 C                     0.32285243    -1.89279629    -0.81970175
 H                     0.17464487    -1.54907832    -1.84498682
 C                    -0.83326665    -2.85394311    -0.47065526
 O                    -0.63571863    -3.97515403    -0.01932074
 N                    -2.07388599    -2.42072064    -0.64532911
 H                    -2.22603234    -1.47557288    -0.97254493
 H                    -2.83572612    -3.03629541    -0.41563947

 ==============================================================================
                                internuclear distances
 ------------------------------------------------------------------------------
       center one      |      center two      | atomic units |  angstroms
 ------------------------------------------------------------------------------
    2 C                |   1 H                |     2.05776  |     1.08892
    3 H                |   2 C                |     2.05597  |     1.08797
    4 H                |   2 C                |     2.05801  |     1.08905
    5 C                |   2 C                |     2.85406  |     1.51030
    6 O                |   5 C                |     2.31397  |     1.22450
    7 N                |   5 C                |     2.51414  |     1.33042
    8 H                |   7 N                |     1.89961  |     1.00523
    9 C                |   7 N                |     2.76331  |     1.46228
   10 H                |   9 C                |     2.05939  |     1.08978
   11 C                |   9 C                |     2.89767  |     1.53338
   12 H                |  11 C                |     2.06237  |     1.09136
   13 H                |  11 C                |     2.06202  |     1.09117
   14 H                |  11 C                |     2.06054  |     1.09039
   15 C                |   9 C                |     2.92747  |     1.54915
   16 O                |  15 C                |     2.33303  |     1.23459
   17 N                |  15 C                |     2.55096  |     1.34991
   18 C                |  17 N                |     2.75567  |     1.45824
   19 H                |  18 C                |     2.06206  |     1.09120
   20 H                |  18 C                |     2.06275  |     1.09156
   21 C                |  18 C                |     2.88871  |     1.52864
   22 H                |  21 C                |     2.06260  |     1.09148
   23 H                |  21 C                |     2.06056  |     1.09040
   24 C                |  21 C                |     2.88685  |     1.52765
   25 H                |  24 C                |     2.06213  |     1.09123
   26 H                |  24 C                |     2.06204  |     1.09119
   27 C                |  17 N                |     2.77040  |     1.46603
   27 C                |  24 C                |     2.90109  |     1.53519
   28 H                |  27 C                |     2.06259  |     1.09147
   29 C                |  27 C                |     2.91670  |     1.54345
   30 O                |  29 C                |     2.31431  |     1.22468
   31 N                |  29 C                |     2.50510  |     1.32564
   32 H                |  31 N                |     1.91182  |     1.01169
   33 H                |  31 N                |     1.90112  |     1.00603
 ------------------------------------------------------------------------------
                         number of included internuclear distances:         33
 ==============================================================================



 ==============================================================================
                                 internuclear angles
 ------------------------------------------------------------------------------
        center 1       |       center 2       |       center 3       |  degrees
 ------------------------------------------------------------------------------
    1 H                |   2 C                |   3 H                |   109.54
    1 H                |   2 C                |   4 H                |   109.61
    1 H                |   2 C                |   5 C                |   108.88
    3 H                |   2 C                |   4 H                |   110.12
    3 H                |   2 C                |   5 C                |   109.23
    4 H                |   2 C                |   5 C                |   109.43
    2 C                |   5 C                |   6 O                |   120.30
    2 C                |   5 C                |   7 N                |   116.78
    6 O                |   5 C                |   7 N                |   122.92
    5 C                |   7 N                |   8 H                |   118.72
    5 C                |   7 N                |   9 C                |   122.52
    8 H                |   7 N                |   9 C                |   118.24
    7 N                |   9 C                |  10 H                |   107.49
    7 N                |   9 C                |  11 C                |   108.95
    7 N                |   9 C                |  15 C                |   111.31
   10 H                |   9 C                |  11 C                |   108.03
   10 H                |   9 C                |  15 C                |   109.32
   11 C                |   9 C                |  15 C                |   111.60
    9 C                |  11 C                |  12 H                |   109.99
    9 C                |  11 C                |  13 H                |   109.66
    9 C                |  11 C                |  14 H                |   109.94
   12 H                |  11 C                |  13 H                |   108.94
   12 H                |  11 C                |  14 H                |   109.41
   13 H                |  11 C                |  14 H                |   108.88
    9 C                |  15 C                |  16 O                |   118.96
    9 C                |  15 C                |  17 N                |   119.68
   16 O                |  15 C                |  17 N                |   121.31
   15 C                |  17 N                |  18 C                |   125.90
   15 C                |  17 N                |  27 C                |   124.15
   18 C                |  17 N                |  27 C                |   109.82
   17 N                |  18 C                |  19 H                |   111.41
   17 N                |  18 C                |  20 H                |   109.31
   17 N                |  18 C                |  21 C                |   106.33
   19 H                |  18 C                |  20 H                |   110.22
   19 H                |  18 C                |  21 C                |   110.07
   20 H                |  18 C                |  21 C                |   109.41
   18 C                |  21 C                |  22 H                |   109.85
   18 C                |  21 C                |  23 H                |   111.81
   18 C                |  21 C                |  24 C                |   102.60
   22 H                |  21 C                |  23 H                |   110.63
   22 H                |  21 C                |  24 C                |   109.82
   23 H                |  21 C                |  24 C                |   111.86
   21 C                |  24 C                |  25 H                |   112.22
   21 C                |  24 C                |  26 H                |   109.31
   21 C                |  24 C                |  27 C                |   102.75
   25 H                |  24 C                |  26 H                |   109.89
   25 H                |  24 C                |  27 C                |   113.09
   26 H                |  24 C                |  27 C                |   109.33
   17 N                |  27 C                |  24 C                |   104.58
   17 N                |  27 C                |  28 H                |   109.65
   17 N                |  27 C                |  29 C                |   112.17
   24 C                |  27 C                |  28 H                |   108.67
   24 C                |  27 C                |  29 C                |   113.81
   28 H                |  27 C                |  29 C                |   107.87
   27 C                |  29 C                |  30 O                |   122.18
   27 C                |  29 C                |  31 N                |   117.89
   30 O                |  29 C                |  31 N                |   119.91
   29 C                |  31 N                |  32 H                |   119.25
   29 C                |  31 N                |  33 H                |   118.60
   32 H                |  31 N                |  33 H                |   122.11
 ------------------------------------------------------------------------------
                            number of included internuclear angles:         60
 ==============================================================================



  library name resolved from: environment
  library file name is: </opt/rit/el9/20230413/app/linux-rhel9-x86_64_v3/gcc-11.2.1/nwchem-7.2.0-oxtctbuhfuzyfaoziquq6bki22grib3g/share/nwchem/libraries/>
  


 Summary of "ao basis" -> "" (cartesian)
 ------------------------------------------------------------------------------
       Tag                 Description            Shells   Functions and Types
 ---------------- ------------------------------  ------  ---------------------
 *                        aug-cc-pvdz                 on all atoms 


                      Basis "ao basis" -> "ao basis" (cartesian)
                      -----
  H (Hydrogen)
  ------------
            Exponent  Coefficients 
       -------------- ---------------------------------------------------------
  1 S  1.30100000E+01  0.019685
  1 S  1.96200000E+00  0.137977
  1 S  4.44600000E-01  0.478148

  2 S  1.22000000E-01  1.000000

  3 S  2.97400000E-02  1.000000

  4 P  7.27000000E-01  1.000000

  5 P  1.41000000E-01  1.000000

  C (Carbon)
  ----------
            Exponent  Coefficients 
       -------------- ---------------------------------------------------------
  1 S  6.66500000E+03  0.000692
  1 S  1.00000000E+03  0.005329
  1 S  2.28000000E+02  0.027077
  1 S  6.47100000E+01  0.101718
  1 S  2.10600000E+01  0.274740
  1 S  7.49500000E+00  0.448564
  1 S  2.79700000E+00  0.285074
  1 S  5.21500000E-01  0.015204

  2 S  6.66500000E+03 -0.000146
  2 S  1.00000000E+03 -0.001154
  2 S  2.28000000E+02 -0.005725
  2 S  6.47100000E+01 -0.023312
  2 S  2.10600000E+01 -0.063955
  2 S  7.49500000E+00 -0.149981
  2 S  2.79700000E+00 -0.127262
  2 S  5.21500000E-01  0.544529

  3 S  1.59600000E-01  1.000000

  4 S  4.69000000E-02  1.000000

  5 P  9.43900000E+00  0.038109
  5 P  2.00200000E+00  0.209480
  5 P  5.45600000E-01  0.508557

  6 P  1.51700000E-01  1.000000

  7 P  4.04100000E-02  1.000000

  8 D  5.50000000E-01  1.000000

  9 D  1.51000000E-01  1.000000

  O (Oxygen)
  ----------
            Exponent  Coefficients 
       -------------- ---------------------------------------------------------
  1 S  1.17200000E+04  0.000710
  1 S  1.75900000E+03  0.005470
  1 S  4.00800000E+02  0.027837
  1 S  1.13700000E+02  0.104800
  1 S  3.70300000E+01  0.283062
  1 S  1.32700000E+01  0.448719
  1 S  5.02500000E+00  0.270952
  1 S  1.01300000E+00  0.015458

  2 S  1.17200000E+04 -0.000160
  2 S  1.75900000E+03 -0.001263
  2 S  4.00800000E+02 -0.006267
  2 S  1.13700000E+02 -0.025716
  2 S  3.70300000E+01 -0.070924
  2 S  1.32700000E+01 -0.165411
  2 S  5.02500000E+00 -0.116955
  2 S  1.01300000E+00  0.557368

  3 S  3.02300000E-01  1.000000

  4 S  7.89600000E-02  1.000000

  5 P  1.77000000E+01  0.043018
  5 P  3.85400000E+00  0.228913
  5 P  1.04600000E+00  0.508728

  6 P  2.75300000E-01  1.000000

  7 P  6.85600000E-02  1.000000

  8 D  1.18500000E+00  1.000000

  9 D  3.32000000E-01  1.000000

  N (Nitrogen)
  ------------
            Exponent  Coefficients 
       -------------- ---------------------------------------------------------
  1 S  9.04600000E+03  0.000700
  1 S  1.35700000E+03  0.005389
  1 S  3.09300000E+02  0.027406
  1 S  8.77300000E+01  0.103207
  1 S  2.85600000E+01  0.278723
  1 S  1.02100000E+01  0.448540
  1 S  3.83800000E+00  0.278238
  1 S  7.46600000E-01  0.015440

  2 S  9.04600000E+03 -0.000153
  2 S  1.35700000E+03 -0.001208
  2 S  3.09300000E+02 -0.005992
  2 S  8.77300000E+01 -0.024544
  2 S  2.85600000E+01 -0.067459
  2 S  1.02100000E+01 -0.158078
  2 S  3.83800000E+00 -0.121831
  2 S  7.46600000E-01  0.549003

  3 S  2.24800000E-01  1.000000

  4 S  6.12400000E-02  1.000000

  5 P  1.35500000E+01  0.039919
  5 P  2.91700000E+00  0.217169
  5 P  7.97300000E-01  0.510319

  6 P  2.18500000E-01  1.000000

  7 P  5.61100000E-02  1.000000

  8 D  8.17000000E-01  1.000000

  9 D  2.30000000E-01  1.000000



 Summary of "ao basis" -> "ao basis" (cartesian)
 ------------------------------------------------------------------------------
       Tag                 Description            Shells   Functions and Types
 ---------------- ------------------------------  ------  ---------------------
 H                        aug-cc-pvdz                5        9   3s2p
 C                        aug-cc-pvdz                9       25   4s3p2d
 O                        aug-cc-pvdz                9       25   4s3p2d
 N                        aug-cc-pvdz                9       25   4s3p2d


                                 NWChem SCF Module
                                 -----------------



  ao basis        = "ao basis"
  functions       =   553
  atoms           =    33
  closed shells   =    61
  open shells     =     0
  charge          =   0.00
  wavefunction    = RHF 
  input vectors   = atomic
  output vectors  = ./ALA_PRO_1.movecs
  use symmetry    = F
  symmetry adapt  = F


 Summary of "ao basis" -> "ao basis" (cartesian)
 ------------------------------------------------------------------------------
       Tag                 Description            Shells   Functions and Types
 ---------------- ------------------------------  ------  ---------------------
 H                        aug-cc-pvdz                5        9   3s2p
 C                        aug-cc-pvdz                9       25   4s3p2d
 O                        aug-cc-pvdz                9       25   4s3p2d
 N                        aug-cc-pvdz                9       25   4s3p2d



 Forming initial guess at       1.0s


 !! The overlap matrix has   5 vectors deemed linearly dependent with
    eigenvalues:
 2.19D-06 5.22D-06 5.86D-06 8.18D-06 9.95D-06


      Superposition of Atomic Density Guess
      -------------------------------------

 Sum of atomic energies:        -772.36748674

      Non-variational initial energy
      ------------------------------

 Total energy =    -783.176016
 1-e energy   =   -3411.318465
 2-e energy   =    1438.774200
 HOMO         =      -0.283824
 LUMO         =       0.004748


 Starting SCF solution at     224.0s



 ----------------------------------------------
         Quadratically convergent ROHF

 Convergence threshold     :          1.000E-04
 Maximum no. of iterations :           30
 Final Fock-matrix accuracy:          1.000E-10
 ----------------------------------------------


              iter       energy          gnorm     gmax       time
             ----- ------------------- --------- --------- --------
                 1     -776.3195039464  2.39D+00  1.79D-01    478.7
                 2     -776.6263002492  8.22D-01  4.51D-02   1023.4
                 3     -776.6856026444  6.46D-02  3.68D-03   1898.6
                 4     -776.6862441190  1.89D-03  9.86D-05   3158.6
                 5     -776.6862445872  5.30D-06  3.89D-07   4801.8


       Final RHF  results 
       ------------------ 

         Total SCF energy =   -776.686244587233
      One-electron energy =  -3423.178610633348
      Two-electron energy =   1457.124116980112
 Nuclear repulsion energy =   1189.368249066004

        Time for solution =   4581.4s


             Final eigenvalues
             -----------------

              1      
    1  -20.5379
    2  -20.5270
    3  -20.5167
    4  -15.6098
    5  -15.6036
    6  -15.5770
    7  -11.3702
    8  -11.3567
    9  -11.3480
   10  -11.3065
   11  -11.2904
   12  -11.2780
   13  -11.2559
   14  -11.2440
   15  -11.2378
   16  -11.2368
   17   -1.3995
   18   -1.3869
   19   -1.3775
   20   -1.2752
   21   -1.2516
   22   -1.2072
   23   -1.0897
   24   -1.0617
   25   -1.0202
   26   -0.9972
   27   -0.9200
   28   -0.8808
   29   -0.8373
   30   -0.8155
   31   -0.7888
   32   -0.7542
   33   -0.7317
   34   -0.7235
   35   -0.6883
   36   -0.6830
   37   -0.6696
   38   -0.6490
   39   -0.6432
   40   -0.6190
   41   -0.6171
   42   -0.5948
   43   -0.5878
   44   -0.5789
   45   -0.5780
   46   -0.5691
   47   -0.5687
   48   -0.5509
   49   -0.5390
   50   -0.5371
   51   -0.5230
   52   -0.5126
   53   -0.4964
   54   -0.4883
   55   -0.4860
   56   -0.4399
   57   -0.4277
   58   -0.4243
   59   -0.4030
   60   -0.3991
   61   -0.3767
   62    0.0261
   63    0.0373
   64    0.0403
   65    0.0414
   66    0.0512
   67    0.0540
   68    0.0573
   69    0.0593
   70    0.0623
   71    0.0712

                       ROHF Final Molecular Orbital Analysis
                       -------------------------------------

 Vector   17  Occ=2.000000D+00  E=-1.399466D+00
              MO Center= -6.0D-01,  5.3D-01, -4.2D-01, r^2= 3.1D+00
   Bfn.  Coefficient  Atom+Function         Bfn.  Coefficient  Atom+Function  
  ----- ------------  ---------------      ----- ------------  ---------------
   250      0.335056  16 O  s               249      0.304036  16 O  s         
   224      0.216618  15 C  s               139      0.155841   9 C  s         

 Vector   18  Occ=2.000000D+00  E=-1.386866D+00
              MO Center=  5.9D-01,  2.2D+00, -4.8D-01, r^2= 4.1D+00
   Bfn.  Coefficient  Atom+Function         Bfn.  Coefficient  Atom+Function  
  ----- ------------  ---------------      ----- ------------  ---------------
    80      0.319519   6 O  s                79      0.316747   6 O  s         
    54      0.223143   5 C  s         

 Vector   19  Occ=2.000000D+00  E=-1.377469D+00
              MO Center= -8.1D-01, -3.1D+00, -2.4D-01, r^2= 2.6D+00
   Bfn.  Coefficient  Atom+Function         Bfn.  Coefficient  Atom+Function  
  ----- ------------  ---------------      ----- ------------  ---------------
   488      0.364959  30 O  s               487      0.338911  30 O  s         
   462      0.233665  29 C  s         

 Vector   20  Occ=2.000000D+00  E=-1.275151D+00
              MO Center=  2.8D-01, -7.9D-01, -1.8D-02, r^2= 2.1D+00
   Bfn.  Coefficient  Atom+Function         Bfn.  Coefficient  Atom+Function  
  ----- ------------  ---------------      ----- ------------  ---------------
   275      0.358405  17 N  s               274      0.313681  17 N  s         
   250     -0.214856  16 O  s               249     -0.176107  16 O  s         

 Vector   21  Occ=2.000000D+00  E=-1.251617D+00
              MO Center= -2.0D-01,  2.7D+00,  2.2D-01, r^2= 1.7D+00
   Bfn.  Coefficient  Atom+Function         Bfn.  Coefficient  Atom+Function  
  ----- ------------  ---------------      ----- ------------  ---------------
   105      0.445751   7 N  s               104      0.342296   7 N  s         
    80     -0.221098   6 O  s                79     -0.189151   6 O  s         
    57     -0.175721   5 C  px              128      0.157723   8 H  s         

 Vector   22  Occ=2.000000D+00  E=-1.207194D+00
              MO Center= -1.7D+00, -2.6D+00, -5.5D-01, r^2= 1.4D+00
   Bfn.  Coefficient  Atom+Function         Bfn.  Coefficient  Atom+Function  
  ----- ------------  ---------------      ----- ------------  ---------------
   513      0.386823  31 N  s               512      0.370227  31 N  s         
   488     -0.218408  30 O  s               487     -0.180343  30 O  s         
   536      0.164212  32 H  s               545      0.157868  33 H  s         
   465     -0.150309  29 C  px        

 Vector   23  Occ=2.000000D+00  E=-1.089745D+00
              MO Center=  6.6D-01, -6.8D-01,  1.9D-01, r^2= 6.3D+00
   Bfn.  Coefficient  Atom+Function         Bfn.  Coefficient  Atom+Function  
  ----- ------------  ---------------      ----- ------------  ---------------
   385      0.194010  24 C  s               342      0.176151  21 C  s         

 Vector   24  Occ=2.000000D+00  E=-1.061686D+00
              MO Center=  7.4D-02,  8.7D-01,  6.7D-01, r^2= 7.9D+00
   Bfn.  Coefficient  Atom+Function         Bfn.  Coefficient  Atom+Function  
  ----- ------------  ---------------      ----- ------------  ---------------
   300      0.205213  18 C  s               172      0.197498  11 C  s         
   138      0.193593   9 C  s                12     -0.156829   2 C  s         

 Vector   25  Occ=2.000000D+00  E=-1.020157D+00
              MO Center=  7.9D-01, -1.4D+00,  4.0D-02, r^2= 4.3D+00
   Bfn.  Coefficient  Atom+Function         Bfn.  Coefficient  Atom+Function  
  ----- ------------  ---------------      ----- ------------  ---------------
   428     -0.254693  27 C  s               299      0.239465  18 C  s         
   300      0.157418  18 C  s         

 Vector   26  Occ=2.000000D+00  E=-9.971922D-01
              MO Center= -2.2D-01,  3.6D+00, -3.6D-01, r^2= 5.1D+00
   Bfn.  Coefficient  Atom+Function         Bfn.  Coefficient  Atom+Function  
  ----- ------------  ---------------      ----- ------------  ---------------
    11      0.320391   2 C  s                56     -0.186204   5 C  s         
   172      0.165493  11 C  s               146      0.160857   9 C  pz        
    13      0.152928   2 C  s               174      0.152732  11 C  s         

 Vector   27  Occ=2.000000D+00  E=-9.200487D-01
              MO Center=  1.1D-01, -1.4D-01,  5.9D-01, r^2= 6.9D+00
   Bfn.  Coefficient  Atom+Function         Bfn.  Coefficient  Atom+Function  
  ----- ------------  ---------------      ----- ------------  ---------------
   146      0.246927   9 C  pz              139     -0.220482   9 C  s         
   172      0.186682  11 C  s               224     -0.179965  15 C  s         
   385     -0.162665  24 C  s                13      0.161450   2 C  s         
   231      0.158203  15 C  py              250      0.155366  16 O  s         
   434     -0.151760  27 C  px        

 Vector   28  Occ=2.000000D+00  E=-8.808467D-01
              MO Center= -1.3D-01, -3.8D-02,  5.0D-01, r^2= 8.2D+00
   Bfn.  Coefficient  Atom+Function         Bfn.  Coefficient  Atom+Function  
  ----- ------------  ---------------      ----- ------------  ---------------
   146      0.214615   9 C  pz              225      0.204614  15 C  s         
   434      0.178502  27 C  px              138     -0.163458   9 C  s         
   172      0.162898  11 C  s                56     -0.158271   5 C  s         

 Vector   29  Occ=2.000000D+00  E=-8.372667D-01
              MO Center=  5.0D-01, -1.8D+00,  1.6D-02, r^2= 6.1D+00
   Bfn.  Coefficient  Atom+Function         Bfn.  Coefficient  Atom+Function  
  ----- ------------  ---------------      ----- ------------  ---------------
   429      0.446483  27 C  s               386     -0.236817  24 C  s         
   343      0.225796  21 C  s               342      0.201793  21 C  s         
   300     -0.193061  18 C  s               468     -0.189024  29 C  px        
   515      0.172863  31 N  px              462      0.158866  29 C  s         
   277     -0.156768  17 N  px              431     -0.155727  27 C  px        

 Vector   30  Occ=2.000000D+00  E=-8.155166D-01
              MO Center=  3.8D-02,  1.7D+00,  2.0D-01, r^2= 7.3D+00
   Bfn.  Coefficient  Atom+Function         Bfn.  Coefficient  Atom+Function  
  ----- ------------  ---------------      ----- ------------  ---------------
   107      0.248563   7 N  px              300      0.217067  18 C  s         
   128     -0.207774   8 H  s               386      0.193602  24 C  s         
    54      0.191039   5 C  s               105     -0.185884   7 N  s         
   109     -0.182057   7 N  pz              163      0.164215  10 H  s         
    80     -0.151032   6 O  s         

 Vector   31  Occ=2.000000D+00  E=-7.888015D-01
              MO Center=  3.0D-02, -2.9D-01,  3.7D-02, r^2= 9.1D+00
   Bfn.  Coefficient  Atom+Function         Bfn.  Coefficient  Atom+Function  
  ----- ------------  ---------------      ----- ------------  ---------------
   300      0.383602  18 C  s               343     -0.356354  21 C  s         
   301     -0.267858  18 C  s               386      0.235269  24 C  s         
   128      0.212843   8 H  s               107     -0.211588   7 N  px        
    55     -0.183361   5 C  s               163     -0.171423  10 H  s         
   344      0.162530  21 C  s               435     -0.161988  27 C  py        

 Vector   32  Occ=2.000000D+00  E=-7.542433D-01
              MO Center= -6.7D-01, -1.8D+00, -3.1D-01, r^2= 5.2D+00
   Bfn.  Coefficient  Atom+Function         Bfn.  Coefficient  Atom+Function  
  ----- ------------  ---------------      ----- ------------  ---------------
   536      0.237101  32 H  s               516      0.224490  31 N  py        
   465      0.213515  29 C  px              463     -0.212085  29 C  s         
   300      0.202472  18 C  s               515     -0.190380  31 N  px        
   386     -0.168859  24 C  s               429      0.151071  27 C  s         

 Vector   33  Occ=2.000000D+00  E=-7.316889D-01
              MO Center= -6.7D-01,  1.2D-01, -1.1D-02, r^2= 6.8D+00
   Bfn.  Coefficient  Atom+Function         Bfn.  Coefficient  Atom+Function  
  ----- ------------  ---------------      ----- ------------  ---------------
   343      0.327202  21 C  s               300     -0.279178  18 C  s         
   225     -0.211383  15 C  s               228      0.182225  15 C  py        
   243      0.181095  15 C  dxy             145     -0.175994   9 C  py        
   545      0.169786  33 H  s                55     -0.159670   5 C  s         
   275      0.157510  17 N  s               142     -0.155811   9 C  py        

 Vector   34  Occ=2.000000D+00  E=-7.234615D-01
              MO Center=  1.4D-01, -1.2D+00, -2.0D-01, r^2= 5.5D+00
   Bfn.  Coefficient  Atom+Function         Bfn.  Coefficient  Atom+Function  
  ----- ------------  ---------------      ----- ------------  ---------------
   225      0.341604  15 C  s               300      0.260345  18 C  s         
   464     -0.227639  29 C  s               145      0.197798   9 C  py        
   452      0.181200  28 H  s               516     -0.181954  31 N  py        
   279     -0.176361  17 N  pz              139     -0.169096   9 C  s         
   433     -0.168843  27 C  pz              302      0.163051  18 C  px        

 Vector   35  Occ=2.000000D+00  E=-6.882631D-01
              MO Center= -5.9D-01, -1.7D+00, -3.9D-02, r^2= 7.2D+00
   Bfn.  Coefficient  Atom+Function         Bfn.  Coefficient  Atom+Function  
  ----- ------------  ---------------      ----- ------------  ---------------
   429      0.355005  27 C  s               545      0.257009  33 H  s         
   386     -0.220344  24 C  s               516     -0.212622  31 N  py        
   515     -0.200115  31 N  px              435     -0.184645  27 C  py        
   546      0.185048  33 H  s               536     -0.157148  32 H  s         
   139      0.151102   9 C  s         

 Vector   36  Occ=2.000000D+00  E=-6.830285D-01
              MO Center= -8.6D-02,  2.7D+00, -1.3D-01, r^2= 6.2D+00
   Bfn.  Coefficient  Atom+Function         Bfn.  Coefficient  Atom+Function  
  ----- ------------  ---------------      ----- ------------  ---------------
    13      0.209425   2 C  s                56     -0.195204   5 C  s         
    18      0.189368   2 C  py               58     -0.188474   5 C  py        
    15      0.181058   2 C  py               83     -0.178966   6 O  py        
   139     -0.177704   9 C  s               145      0.156556   9 C  py        

 Vector   37  Occ=2.000000D+00  E=-6.695998D-01
              MO Center=  3.5D-01,  2.1D+00, -1.2D-02, r^2= 5.7D+00
   Bfn.  Coefficient  Atom+Function         Bfn.  Coefficient  Atom+Function  
  ----- ------------  ---------------      ----- ------------  ---------------
    82      0.237704   6 O  px               80      0.236133   6 O  s         
   145     -0.227457   9 C  py              108      0.191975   7 N  py        
    57     -0.190566   5 C  px              225     -0.181776  15 C  s         
    83     -0.175925   6 O  py              142     -0.171938   9 C  py        
    12     -0.152101   2 C  s               300     -0.152688  18 C  s         

 Vector   38  Occ=2.000000D+00  E=-6.489820D-01
              MO Center= -2.4D-01, -5.6D-01, -3.1D-02, r^2= 7.2D+00
   Bfn.  Coefficient  Atom+Function         Bfn.  Coefficient  Atom+Function  
  ----- ------------  ---------------      ----- ------------  ---------------
   386      0.215955  24 C  s               254      0.205660  16 O  pz        
   250     -0.198412  16 O  s               227     -0.194348  15 C  px        
   252      0.173750  16 O  px        

 Vector   39  Occ=2.000000D+00  E=-6.431741D-01
              MO Center=  2.2D-01, -1.3D+00,  7.2D-02, r^2= 7.6D+00
   Bfn.  Coefficient  Atom+Function         Bfn.  Coefficient  Atom+Function  
  ----- ------------  ---------------      ----- ------------  ---------------
   386      0.230335  24 C  s               429     -0.197590  27 C  s         
   343     -0.193674  21 C  s               491      0.192396  30 O  py        
   324     -0.164075  19 H  s               465      0.160704  29 C  px        

 Vector   40  Occ=2.000000D+00  E=-6.189784D-01
              MO Center=  1.6D-01,  1.4D+00, -3.3D-01, r^2= 1.1D+01
   Bfn.  Coefficient  Atom+Function         Bfn.  Coefficient  Atom+Function  
  ----- ------------  ---------------      ----- ------------  ---------------
   386     -0.183705  24 C  s                35     -0.177871   3 H  s         
   343      0.175605  21 C  s                16      0.174063   2 C  pz        
    44      0.165262   4 H  s         

 Vector   41  Occ=2.000000D+00  E=-6.170569D-01
              MO Center= -1.5D-01,  1.2D+00,  2.2D-01, r^2= 1.0D+01
   Bfn.  Coefficient  Atom+Function         Bfn.  Coefficient  Atom+Function  
  ----- ------------  ---------------      ----- ------------  ---------------
   139      0.289431   9 C  s               252      0.190309  16 O  px        
   344      0.189848  21 C  s               234      0.182810  15 C  py        
    13     -0.176462   2 C  s               106     -0.175007   7 N  s         
   225     -0.172645  15 C  s               301     -0.173212  18 C  s         
   214      0.164543  14 H  s               177      0.159781  11 C  pz        

 Vector   42  Occ=2.000000D+00  E=-5.947739D-01
              MO Center=  3.3D-01, -2.3D+00, -9.6D-02, r^2= 6.6D+00
   Bfn.  Coefficient  Atom+Function         Bfn.  Coefficient  Atom+Function  
  ----- ------------  ---------------      ----- ------------  ---------------
   491     -0.243886  30 O  py              466      0.238413  29 C  py        
   343     -0.223823  21 C  s               300      0.205656  18 C  s         
   389     -0.188343  24 C  py              410      0.172233  25 H  s         
   434     -0.163024  27 C  px              463     -0.163415  29 C  s         
   303      0.160547  18 C  py              488      0.160181  30 O  s         

 Vector   43  Occ=2.000000D+00  E=-5.878199D-01
              MO Center= -2.3D-01,  2.0D+00,  5.3D-01, r^2= 8.7D+00
   Bfn.  Coefficient  Atom+Function         Bfn.  Coefficient  Atom+Function  
  ----- ------------  ---------------      ----- ------------  ---------------
   205     -0.244957  13 H  s                82      0.224774   6 O  px        
   176      0.214070  11 C  py              206     -0.202566  13 H  s         
    57     -0.190435   5 C  px              139     -0.188178   9 C  s         
   163      0.186714  10 H  s                 1     -0.166045   1 H  s         
   145      0.164901   9 C  py               15     -0.156505   2 C  py        

 Vector   44  Occ=2.000000D+00  E=-5.788666D-01
              MO Center=  6.7D-01, -9.1D-01,  2.7D-01, r^2= 8.2D+00
   Bfn.  Coefficient  Atom+Function         Bfn.  Coefficient  Atom+Function  
  ----- ------------  ---------------      ----- ------------  ---------------
   345      0.199424  21 C  px              375      0.188182  23 H  s         
   429      0.179388  27 C  s               302     -0.178425  18 C  px        
   163     -0.159367  10 H  s               388      0.156331  24 C  px        

 Vector   45  Occ=2.000000D+00  E=-5.779988D-01
              MO Center= -6.7D-02,  1.7D+00, -2.5D-01, r^2= 1.0D+01
   Bfn.  Coefficient  Atom+Function         Bfn.  Coefficient  Atom+Function  
  ----- ------------  ---------------      ----- ------------  ---------------
    14      0.236529   2 C  px               82      0.212890   6 O  px        
    35     -0.191725   3 H  s                 2      0.175748   1 H  s         

 Vector   46  Occ=2.000000D+00  E=-5.691322D-01
              MO Center= -7.5D-02,  9.7D-01, -2.8D-01, r^2= 1.3D+01
   Bfn.  Coefficient  Atom+Function         Bfn.  Coefficient  Atom+Function  
  ----- ------------  ---------------      ----- ------------  ---------------
     2      0.178719   1 H  s                 1      0.176440   1 H  s         
    44     -0.170224   4 H  s                82      0.169252   6 O  px        
   467     -0.163144  29 C  pz              343      0.157112  21 C  s         
    14      0.155966   2 C  px               16     -0.154666   2 C  pz        

 Vector   47  Occ=2.000000D+00  E=-5.687218D-01
              MO Center= -7.2D-02, -7.0D-01,  7.3D-01, r^2= 9.2D+00
   Bfn.  Coefficient  Atom+Function         Bfn.  Coefficient  Atom+Function  
  ----- ------------  ---------------      ----- ------------  ---------------
   214      0.237858  14 H  s               215      0.220870  14 H  s         
   176      0.210211  11 C  py              389      0.190133  24 C  py        
   409     -0.166480  25 H  s               177      0.151079  11 C  pz        
   206     -0.150919  13 H  s         

 Vector   48  Occ=2.000000D+00  E=-5.509209D-01
              MO Center= -2.0D-01,  1.3D+00,  2.1D-02, r^2= 1.3D+01
   Bfn.  Coefficient  Atom+Function         Bfn.  Coefficient  Atom+Function  
  ----- ------------  ---------------      ----- ------------  ---------------
   206      0.254449  13 H  s               386      0.219750  24 C  s         
     1     -0.216075   1 H  s                16      0.215988   2 C  pz        
   108     -0.178668   7 N  py              205      0.172359  13 H  s         
    12      0.161394   2 C  s                 2     -0.160515   1 H  s         
    55     -0.154647   5 C  s         

 Vector   49  Occ=2.000000D+00  E=-5.390247D-01
              MO Center= -3.9D-01,  1.1D+00,  6.7D-01, r^2= 8.7D+00
   Bfn.  Coefficient  Atom+Function         Bfn.  Coefficient  Atom+Function  
  ----- ------------  ---------------      ----- ------------  ---------------
   175     -0.245002  11 C  px              163      0.229749  10 H  s         
   196      0.218482  12 H  s               141      0.201057   9 C  px        
   197      0.194489  12 H  s               215     -0.161501  14 H  s         
   162      0.153471  10 H  s         

 Vector   50  Occ=2.000000D+00  E=-5.371110D-01
              MO Center= -4.1D-01, -4.5D-01,  2.2D-01, r^2= 9.2D+00
   Bfn.  Coefficient  Atom+Function         Bfn.  Coefficient  Atom+Function  
  ----- ------------  ---------------      ----- ------------  ---------------
   343      0.234953  21 C  s               492      0.188290  30 O  pz        
   386     -0.180657  24 C  s               517      0.175948  31 N  pz        
   206      0.171071  13 H  s                12      0.169280   2 C  s         
    55     -0.157325   5 C  s               433     -0.152835  27 C  pz        
   324     -0.150957  19 H  s         

 Vector   51  Occ=2.000000D+00  E=-5.229753D-01
              MO Center= -2.4D-01,  5.5D-01,  9.3D-02, r^2= 8.6D+00
   Bfn.  Coefficient  Atom+Function         Bfn.  Coefficient  Atom+Function  
  ----- ------------  ---------------      ----- ------------  ---------------
   252     -0.201654  16 O  px              177      0.193328  11 C  pz        
   143     -0.168883   9 C  pz              174      0.151562  11 C  s         
   229      0.150141  15 C  pz              254      0.150578  16 O  pz        

 Vector   52  Occ=2.000000D+00  E=-5.125886D-01
              MO Center=  2.8D-02,  1.7D+00, -1.1D-01, r^2= 7.1D+00
   Bfn.  Coefficient  Atom+Function         Bfn.  Coefficient  Atom+Function  
  ----- ------------  ---------------      ----- ------------  ---------------
   386      0.204055  24 C  s                84      0.193805   6 O  pz        
   253      0.193757  16 O  py              174     -0.184206  11 C  s         
   141     -0.175007   9 C  px               59      0.158748   5 C  pz        
   162     -0.159466  10 H  s               180     -0.154664  11 C  pz        

 Vector   53  Occ=2.000000D+00  E=-4.964435D-01
              MO Center=  1.3D+00, -1.7D+00,  7.5D-02, r^2= 4.6D+00
   Bfn.  Coefficient  Atom+Function         Bfn.  Coefficient  Atom+Function  
  ----- ------------  ---------------      ----- ------------  ---------------
   376      0.299274  23 H  s               431      0.240986  27 C  px        
   345      0.231508  21 C  px              388     -0.226384  24 C  px        
   375      0.222019  23 H  s               391     -0.177191  24 C  px        
   324      0.172253  19 H  s         

 Vector   54  Occ=2.000000D+00  E=-4.882664D-01
              MO Center=  1.6D+00, -2.0D+00,  1.9D-01, r^2= 3.7D+00
   Bfn.  Coefficient  Atom+Function         Bfn.  Coefficient  Atom+Function  
  ----- ------------  ---------------      ----- ------------  ---------------
   410      0.360733  25 H  s               387     -0.297142  24 C  s         
   346      0.277308  21 C  py              303     -0.254404  18 C  py        
   376      0.233982  23 H  s               349      0.218631  21 C  py        
   367     -0.216961  22 H  s               409      0.216579  25 H  s         
   389     -0.202691  24 C  py              300     -0.188336  18 C  s         

 Vector   55  Occ=2.000000D+00  E=-4.860055D-01
              MO Center=  1.3D+00, -2.1D+00, -1.0D-01, r^2= 4.0D+00
   Bfn.  Coefficient  Atom+Function         Bfn.  Coefficient  Atom+Function  
  ----- ------------  ---------------      ----- ------------  ---------------
   347      0.323393  21 C  pz              390     -0.304968  24 C  pz        
   386      0.260200  24 C  s               391     -0.224277  24 C  px        
   324     -0.215451  19 H  s               367      0.205929  22 H  s         
   410     -0.201254  25 H  s               366      0.199870  22 H  s         
   453     -0.191415  28 H  s               418      0.185347  26 H  s         

 Vector   56  Occ=2.000000D+00  E=-4.399308D-01
              MO Center= -5.6D-01,  4.7D-01, -3.4D-01, r^2= 5.2D+00
   Bfn.  Coefficient  Atom+Function         Bfn.  Coefficient  Atom+Function  
  ----- ------------  ---------------      ----- ------------  ---------------
   253      0.394829  16 O  py              256      0.320670  16 O  py        
   254      0.205915  16 O  pz               84     -0.172772   6 O  pz        
    13      0.167651   2 C  s               257      0.155386  16 O  pz        
   252     -0.153445  16 O  px        

 Vector   57  Occ=2.000000D+00  E=-4.277305D-01
              MO Center= -4.6D-01, -2.4D+00, -1.1D-01, r^2= 5.6D+00
   Bfn.  Coefficient  Atom+Function         Bfn.  Coefficient  Atom+Function  
  ----- ------------  ---------------      ----- ------------  ---------------
   490      0.459590  30 O  px              493      0.362349  30 O  px        
   253     -0.214217  16 O  py              256     -0.173369  16 O  py        

 Vector   58  Occ=2.000000D+00  E=-4.243489D-01
              MO Center=  9.6D-01,  3.0D+00, -6.1D-01, r^2= 2.3D+00
   Bfn.  Coefficient  Atom+Function         Bfn.  Coefficient  Atom+Function  
  ----- ------------  ---------------      ----- ------------  ---------------
    83      0.402543   6 O  py               84     -0.364437   6 O  pz        
    86      0.315944   6 O  py               87     -0.289228   6 O  pz        
   105      0.196275   7 N  s                18      0.187217   2 C  py        
    15      0.182596   2 C  py               13      0.169857   2 C  s         

 Vector   59  Occ=2.000000D+00  E=-4.030192D-01
              MO Center=  2.8D-02,  2.2D+00,  4.5D-02, r^2= 3.5D+00
   Bfn.  Coefficient  Atom+Function         Bfn.  Coefficient  Atom+Function  
  ----- ------------  ---------------      ----- ------------  ---------------
   109      0.334129   7 N  pz              112      0.292448   7 N  pz        
    83     -0.214630   6 O  py               84     -0.199739   6 O  pz        
   111      0.196449   7 N  py              108      0.192546   7 N  py        
    86     -0.170983   6 O  py              253     -0.161803  16 O  py        

 Vector   60  Occ=2.000000D+00  E=-3.990765D-01
              MO Center= -1.4D+00, -3.0D+00, -3.9D-01, r^2= 2.2D+00
   Bfn.  Coefficient  Atom+Function         Bfn.  Coefficient  Atom+Function  
  ----- ------------  ---------------      ----- ------------  ---------------
   517      0.418082  31 N  pz              492     -0.359950  30 O  pz        
   520      0.357850  31 N  pz              495     -0.283480  30 O  pz        
   284      0.191565  17 N  py              514     -0.183664  31 N  s         
    56      0.161747   5 C  s               174     -0.160852  11 C  s         
   491     -0.160497  30 O  py              516      0.160280  31 N  py        

 Vector   61  Occ=2.000000D+00  E=-3.766993D-01
              MO Center= -8.8D-02, -1.2D+00, -1.3D-01, r^2= 4.3D+00
   Bfn.  Coefficient  Atom+Function         Bfn.  Coefficient  Atom+Function  
  ----- ------------  ---------------      ----- ------------  ---------------
   279     -0.252278  17 N  pz              277      0.242778  17 N  px        
   282     -0.242663  17 N  pz              490     -0.238128  30 O  px        
   280      0.222317  17 N  px              278      0.202092  17 N  py        
   281      0.191147  17 N  py              493     -0.190386  30 O  px        
   254      0.183121  16 O  pz              386      0.183093  24 C  s         

 Vector   62  Occ=0.000000D+00  E= 2.607268D-02
              MO Center= -1.7D+00,  3.5D+00,  2.3D+00, r^2= 2.2D+01
   Bfn.  Coefficient  Atom+Function         Bfn.  Coefficient  Atom+Function  
  ----- ------------  ---------------      ----- ------------  ---------------
   148      2.851830   9 C  py               56      2.614911   5 C  s         
   106     -2.372797   7 N  s               216     -2.344742  14 H  s         
   464      2.165547  29 C  s               344      1.909811  21 C  s         
   173      1.807702  11 C  s               226      1.768652  15 C  s         
   301      1.681883  18 C  s               308     -1.615096  18 C  px        

 Vector   63  Occ=0.000000D+00  E= 3.734331D-02
              MO Center=  2.6D-01,  1.7D+00,  1.6D+00, r^2= 3.7D+01
   Bfn.  Coefficient  Atom+Function         Bfn.  Coefficient  Atom+Function  
  ----- ------------  ---------------      ----- ------------  ---------------
   234     -3.176850  15 C  py              149      3.122242   9 C  pz        
    56      2.973067   5 C  s                64     -2.958150   5 C  py        
   301      2.682450  18 C  s                12     -2.091233   2 C  s         
   207     -1.811734  13 H  s               164     -1.763691  10 H  s         
   377     -1.680648  23 H  s                65      1.633240   5 C  pz        

 Vector   64  Occ=0.000000D+00  E= 4.025480D-02
              MO Center= -4.8D-01,  2.7D-01,  7.0D-01, r^2= 4.1D+01
   Bfn.  Coefficient  Atom+Function         Bfn.  Coefficient  Atom+Function  
  ----- ------------  ---------------      ----- ------------  ---------------
   147      2.812328   9 C  px              164     -2.586622  10 H  s         
   471      2.417560  29 C  px              377     -2.269292  23 H  s         
   198      2.171467  12 H  s                13      1.914349   2 C  s         
   234     -1.871913  15 C  py              514      1.793684  31 N  s         
   547      1.748744  33 H  s               149     -1.689331   9 C  pz        

 Vector   65  Occ=0.000000D+00  E= 4.140172D-02
              MO Center= -6.7D-02, -4.2D-01, -7.8D-01, r^2= 4.0D+01
   Bfn.  Coefficient  Atom+Function         Bfn.  Coefficient  Atom+Function  
  ----- ------------  ---------------      ----- ------------  ---------------
   464      4.088979  29 C  s               216      2.645321  14 H  s         
   301      2.283283  18 C  s               309     -2.175407  18 C  py        
   140      1.822983   9 C  s               377     -1.719446  23 H  s         
   387     -1.635200  24 C  s               106      1.597330   7 N  s         
   148     -1.596316   9 C  py              454     -1.539679  28 H  s         

 Vector   66  Occ=0.000000D+00  E= 5.123161D-02
              MO Center=  4.0D-01,  1.6D+00, -1.7D-01, r^2= 4.4D+01
   Bfn.  Coefficient  Atom+Function         Bfn.  Coefficient  Atom+Function  
  ----- ------------  ---------------      ----- ------------  ---------------
     3      2.700119   1 H  s               130     -2.603273   8 H  s         
   207      2.099208  13 H  s               377     -2.060701  23 H  s         
   164      2.006428  10 H  s               106     -1.974601   7 N  s         
   234      1.971987  15 C  py              471      1.959057  29 C  px        
   174     -1.943591  11 C  s                56      1.864151   5 C  s         

 Vector   67  Occ=0.000000D+00  E= 5.404348D-02
              MO Center=  6.5D-01, -2.7D-01, -3.3D-01, r^2= 3.9D+01
   Bfn.  Coefficient  Atom+Function         Bfn.  Coefficient  Atom+Function  
  ----- ------------  ---------------      ----- ------------  ---------------
   454      3.255940  28 H  s               216      2.714708  14 H  s         
   377     -2.513950  23 H  s               234      2.402383  15 C  py        
    56     -2.382731   5 C  s               439      2.161516  27 C  pz        
   438     -2.115725  27 C  py               37     -2.089555   3 H  s         
   325     -2.044831  19 H  s               464     -2.033823  29 C  s         

 Vector   68  Occ=0.000000D+00  E= 5.726807D-02
              MO Center= -1.5D+00,  9.4D-01, -7.7D-02, r^2= 4.3D+01
   Bfn.  Coefficient  Atom+Function         Bfn.  Coefficient  Atom+Function  
  ----- ------------  ---------------      ----- ------------  ---------------
    46      3.237374   4 H  s                37     -2.438430   3 H  s         
   547      2.372712  33 H  s                56     -2.174065   5 C  s         
   174      2.157707  11 C  s               420     -1.959281  26 H  s         
   164      1.666020  10 H  s               207     -1.671850  13 H  s         
   514      1.636873  31 N  s               377      1.621915  23 H  s         

 Vector   69  Occ=0.000000D+00  E= 5.928690D-02
              MO Center=  3.0D-01,  2.6D-01,  7.5D-01, r^2= 4.0D+01
   Bfn.  Coefficient  Atom+Function         Bfn.  Coefficient  Atom+Function  
  ----- ------------  ---------------      ----- ------------  ---------------
   164      4.483902  10 H  s               207     -3.387740  13 H  s         
   309     -2.754604  18 C  py               56     -2.620646   5 C  s         
   538      2.592708  32 H  s               325      2.395630  19 H  s         
   411     -2.356493  25 H  s               368     -2.115513  22 H  s         
   471      1.976914  29 C  px               46     -1.837001   4 H  s         

 Vector   70  Occ=0.000000D+00  E= 6.225950D-02
              MO Center=  5.1D-01,  6.2D-02, -3.8D-01, r^2= 4.1D+01
   Bfn.  Coefficient  Atom+Function         Bfn.  Coefficient  Atom+Function  
  ----- ------------  ---------------      ----- ------------  ---------------
    56      3.968222   5 C  s                 3      3.277315   1 H  s         
   198      3.138982  12 H  s               234     -2.886994  15 C  py        
   454     -2.881785  28 H  s               174     -2.522139  11 C  s         
   334      2.429275  20 H  s               325     -2.401283  19 H  s         
   439     -2.296115  27 C  pz              411     -2.032710  25 H  s         

 Vector   71  Occ=0.000000D+00  E= 7.116268D-02
              MO Center=  9.3D-01,  4.5D-01,  2.0D-01, r^2= 4.4D+01
   Bfn.  Coefficient  Atom+Function         Bfn.  Coefficient  Atom+Function  
  ----- ------------  ---------------      ----- ------------  ---------------
   411      4.260461  25 H  s               216      3.953701  14 H  s         
   420     -3.855642  26 H  s                56      3.786786   5 C  s         
   395      3.109316  24 C  py              377      2.931694  23 H  s         
   207     -2.811279  13 H  s                46     -2.750301   4 H  s         
    64     -2.308712   5 C  py                3      2.202846   1 H  s         

 Vector   72  Occ=0.000000D+00  E= 7.614030D-02
              MO Center= -3.2D-01,  1.2D+00, -1.3D-01, r^2= 4.4D+01
   Bfn.  Coefficient  Atom+Function         Bfn.  Coefficient  Atom+Function  
  ----- ------------  ---------------      ----- ------------  ---------------
   198      4.071238  12 H  s               207     -3.743330  13 H  s         
     3      3.409596   1 H  s                37     -3.401298   3 H  s         
    13      2.801809   2 C  s               454      2.788858  28 H  s         
   164      2.715132  10 H  s               344     -2.561777  21 C  s         
   234     -2.506950  15 C  py              368      2.477695  22 H  s         

 Vector   73  Occ=0.000000D+00  E= 7.879929D-02
              MO Center=  1.3D+00, -9.1D-01,  1.1D-01, r^2= 3.9D+01
   Bfn.  Coefficient  Atom+Function         Bfn.  Coefficient  Atom+Function  
  ----- ------------  ---------------      ----- ------------  ---------------
   164      6.295412  10 H  s               454     -4.589199  28 H  s         
   411      4.255561  25 H  s               377     -3.336445  23 H  s         
    56     -3.300423   5 C  s               216     -3.236302  14 H  s         
   234     -2.853179  15 C  py              439     -2.725710  27 C  pz        
   437     -2.501687  27 C  px              309     -2.201904  18 C  py        

 Vector   74  Occ=0.000000D+00  E= 8.117789D-02
              MO Center= -9.6D-01,  3.0D-01,  6.8D-01, r^2= 4.3D+01
   Bfn.  Coefficient  Atom+Function         Bfn.  Coefficient  Atom+Function  
  ----- ------------  ---------------      ----- ------------  ---------------
   368      4.711690  22 H  s               130      3.768859   8 H  s         
   198     -3.515609  12 H  s                46     -3.310051   4 H  s         
   377     -3.101195  23 H  s               464     -3.094330  29 C  s         
   216      3.029720  14 H  s               420      2.863477  26 H  s         
   308     -2.839347  18 C  px              411     -2.631772  25 H  s         

 Vector   75  Occ=0.000000D+00  E= 8.727344D-02
              MO Center= -1.2D-01, -1.1D+00, -6.6D-02, r^2= 3.8D+01
   Bfn.  Coefficient  Atom+Function         Bfn.  Coefficient  Atom+Function  
  ----- ------------  ---------------      ----- ------------  ---------------
    56      7.992515   5 C  s               164     -6.070260  10 H  s         
   538     -5.485868  32 H  s               174     -5.305551  11 C  s         
   420     -5.327222  26 H  s               454      5.259078  28 H  s         
   368     -5.136342  22 H  s               149      4.892455   9 C  pz        
   439      3.828008  27 C  pz              301     -3.400208  18 C  s         

 Vector   76  Occ=0.000000D+00  E= 8.956078D-02
              MO Center=  1.6D+00, -2.2D-01,  8.3D-01, r^2= 3.6D+01
   Bfn.  Coefficient  Atom+Function         Bfn.  Coefficient  Atom+Function  
  ----- ------------  ---------------      ----- ------------  ---------------
   325     11.229045  19 H  s               334     -7.515037  20 H  s         
    56      5.417702   5 C  s               207     -4.686768  13 H  s         
   310     -4.612174  18 C  pz              368     -4.465635  22 H  s         
   387     -4.461738  24 C  s               420      4.163759  26 H  s         
   454     -3.517601  28 H  s               308      2.967738  18 C  px        

 Vector   77  Occ=0.000000D+00  E= 9.623279D-02
              MO Center= -1.3D+00,  8.3D-01,  7.3D-01, r^2= 3.8D+01
   Bfn.  Coefficient  Atom+Function         Bfn.  Coefficient  Atom+Function  
  ----- ------------  ---------------      ----- ------------  ---------------
   207     -7.558008  13 H  s               198      7.202944  12 H  s         
   130     -5.456826   8 H  s               538     -3.982233  32 H  s         
   234     -3.302239  15 C  py              148      3.248451   9 C  py        
   368      3.121032  22 H  s               420      2.693815  26 H  s         
    37      2.639031   3 H  s               325      2.651614  19 H  s         

 Vector   78  Occ=0.000000D+00  E= 1.017231D-01
              MO Center=  1.2D+00,  1.1D-01,  4.4D-01, r^2= 3.8D+01
   Bfn.  Coefficient  Atom+Function         Bfn.  Coefficient  Atom+Function  
  ----- ------------  ---------------      ----- ------------  ---------------
   164      9.245678  10 H  s               334     -8.749151  20 H  s         
   234     -6.123554  15 C  py              377      5.921523  23 H  s         
   301      5.594211  18 C  s               438     -5.479441  27 C  py        
    56     -4.582878   5 C  s               437      4.356105  27 C  px        
   538     -4.317693  32 H  s               216     -3.903585  14 H  s         

 Vector   79  Occ=0.000000D+00  E= 1.190753D-01
              MO Center=  3.1D-01,  2.1D+00, -3.5D-01, r^2= 3.7D+01
   Bfn.  Coefficient  Atom+Function         Bfn.  Coefficient  Atom+Function  
  ----- ------------  ---------------      ----- ------------  ---------------
    56     19.242201   5 C  s               174    -13.576211  11 C  s         
    13    -10.994136   2 C  s               164      9.833325  10 H  s         
   344      8.180457  21 C  s               147     -6.937913   9 C  px        
   149      6.039387   9 C  pz              325     -5.752534  19 H  s         
    21      5.009381   2 C  py              235      5.010092  15 C  pz        

 Vector   80  Occ=0.000000D+00  E= 1.245371D-01
              MO Center= -4.9D-01, -1.3D+00,  5.7D-01, r^2= 3.3D+01
   Bfn.  Coefficient  Atom+Function         Bfn.  Coefficient  Atom+Function  
  ----- ------------  ---------------      ----- ------------  ---------------
   464     16.582009  29 C  s               174    -11.718696  11 C  s         
    13     -7.818499   2 C  s               438      7.183606  27 C  py        
   344     -6.849453  21 C  s               234      6.750354  15 C  py        
    56      6.245662   5 C  s               437      5.485882  27 C  px        
   472      5.379298  29 C  py              140      5.190953   9 C  s         

 Vector   81  Occ=0.000000D+00  E= 1.291480D-01
              MO Center= -3.4D-01, -6.9D-01,  5.6D-01, r^2= 3.0D+01
   Bfn.  Coefficient  Atom+Function         Bfn.  Coefficient  Atom+Function  
  ----- ------------  ---------------      ----- ------------  ---------------
   464     13.811578  29 C  s                56     12.831364   5 C  s         
   149     10.728137   9 C  pz              437      7.506812  27 C  px        
   226      6.069740  15 C  s               387     -6.086845  24 C  s         
   164     -5.861881  10 H  s               174     -5.701247  11 C  s         
   472      4.842620  29 C  py              284      4.558579  17 N  py        

 Vector   82  Occ=0.000000D+00  E= 1.354795D-01
              MO Center=  3.2D-02, -8.0D-01,  3.3D-01, r^2= 3.2D+01
   Bfn.  Coefficient  Atom+Function         Bfn.  Coefficient  Atom+Function  
  ----- ------------  ---------------      ----- ------------  ---------------
   387     20.538351  24 C  s                56      7.834638   5 C  s         
   309      7.162451  18 C  py              174     -7.030926  11 C  s         
   148      6.061169   9 C  py              438      5.764754  27 C  py        
   308     -5.623264  18 C  px              149      5.517663   9 C  pz        
   394     -5.223317  24 C  px              284      4.839644  17 N  py        

 Vector   83  Occ=0.000000D+00  E= 1.384495D-01
              MO Center=  1.4D-02,  7.2D-02, -1.2D-02, r^2= 2.9D+01
   Bfn.  Coefficient  Atom+Function         Bfn.  Coefficient  Atom+Function  
  ----- ------------  ---------------      ----- ------------  ---------------
   514      5.164739  31 N  s                56     -4.677242   5 C  s         
   472     -4.121322  29 C  py              439     -3.993423  27 C  pz        
   149     -3.486842   9 C  pz              438      3.297455  27 C  py        
    65     -3.259342   5 C  pz              334     -2.985968  20 H  s         
   234      2.808366  15 C  py              181      2.661718  11 C  px        

 Vector   84  Occ=0.000000D+00  E= 1.420612D-01
              MO Center= -4.3D-01,  1.3D+00, -2.2D-01, r^2= 3.3D+01
   Bfn.  Coefficient  Atom+Function         Bfn.  Coefficient  Atom+Function  
  ----- ------------  ---------------      ----- ------------  ---------------
   148     16.224795   9 C  py              464     10.199725  29 C  s         
    64      8.794405   5 C  py               13     -6.938081   2 C  s         
   514     -6.638496  31 N  s                65     -6.355672   5 C  pz        
   234      6.099557  15 C  py              276     -6.019943  17 N  s         
   344      5.854985  21 C  s               164     -5.487510  10 H  s         

 Vector   85  Occ=0.000000D+00  E= 1.458444D-01
              MO Center=  3.5D-01,  2.0D+00,  2.5D-01, r^2= 2.9D+01
   Bfn.  Coefficient  Atom+Function         Bfn.  Coefficient  Atom+Function  
  ----- ------------  ---------------      ----- ------------  ---------------
    56     11.857984   5 C  s               106    -11.423427   7 N  s         
   438      5.281920  27 C  py               63     -5.174887   5 C  px        
   471      4.830934  29 C  px               65      4.373661   5 C  pz        
   301     -4.044879  18 C  s               514      3.829535  31 N  s         
   344      3.430997  21 C  s               207      3.222211  13 H  s         

 Vector   86  Occ=0.000000D+00  E= 1.467298D-01
              MO Center=  1.3D+00, -1.6D+00, -2.0D-01, r^2= 3.0D+01
   Bfn.  Coefficient  Atom+Function         Bfn.  Coefficient  Atom+Function  
[...]
   Bfn.  Coefficient  Atom+Function         Bfn.  Coefficient  Atom+Function  
  ----- ------------  ---------------      ----- ------------  ---------------
   464     15.104019  29 C  s               514    -11.152227  31 N  s         
    12     -9.494172   2 C  s               344     -8.899433  21 C  s         
   149      8.146424   9 C  pz              437      8.083699  27 C  px        
   387     -7.021173  24 C  s               438     -7.009410  27 C  py        
   147     -6.526761   9 C  px              174     -6.454651  11 C  s         

 Vector  156  Occ=0.000000D+00  E= 4.333001D-01
              MO Center=  1.0D+00, -3.9D-01,  7.3D-01, r^2= 2.0D+01
   Bfn.  Coefficient  Atom+Function         Bfn.  Coefficient  Atom+Function  
  ----- ------------  ---------------      ----- ------------  ---------------
   148     10.953731   9 C  py              106     -9.205922   7 N  s         
   376      7.894547  23 H  s               343     -7.665457  21 C  s         
   301     -7.234879  18 C  s               514     -7.140779  31 N  s         
   164     -6.088441  10 H  s               234     -5.565096  15 C  py        
   325      5.585516  19 H  s               174      5.081400  11 C  s         

 Vector  157  Occ=0.000000D+00  E= 4.391232D-01
              MO Center= -2.0D-02,  1.7D+00, -2.6D-01, r^2= 2.2D+01
   Bfn.  Coefficient  Atom+Function         Bfn.  Coefficient  Atom+Function  
  ----- ------------  ---------------      ----- ------------  ---------------
   147      7.000652   9 C  px               36      6.822135   3 H  s         
   464     -5.947742  29 C  s               164     -5.240519  10 H  s         
    13     -5.171407   2 C  s               514      4.781091  31 N  s         
   206      4.421795  13 H  s               173     -4.244445  11 C  s         
   149      4.031088   9 C  pz              113     -3.977766   7 N  px        

 Vector  158  Occ=0.000000D+00  E= 4.467894D-01
              MO Center=  3.5D-01,  2.6D+00, -3.3D-01, r^2= 2.0D+01
   Bfn.  Coefficient  Atom+Function         Bfn.  Coefficient  Atom+Function  
  ----- ------------  ---------------      ----- ------------  ---------------
   234     12.624251  15 C  py               13     -9.582881   2 C  s         
   464      7.624505  29 C  s               387     -7.371611  24 C  s         
   106     -7.100535   7 N  s                45      6.466554   4 H  s         
   235      6.262957  15 C  pz               12     -5.653253   2 C  s         
   344      4.994266  21 C  s               174     -4.778525  11 C  s         

 Vector  159  Occ=0.000000D+00  E= 4.498918D-01
              MO Center= -8.6D-03,  2.1D-01,  2.1D-01, r^2= 2.1D+01
   Bfn.  Coefficient  Atom+Function         Bfn.  Coefficient  Atom+Function  
  ----- ------------  ---------------      ----- ------------  ---------------
   437     10.139073  27 C  px              419     -8.008336  26 H  s         
   301     -7.744985  18 C  s               343     -7.016854  21 C  s         
   471     -6.654350  29 C  px              283      6.618458  17 N  px        
   438     -6.611978  27 C  py              514     -6.608576  31 N  s         
   233     -6.469807  15 C  px              430      6.281491  27 C  s         

 Vector  160  Occ=0.000000D+00  E= 4.552220D-01
              MO Center=  7.3D-01, -6.0D-01,  3.9D-01, r^2= 2.0D+01
   Bfn.  Coefficient  Atom+Function         Bfn.  Coefficient  Atom+Function  
  ----- ------------  ---------------      ----- ------------  ---------------
   309    -10.828649  18 C  py              301     10.647486  18 C  s         
   343     10.517525  21 C  s               148     -9.574875   9 C  py        
   376     -9.319081  23 H  s                13      8.698576   2 C  s         
   387     -7.286114  24 C  s               234      7.027007  15 C  py        
   300     -6.448722  18 C  s               437     -6.037474  27 C  px        

 Vector  161  Occ=0.000000D+00  E= 4.576136D-01
              MO Center= -9.5D-02,  3.4D-01,  2.4D-01, r^2= 2.2D+01
   Bfn.  Coefficient  Atom+Function         Bfn.  Coefficient  Atom+Function  
  ----- ------------  ---------------      ----- ------------  ---------------
   387    -11.173267  24 C  s                56     10.402621   5 C  s         
   174     -9.182811  11 C  s               301      8.839779  18 C  s         
   464      8.815529  29 C  s               309     -7.714177  18 C  py        
   396     -6.953486  24 C  pz              514     -6.968592  31 N  s         
   197      5.698171  12 H  s               173     -5.103002  11 C  s         

 Vector  162  Occ=0.000000D+00  E= 4.586179D-01
              MO Center=  6.5D-01, -5.1D-01,  2.7D-01, r^2= 1.9D+01
   Bfn.  Coefficient  Atom+Function         Bfn.  Coefficient  Atom+Function  
  ----- ------------  ---------------      ----- ------------  ---------------
   106     13.250860   7 N  s                13    -11.406101   2 C  s         
   437     10.979223  27 C  px              301     10.739100  18 C  s         
   234    -10.185570  15 C  py              309      9.544702  18 C  py        
   235     -9.304629  15 C  pz              174     -7.681322  11 C  s         
   438     -7.677496  27 C  py              308     -7.025234  18 C  px        

 Vector  163  Occ=0.000000D+00  E= 4.674023D-01
              MO Center=  4.8D-01, -1.3D-01, -6.6D-02, r^2= 1.9D+01
   Bfn.  Coefficient  Atom+Function         Bfn.  Coefficient  Atom+Function  
  ----- ------------  ---------------      ----- ------------  ---------------
   174     24.765717  11 C  s                56    -17.315813   5 C  s         
   387    -15.497297  24 C  s                13     11.793553   2 C  s         
   149    -10.849235   9 C  pz              233      8.095512  15 C  px        
   215     -7.255305  14 H  s               173      7.184917  11 C  s         
   284     -6.783715  17 N  py              453      6.760198  28 H  s         

 Vector  164  Occ=0.000000D+00  E= 4.716433D-01
              MO Center=  5.6D-01, -4.3D-01, -2.4D-02, r^2= 1.9D+01
   Bfn.  Coefficient  Atom+Function         Bfn.  Coefficient  Atom+Function  
  ----- ------------  ---------------      ----- ------------  ---------------
   437    -13.565106  27 C  px              387     12.849538  24 C  s         
   106     -9.367593   7 N  s               234      8.582067  15 C  py        
   226     -7.085483  15 C  s               325      6.686579  19 H  s         
   235      6.552692  15 C  pz              464     -5.998057  29 C  s         
   394     -5.597099  24 C  px              438      5.545976  27 C  py        

 Vector  165  Occ=0.000000D+00  E= 4.737154D-01
              MO Center= -8.1D-02, -2.8D-01,  5.3D-01, r^2= 1.7D+01
   Bfn.  Coefficient  Atom+Function         Bfn.  Coefficient  Atom+Function  
  ----- ------------  ---------------      ----- ------------  ---------------
   344     13.674613  21 C  s               234     12.041293  15 C  py        
   437    -11.877182  27 C  px              438     10.466094  27 C  py        
   324     -9.443019  19 H  s               301      9.293681  18 C  s         
   387      7.704453  24 C  s                13     -6.947373   2 C  s         
   343      6.567233  21 C  s               453      6.310065  28 H  s         

 Vector  166  Occ=0.000000D+00  E= 4.787642D-01
              MO Center= -3.9D-01, -2.4D-01,  1.8D-02, r^2= 2.0D+01
   Bfn.  Coefficient  Atom+Function         Bfn.  Coefficient  Atom+Function  
  ----- ------------  ---------------      ----- ------------  ---------------
   276      9.213684  17 N  s               514      8.338179  31 N  s         
   174     -7.947872  11 C  s               464     -7.935334  29 C  s         
    12     -7.680416   2 C  s               234     -6.699024  15 C  py        
   140     -6.230020   9 C  s               301      5.531429  18 C  s         
   114     -5.480958   7 N  py              149      5.134365   9 C  pz        

 Vector  167  Occ=0.000000D+00  E= 4.840352D-01
              MO Center=  9.6D-02, -5.1D-01,  9.5D-01, r^2= 2.0D+01
   Bfn.  Coefficient  Atom+Function         Bfn.  Coefficient  Atom+Function  
  ----- ------------  ---------------      ----- ------------  ---------------
    56     16.623832   5 C  s               301    -14.012045  18 C  s         
   464     13.766200  29 C  s                13    -13.243035   2 C  s         
   174    -12.949205  11 C  s               387     12.659657  24 C  s         
   197     10.391005  12 H  s               367      9.773130  22 H  s         
   343     -9.497012  21 C  s               284      9.154990  17 N  py        

 Vector  168  Occ=0.000000D+00  E= 4.893850D-01
              MO Center=  5.0D-02,  9.0D-01,  4.1D-01, r^2= 1.9D+01
   Bfn.  Coefficient  Atom+Function         Bfn.  Coefficient  Atom+Function  
  ----- ------------  ---------------      ----- ------------  ---------------
    56     23.611997   5 C  s               174    -23.246920  11 C  s         
   234     14.912178  15 C  py              438     12.391306  27 C  py        
    13    -12.321142   2 C  s               235     11.334051  15 C  pz        
   464     11.348089  29 C  s               149      8.535028   9 C  pz        
    12     -8.271889   2 C  s               173     -7.616904  11 C  s         

 Vector  169  Occ=0.000000D+00  E= 4.930415D-01
              MO Center= -2.3D-03, -4.9D-01, -9.3D-03, r^2= 1.9D+01
   Bfn.  Coefficient  Atom+Function         Bfn.  Coefficient  Atom+Function  
  ----- ------------  ---------------      ----- ------------  ---------------
   276      8.860255  17 N  s               300     -8.286701  18 C  s         
   301     -8.110271  18 C  s               437     -8.059234  27 C  px        
   387      7.584490  24 C  s               344     -7.039405  21 C  s         
   333      6.495741  20 H  s               148     -6.199962   9 C  py        
    12      5.917145   2 C  s               324      5.209364  19 H  s         

 Vector  170  Occ=0.000000D+00  E= 4.944747D-01
              MO Center= -1.6D-02,  5.0D-01,  4.4D-01, r^2= 1.9D+01
   Bfn.  Coefficient  Atom+Function         Bfn.  Coefficient  Atom+Function  
  ----- ------------  ---------------      ----- ------------  ---------------
    56     19.610096   5 C  s               174    -18.391325  11 C  s         
   301     18.260028  18 C  s               387    -16.921789  24 C  s         
    13    -14.355199   2 C  s               149     13.245676   9 C  pz        
   173    -12.173776  11 C  s               215     10.766544  14 H  s         
   148     10.391661   9 C  py              464      8.060847  29 C  s         

 Vector  171  Occ=0.000000D+00  E= 4.997160D-01
              MO Center= -7.7D-02,  1.9D-01,  1.1D-01, r^2= 1.7D+01
   Bfn.  Coefficient  Atom+Function         Bfn.  Coefficient  Atom+Function  
  ----- ------------  ---------------      ----- ------------  ---------------
   387    -16.807239  24 C  s                56     16.384476   5 C  s         
   174    -10.303938  11 C  s               464      8.747402  29 C  s         
   235      8.252437  15 C  pz              148     -6.712062   9 C  py        
   163     -6.064082  10 H  s               439     -6.058823  27 C  pz        
   234      5.974297  15 C  py               81     -5.796529   6 O  s         

 Vector  172  Occ=0.000000D+00  E= 5.025825D-01
              MO Center= -4.7D-01,  9.7D-01,  4.1D-01, r^2= 1.8D+01
   Bfn.  Coefficient  Atom+Function         Bfn.  Coefficient  Atom+Function  
  ----- ------------  ---------------      ----- ------------  ---------------
   387     14.826007  24 C  s               174     -8.431044  11 C  s         
   139     -7.747395   9 C  s               344     -7.453059  21 C  s         
   464      7.400021  29 C  s               234      7.310837  15 C  py        
   226     -6.533713  15 C  s               386      5.856876  24 C  s         
   410     -5.404345  25 H  s               173     -5.235018  11 C  s         


 center of mass
 --------------
 x =  -0.01436410 y =  -0.04497752 z =  -0.04066177

 moments of inertia (a.u.)
 ------------------
        5821.264961046748           0.000000000001          -0.000000000000
           0.000000000001        1904.527553194458           0.000000000001
          -0.000000000000           0.000000000001        6354.366780811806

  Mulliken analysis of the total density
  --------------------------------------

    Atom       Charge   Shell Charges
 -----------   ------   -------------------------------------------------------
    1 H    1     0.97   0.76  0.22  0.01  0.03 -0.06
    2 C    6     6.41   2.01  0.66  0.28  0.17  2.07  1.05  0.01  0.06  0.11
    3 H    1     0.85   0.76  0.12  0.00  0.03 -0.06
    4 H    1     0.82   0.76  0.09  0.00  0.03 -0.06
    5 C    6     5.00   2.01  0.68  0.08 -0.13  1.90  0.29 -0.07  0.24  0.02
    6 O    8     8.74   2.01  0.82  0.99  0.16  2.79  1.83  0.15  0.01 -0.02
    7 N    7     7.76   2.01  0.72  0.87  0.00  2.45  1.45  0.15  0.05  0.06
    8 H    1     0.95   0.77  0.19 -0.02  0.05 -0.04
    9 C    6     6.52   2.01  0.66  0.27 -0.02  2.00  1.33 -0.09  0.14  0.22
   10 H    1     1.04   0.79  0.24 -0.01  0.03  0.00
   11 C    6     5.77   2.01  0.66  0.24  0.19  2.04  0.51  0.01  0.07  0.04
   12 H    1     0.88   0.77  0.15  0.01  0.03 -0.09
   13 H    1     0.98   0.77  0.22  0.02  0.03 -0.07
   14 H    1     0.91   0.77  0.20 -0.00  0.03 -0.09
   15 C    6     4.58   2.01  0.68 -0.04  0.17  1.88  0.19 -0.08  0.23 -0.45
   16 O    8     8.98   2.01  0.82  1.05  0.21  2.79  1.90  0.18  0.01  0.00
   17 N    7     7.51   2.01  0.71  0.77 -0.12  2.43  1.59 -0.08  0.06  0.13
   18 C    6     5.73   2.01  0.67  0.64 -0.31  2.01  0.33  0.12  0.12  0.14
   19 H    1     0.91   0.79  0.24 -0.04  0.03 -0.10
   20 H    1     0.91   0.79  0.17 -0.01  0.03 -0.07
   21 C    6     6.16   2.01  0.66  0.21  0.18  2.04  0.88  0.08  0.09  0.00
   22 H    1     0.96   0.78  0.23 -0.00  0.03 -0.08
   23 H    1     0.95   0.78  0.25  0.01  0.03 -0.12
   24 C    6     5.73   2.01  0.66  0.27 -0.08  2.04  0.63  0.06  0.09  0.05
   25 H    1     1.06   0.77  0.35  0.00  0.03 -0.09
   26 H    1     0.88   0.79  0.16 -0.01  0.03 -0.09
   27 C    6     6.45   2.01  0.67  0.10 -0.00  2.00  1.36  0.02  0.14  0.16
   28 H    1     1.09   0.78  0.28 -0.01  0.03  0.01
   29 C    6     4.56   2.01  0.68 -0.01  0.11  1.89 -0.13 -0.03  0.24 -0.19
   30 O    8     8.78   2.01  0.82  1.03  0.15  2.79  1.84  0.14  0.01 -0.01
   31 N    7     7.26   2.01  0.72  0.83 -0.14  2.46  1.26  0.10  0.04 -0.02
   32 H    1     0.89   0.73  0.18 -0.01  0.06 -0.07
   33 H    1     1.02   0.76  0.24 -0.01  0.05 -0.03

       Multipole analysis of the density wrt the origin
       ------------------------------------------------

     L   x y z        total         open         nuclear
     -   - - -        -----         ----         -------
     0   0 0 0     -0.000000      0.000000    122.000000

     1   1 0 0     -0.575983      0.000000     -0.000000
     1   0 1 0      1.451499      0.000000     -0.000000
     1   0 0 1      0.905021      0.000000      0.000000

     2   2 0 0    -69.092112      0.000000    703.493232
     2   1 1 0     -8.837600      0.000000    -42.240091
     2   1 0 1      0.049385      0.000000     -4.771480
     2   0 2 0    -77.913285      0.000000   2810.747006
     2   0 1 1      3.989124      0.000000     -2.047473
     2   0 0 2    -69.077140      0.000000    418.310394


 Task  times  cpu:     4806.7s     wall:     5063.7s


                                NWChem Input Module
                                -------------------


 Summary of allocated global arrays
-----------------------------------
  No active global arrays


MA_summarize_allocated_blocks: starting scan ...
MA_summarize_allocated_blocks: scan completed: 0 heap blocks, 0 stack blocks
MA usage statistics:

	allocation statistics:
					      heap	     stack
					      ----	     -----
	current number of blocks	         0	         0
	maximum number of blocks	        16	        14
	current total bytes		         0	         0
	maximum total bytes		    116888	  26223304
	maximum total K-bytes		       117	     26224
	maximum total M-bytes		         1	        27


                                     CITATION
                                     --------
                Please cite the following reference when publishing
                           results obtained with NWChem:

          E. Apra, E. J. Bylaska, W. A. de Jong, N. Govind, K. Kowalski,
       T. P. Straatsma, M. Valiev, H. J. J. van Dam, Y. Alexeev, J. Anchell,
       V. Anisimov, F. W. Aquino, R. Atta-Fynn, J. Autschbach, N. P. Bauman,
     J. C. Becca, D. E. Bernholdt, K. Bhaskaran-Nair, S. Bogatko, P. Borowski,
         J. Boschen, J. Brabec, A. Bruner, E. Cauet, Y. Chen, G. N. Chuev,
      C. J. Cramer, J. Daily, M. J. O. Deegan, T. H. Dunning Jr., M. Dupuis,
   K. G. Dyall, G. I. Fann, S. A. Fischer, A. Fonari, H. Fruchtl, L. Gagliardi,
      J. Garza, N. Gawande, S. Ghosh, K. Glaesemann, A. W. Gotz, J. Hammond,
       V. Helms, E. D. Hermes, K. Hirao, S. Hirata, M. Jacquelin, L. Jensen,
   B. G. Johnson, H. Jonsson, R. A. Kendall, M. Klemm, R. Kobayashi, V. Konkov,
      S. Krishnamoorthy, M. Krishnan, Z. Lin, R. D. Lins, R. J. Littlefield,
      A. J. Logsdail, K. Lopata, W. Ma, A. V. Marenich, J. Martin del Campo,
   D. Mejia-Rodriguez, J. E. Moore, J. M. Mullin, T. Nakajima, D. R. Nascimento,
    J. A. Nichols, P. J. Nichols, J. Nieplocha, A. Otero-de-la-Roza, B. Palmer,
    A. Panyala, T. Pirojsirikul, B. Peng, R. Peverati, J. Pittner, L. Pollack,
   R. M. Richard, P. Sadayappan, G. C. Schatz, W. A. Shelton, D. W. Silverstein,
   D. M. A. Smith, T. A. Soares, D. Song, M. Swart, H. L. Taylor, G. S. Thomas,
            V. Tipparaju, D. G. Truhlar, K. Tsemekhman, T. Van Voorhis,
      A. Vazquez-Mayagoitia, P. Verma, O. Villa, A. Vishnu, K. D. Vogiatzis,
        D. Wang, J. H. Weare, M. J. Williamson, T. L. Windus, K. Wolinski,
        A. T. Wong, Q. Wu, C. Yang, Q. Yu, M. Zacharias, Z. Zhang, Y. Zhao,
                                and R. J. Harrison
                        "NWChem: Past, present, and future
                         J. Chem. Phys. 152, 184102 (2020)
                               doi:10.1063/5.0004997

                                      AUTHORS
                                      -------
  E. Apra, E. J. Bylaska, N. Govind, K. Kowalski, M. Valiev, D. Mejia-Rodriguez,
       A. Kunitsa, N. P. Bauman, A. Panyala, W. A. de Jong, T. P. Straatsma,
   H. J. J. van Dam, D. Wang, T. L. Windus, J. Hammond, J. Autschbach, A. Woods,
    K. Bhaskaran-Nair, J. Brabec, K. Lopata, S. A. Fischer, S. Krishnamoorthy,
     M. Jacquelin, W. Ma, M. Klemm, O. Villa, Y. Chen, V. Anisimov, F. Aquino,
     S. Hirata, M. T. Hackler, E. Hermes, L. Jensen, J. E. Moore, J. C. Becca,
      V. Konjkov, T. Risthaus, M. Malagoli, A. Marenich, A. Otero-de-la-Roza,
        J. Mullin, P. Nichols, R. Peverati, J. Pittner, Y. Zhao, P.-D. Fan,
        A. Fonari, M. J. Williamson, R. J. Harrison, J. R. Rehr, M. Dupuis,
     D. Silverstein, D. M. A. Smith, J. Nieplocha, V. Tipparaju, M. Krishnan,
     B. E. Van Kuiken, A. Vazquez-Mayagoitia, M. Swart, Q. Wu, T. Van Voorhis,
     A. A. Auer, M. Nooijen, L. D. Crosby, E. Brown, G. Cisneros, G. I. Fann,
   H. Fruchtl, J. Garza, K. Hirao, R. A. Kendall, J. A. Nichols, K. Tsemekhman,
    K. Wolinski, J. Anchell, D. E. Bernholdt, P. Borowski, T. Clark, D. Clerc,
   H. Dachsel, M. J. O. Deegan, K. Dyall, D. Elwood, E. Glendening, M. Gutowski,
   A. C. Hess, J. Jaffe, B. G. Johnson, J. Ju, R. Kobayashi, R. Kutteh, Z. Lin,
   R. Littlefield, X. Long, B. Meng, T. Nakajima, S. Niu, L. Pollack, M. Rosing,
   K. Glaesemann, G. Sandrone, M. Stave, H. Taylor, G. Thomas, J. H. van Lenthe,
                               A. T. Wong, Z. Zhang.

 Total times  cpu:     4806.7s     wall:     5064.2s
