export TMOUT=5400
export TMPDIR=/tmp
export PTMPDIR=/tmp/ptmp
 argument  1 = ALA_THR_3.nw
                                         
                                         


             Northwest Computational Chemistry Package (NWChem) 7.2.0
             --------------------------------------------------------


                    Environmental Molecular Sciences Laboratory
                       Pacific Northwest National Laboratory
                                Richland, WA 99352

                              Copyright (c) 1994-2022
                       Pacific Northwest National Laboratory
                            Battelle Memorial Institute

             NWChem is an open-source computational chemistry package
                        distributed under the terms of the
                      Educational Community License (ECL) 2.0
             A copy of the license is included with this distribution
                              in the LICENSE.TXT file

                                  ACKNOWLEDGMENT
                                  --------------

            This software and its documentation were developed at the
            EMSL at Pacific Northwest National Laboratory, a multiprogram
            national laboratory, operated for the U.S. Department of Energy
            by Battelle under Contract Number DE-AC05-76RL01830. Support
            for this work was provided by the Department of Energy Office
            of Biological and Environmental Research, Office of Basic
            Energy Sciences, and the Office of Advanced Scientific Computing.


           Job information
           ---------------

    hostname        = nova18-41
    program         = /opt/rit/el9/20230413/app/linux-rhel9-x86_64_v3/gcc-11.2.1/nwchem-7.2.0-oxtctbuhfuzyfaoziquq6bki22grib3g/bin/nwchem
    date            = Mon Jun 30 13:20:16 2025

    compiled        = Wed_May_17_23:46:39_2023
    source          = /tmp/root/spack-stage/spack-stage-nwchem-7.2.0-oxtctbuhfuzyfaoziquq6bki22grib3g/spack-src
    nwchem branch   = 7.2.0
    nwchem revision = d0d141fd
    ga revision     = 5.8.0
    use scalapack   = T
    input           = ALA_THR_3.nw
    prefix          = ALA_THR_3.
    data base       = ./ALA_THR_3.db
    status          = startup
    nproc           =        8
    time left       =     -1s



           Memory information
           ------------------

    heap     =   26214394 doubles =    200.0 Mbytes
    stack    =   26214399 doubles =    200.0 Mbytes
    global   =   52428800 doubles =    400.0 Mbytes (distinct from heap & stack)
    total    =  104857593 doubles =    800.0 Mbytes
    verify   = yes
    hardfail = no 


           Directory information
           ---------------------

  0 permanent = .
  0 scratch   = .




                                NWChem Input Module
                                -------------------



 Scaling coordinates for geometry "geometry" by  1.889725989
 (inverse scale =  0.529177249)

 C1  symmetry detected

          ------
          auto-z
          ------
  no constraints, skipping    0.0000000000000000     
  no constraints, skipping    0.0000000000000000     


                             Geometry "geometry" -> ""
                             -------------------------

 Output coordinates in angstroms (scale by  1.889725989 to convert to a.u.)

  No.       Tag          Charge          X              Y              Z
 ---- ---------------- ---------- -------------- -------------- --------------
    1 H                    1.0000    -0.92611621    -5.44896682    -1.15895617
    2 C                    6.0000    -1.18586804    -5.15728044    -0.14352077
    3 H                    1.0000    -1.10989637    -6.02205281     0.51520760
    4 H                    1.0000    -2.20094662    -4.76506275    -0.11568648
    5 C                    6.0000    -0.22415885    -4.09483602     0.33390808
    6 O                    8.0000     0.47458849    -4.29551624     1.31704062
    7 N                    7.0000    -0.19677076    -2.96171650    -0.36391714
    8 H                    1.0000    -0.83050009    -2.85701810    -1.14233245
    9 C                    6.0000     0.65053437    -1.81041630    -0.05027585
   10 H                    1.0000     0.78564718    -1.75420224     1.03119514
   11 C                    6.0000     2.02714439    -2.01396931    -0.70086021
   12 H                    1.0000     2.47660579    -2.93775201    -0.33014608
   13 H                    1.0000     1.92162271    -2.07530782    -1.78480198
   14 H                    1.0000     2.68455341    -1.18153478    -0.45004526
   15 C                    6.0000    -0.00524530    -0.49728272    -0.51424053
   16 O                    8.0000    -0.90672247    -0.50216896    -1.35312314
   17 N                    7.0000     0.45088297     0.63753702     0.02163274
   18 H                    1.0000     1.22204308     0.59636108     0.67507334
   19 C                    6.0000    -0.00839529     1.98266117    -0.36350427
   20 H                    1.0000    -0.14059163     2.00044282    -1.44533372
   21 C                    6.0000    -1.37467351     2.29146943     0.27750999
   22 H                    1.0000    -2.03866990     1.43935095     0.12785406
   23 C                    6.0000    -1.31340158     2.59448866     1.77513447
   24 H                    1.0000    -2.32631539     2.72226741     2.15717400
   25 H                    1.0000    -0.84104511     1.76705587     2.30278334
   26 H                    1.0000    -0.75150299     3.50993894     1.95970634
   27 O                    8.0000    -1.95265661     3.40521086    -0.36297229
   28 H                    1.0000    -2.49106408     3.07295707    -1.08722558
   29 C                    6.0000     1.05187945     3.03858164    -0.01797793
   30 O                    8.0000     2.04134100     2.73895786     0.64282494
   31 N                    7.0000     0.88766201     4.27714224    -0.46088453
   32 H                    1.0000     0.02994412     4.52466110    -0.93006620
   33 H                    1.0000     1.58451549     4.96575799    -0.22941621

      Atomic Mass 
      ----------- 

      H                  1.007825
      C                 12.000000
      O                 15.994910
      N                 14.003070


 Effective nuclear repulsion energy (a.u.)    1164.0845379482

            Nuclear Dipole moment (a.u.) 
            ----------------------------
        X                 Y               Z
 ---------------- ---------------- ----------------
     0.0000000000    -0.0000000000     0.0000000000



                                Z-matrix (autoz)
                                -------- 

 Units are Angstrom for bonds and degrees for angles

      Type          Name      I     J     K     L     M      Value
      ----------- --------  ----- ----- ----- ----- ----- ----------
    1 Stretch                  1     2                       1.08796
    2 Stretch                  2     3                       1.08974
    3 Stretch                  2     4                       1.08857
    4 Stretch                  2     5                       1.51050
    5 Stretch                  5     6                       1.22273
    6 Stretch                  5     7                       1.33104
    7 Stretch                  7     8                       1.00921
    8 Stretch                  7     9                       1.46349
    9 Stretch                  9    10                       1.09133
   10 Stretch                  9    11                       1.53615
   11 Stretch                  9    15                       1.53936
   12 Stretch                 11    12                       1.09216
   13 Stretch                 11    13                       1.09079
   14 Stretch                 11    14                       1.08997
   15 Stretch                 15    16                       1.23143
   16 Stretch                 15    17                       1.33530
   17 Stretch                 17    18                       1.01162
   18 Stretch                 17    19                       1.47263
   19 Stretch                 19    20                       1.09002
   20 Stretch                 19    21                       1.54045
   21 Stretch                 19    29                       1.53575
   22 Stretch                 21    22                       1.09059
   23 Stretch                 21    23                       1.52920
   24 Stretch                 21    27                       1.40879
   25 Stretch                 23    24                       1.09008
   26 Stretch                 23    25                       1.08912
   27 Stretch                 23    26                       1.08988
   28 Stretch                 27    28                       0.96167
   29 Stretch                 29    30                       1.22698
   30 Stretch                 29    31                       1.32558
   31 Stretch                 31    32                       1.00850
   32 Stretch                 31    33                       1.00666
   33 Bend                     1     2     3               109.55955
   34 Bend                     1     2     4               110.06556
   35 Bend                     1     2     5               109.36417
   36 Bend                     2     5     6               120.16809
   37 Bend                     2     5     7               116.49861
   38 Bend                     3     2     4               109.60146
   39 Bend                     3     2     5               108.82756
   40 Bend                     4     2     5               109.40156
   41 Bend                     5     7     8               118.67048
   42 Bend                     5     7     9               124.69882
   43 Bend                     6     5     7               123.33265
   44 Bend                     7     9    10               108.93994
   45 Bend                     7     9    11               108.89461
   46 Bend                     7     9    15               111.09005
   47 Bend                     8     7     9               116.56712
   48 Bend                     9    11    12               109.70140
   49 Bend                     9    11    13               109.97541
   50 Bend                     9    11    14               109.98945
   51 Bend                     9    15    16               120.91738
   52 Bend                     9    15    17               117.28951
   53 Bend                    10     9    11               108.39519
   54 Bend                    10     9    15               107.90751
   55 Bend                    11     9    15               111.54004
   56 Bend                    12    11    13               109.24130
   57 Bend                    12    11    14               108.64215
   58 Bend                    13    11    14               109.26631
   59 Bend                    15    17    18               119.01431
   60 Bend                    15    17    19               124.38760
   61 Bend                    16    15    17               121.79110
   62 Bend                    17    19    20               108.19729
   63 Bend                    17    19    21               110.54215
   64 Bend                    17    19    29               110.72418
   65 Bend                    18    17    19               116.35023
   66 Bend                    19    21    22               109.04242
   67 Bend                    19    21    23               114.31265
   68 Bend                    19    21    27               109.46194
   69 Bend                    19    29    30               120.66516
   70 Bend                    19    29    31               118.79782
   71 Bend                    20    19    21               107.58727
   72 Bend                    20    19    29               107.20618
   73 Bend                    21    19    29               112.38821
   74 Bend                    21    23    24               109.22195
   75 Bend                    21    23    25               109.95630
   76 Bend                    21    23    26               110.66796
   77 Bend                    21    27    28               107.39450
   78 Bend                    22    21    23               108.27701
   79 Bend                    22    21    27               107.78950
   80 Bend                    23    21    27               107.75986
   81 Bend                    24    23    25               108.79997
   82 Bend                    24    23    26               108.73861
   83 Bend                    25    23    26               109.41989
   84 Bend                    29    31    32               119.34872
   85 Bend                    29    31    33               118.46139
   86 Bend                    30    29    31               120.53166
   87 Bend                    32    31    33               121.85852
   88 Torsion                  1     2     5     6        -119.64018
   89 Torsion                  1     2     5     7          60.64233
   90 Torsion                  2     5     7     8           2.11157
   91 Torsion                  2     5     7     9         179.10585
   92 Torsion                  3     2     5     6           0.01336
   93 Torsion                  3     2     5     7        -179.70413
   94 Torsion                  4     2     5     6         119.73999
   95 Torsion                  4     2     5     7         -59.97750
   96 Torsion                  5     7     9    10         -32.21796
   97 Torsion                  5     7     9    11          85.82193
   98 Torsion                  5     7     9    15        -150.95329
   99 Torsion                  6     5     7     8        -177.59609
  100 Torsion                  6     5     7     9          -0.60182
  101 Torsion                  7     9    11    12         -58.63908
  102 Torsion                  7     9    11    13          61.53312
  103 Torsion                  7     9    11    14        -178.08182
  104 Torsion                  7     9    15    16         -18.77830
  105 Torsion                  7     9    15    17         161.72861
  106 Torsion                  8     7     9    10         144.83356
  107 Torsion                  8     7     9    11         -97.12655
  108 Torsion                  8     7     9    15          26.09823
  109 Torsion                  9    15    17    18           2.31401
  110 Torsion                  9    15    17    19         176.37580
  111 Torsion                 10     9    11    12          59.74389
  112 Torsion                 10     9    11    13         179.91608
  113 Torsion                 10     9    11    14         -59.69886
  114 Torsion                 10     9    15    16        -138.13294
  115 Torsion                 10     9    15    17          42.37397
  116 Torsion                 11     9    15    16         102.91462
  117 Torsion                 11     9    15    17         -76.57847
  118 Torsion                 12    11     9    15         178.40558
  119 Torsion                 13    11     9    15         -61.42222
  120 Torsion                 14    11     9    15          58.96284
  121 Torsion                 15    17    19    20         -39.80772
  122 Torsion                 15    17    19    21          77.76322
  123 Torsion                 15    17    19    29        -157.02087
  124 Torsion                 16    15    17    18        -177.17435
  125 Torsion                 16    15    17    19          -3.11256
  126 Torsion                 17    19    21    22         -47.11359
  127 Torsion                 17    19    21    23          74.21795
  128 Torsion                 17    19    21    27        -164.80841
  129 Torsion                 17    19    29    30          -8.39250
  130 Torsion                 17    19    29    31         170.76957
  131 Torsion                 18    17    19    20         134.39770
  132 Torsion                 18    17    19    21        -108.03136
  133 Torsion                 18    17    19    29          17.18455
  134 Torsion                 19    21    23    24        -175.57137
  135 Torsion                 19    21    23    25         -56.25063
  136 Torsion                 19    21    23    26          64.74915
  137 Torsion                 19    21    27    28          90.91137
  138 Torsion                 19    29    31    32           6.32961
  139 Torsion                 19    29    31    33         179.84451
  140 Torsion                 20    19    21    22          70.83155
  141 Torsion                 20    19    21    23        -167.83692
  142 Torsion                 20    19    21    27         -46.86328
  143 Torsion                 20    19    29    30        -126.21291
  144 Torsion                 20    19    29    31          52.94916
  145 Torsion                 21    19    29    30         115.77470
  146 Torsion                 21    19    29    31         -65.06323
  147 Torsion                 22    21    19    29        -171.38158
  148 Torsion                 22    21    23    24         -53.81872
  149 Torsion                 22    21    23    25          65.50201
  150 Torsion                 22    21    23    26        -173.49821
  151 Torsion                 22    21    27    28         -27.56525
  152 Torsion                 23    21    19    29         -50.05005
  153 Torsion                 23    21    27    28        -144.21986
  154 Torsion                 24    23    21    27          62.51749
  155 Torsion                 25    23    21    27        -178.16177
  156 Torsion                 26    23    21    27         -57.16199
  157 Torsion                 27    21    19    29          70.92359
  158 Torsion                 30    29    31    32        -174.50716
  159 Torsion                 30    29    31    33          -0.99226


            XYZ format geometry
            -------------------
    33
 geometry
 H                    -0.92611621    -5.44896682    -1.15895617
 C                    -1.18586804    -5.15728044    -0.14352077
 H                    -1.10989637    -6.02205281     0.51520760
 H                    -2.20094662    -4.76506275    -0.11568648
 C                    -0.22415885    -4.09483602     0.33390808
 O                     0.47458849    -4.29551624     1.31704062
 N                    -0.19677076    -2.96171650    -0.36391714
 H                    -0.83050009    -2.85701810    -1.14233245
 C                     0.65053437    -1.81041630    -0.05027585
 H                     0.78564718    -1.75420224     1.03119514
 C                     2.02714439    -2.01396931    -0.70086021
 H                     2.47660579    -2.93775201    -0.33014608
 H                     1.92162271    -2.07530782    -1.78480198
 H                     2.68455341    -1.18153478    -0.45004526
 C                    -0.00524530    -0.49728272    -0.51424053
 O                    -0.90672247    -0.50216896    -1.35312314
 N                     0.45088297     0.63753702     0.02163274
 H                     1.22204308     0.59636108     0.67507334
 C                    -0.00839529     1.98266117    -0.36350427
 H                    -0.14059163     2.00044282    -1.44533372
 C                    -1.37467351     2.29146943     0.27750999
 H                    -2.03866990     1.43935095     0.12785406
 C                    -1.31340158     2.59448866     1.77513447
 H                    -2.32631539     2.72226741     2.15717400
 H                    -0.84104511     1.76705587     2.30278334
 H                    -0.75150299     3.50993894     1.95970634
 O                    -1.95265661     3.40521086    -0.36297229
 H                    -2.49106408     3.07295707    -1.08722558
 C                     1.05187945     3.03858164    -0.01797793
 O                     2.04134100     2.73895786     0.64282494
 N                     0.88766201     4.27714224    -0.46088453
 H                     0.02994412     4.52466110    -0.93006620
 H                     1.58451549     4.96575799    -0.22941621

 ==============================================================================
                                internuclear distances
 ------------------------------------------------------------------------------
       center one      |      center two      | atomic units |  angstroms
 ------------------------------------------------------------------------------
    2 C                |   1 H                |     2.05595  |     1.08796
    3 H                |   2 C                |     2.05930  |     1.08974
    4 H                |   2 C                |     2.05711  |     1.08857
    5 C                |   2 C                |     2.85443  |     1.51050
    6 O                |   5 C                |     2.31063  |     1.22273
    7 N                |   5 C                |     2.51530  |     1.33104
    8 H                |   7 N                |     1.90713  |     1.00921
    9 C                |   7 N                |     2.76559  |     1.46349
   10 H                |   9 C                |     2.06231  |     1.09133
   11 C                |   9 C                |     2.90290  |     1.53615
   12 H                |  11 C                |     2.06389  |     1.09216
   13 H                |  11 C                |     2.06130  |     1.09079
   14 H                |  11 C                |     2.05975  |     1.08997
   15 C                |   9 C                |     2.90897  |     1.53936
   16 O                |  15 C                |     2.32706  |     1.23143
   17 N                |  15 C                |     2.52335  |     1.33530
   18 H                |  17 N                |     1.91168  |     1.01162
   19 C                |  17 N                |     2.78286  |     1.47263
   20 H                |  19 C                |     2.05984  |     1.09002
   21 C                |  19 C                |     2.91102  |     1.54045
   22 H                |  21 C                |     2.06092  |     1.09059
   23 C                |  21 C                |     2.88977  |     1.52920
   24 H                |  23 C                |     2.05995  |     1.09008
   25 H                |  23 C                |     2.05814  |     1.08912
   26 H                |  23 C                |     2.05958  |     1.08988
   27 O                |  21 C                |     2.66224  |     1.40879
   28 H                |  27 O                |     1.81730  |     0.96167
   29 C                |  19 C                |     2.90215  |     1.53575
   30 O                |  29 C                |     2.31865  |     1.22698
   31 N                |  29 C                |     2.50499  |     1.32558
   32 H                |  31 N                |     1.90579  |     1.00850
   33 H                |  31 N                |     1.90232  |     1.00666
 ------------------------------------------------------------------------------
                         number of included internuclear distances:         32
 ==============================================================================



 ==============================================================================
                                 internuclear angles
 ------------------------------------------------------------------------------
        center 1       |       center 2       |       center 3       |  degrees
 ------------------------------------------------------------------------------
    1 H                |   2 C                |   3 H                |   109.56
    1 H                |   2 C                |   4 H                |   110.07
    1 H                |   2 C                |   5 C                |   109.36
    3 H                |   2 C                |   4 H                |   109.60
    3 H                |   2 C                |   5 C                |   108.83
    4 H                |   2 C                |   5 C                |   109.40
    2 C                |   5 C                |   6 O                |   120.17
    2 C                |   5 C                |   7 N                |   116.50
    6 O                |   5 C                |   7 N                |   123.33
    5 C                |   7 N                |   8 H                |   118.67
    5 C                |   7 N                |   9 C                |   124.70
    8 H                |   7 N                |   9 C                |   116.57
    7 N                |   9 C                |  10 H                |   108.94
    7 N                |   9 C                |  11 C                |   108.89
    7 N                |   9 C                |  15 C                |   111.09
   10 H                |   9 C                |  11 C                |   108.40
   10 H                |   9 C                |  15 C                |   107.91
   11 C                |   9 C                |  15 C                |   111.54
    9 C                |  11 C                |  12 H                |   109.70
    9 C                |  11 C                |  13 H                |   109.98
    9 C                |  11 C                |  14 H                |   109.99
   12 H                |  11 C                |  13 H                |   109.24
   12 H                |  11 C                |  14 H                |   108.64
   13 H                |  11 C                |  14 H                |   109.27
    9 C                |  15 C                |  16 O                |   120.92
    9 C                |  15 C                |  17 N                |   117.29
   16 O                |  15 C                |  17 N                |   121.79
   15 C                |  17 N                |  18 H                |   119.01
   15 C                |  17 N                |  19 C                |   124.39
   18 H                |  17 N                |  19 C                |   116.35
   17 N                |  19 C                |  20 H                |   108.20
   17 N                |  19 C                |  21 C                |   110.54
   17 N                |  19 C                |  29 C                |   110.72
   20 H                |  19 C                |  21 C                |   107.59
   20 H                |  19 C                |  29 C                |   107.21
   21 C                |  19 C                |  29 C                |   112.39
   19 C                |  21 C                |  22 H                |   109.04
   19 C                |  21 C                |  23 C                |   114.31
   19 C                |  21 C                |  27 O                |   109.46
   22 H                |  21 C                |  23 C                |   108.28
   22 H                |  21 C                |  27 O                |   107.79
   23 C                |  21 C                |  27 O                |   107.76
   21 C                |  23 C                |  24 H                |   109.22
   21 C                |  23 C                |  25 H                |   109.96
   21 C                |  23 C                |  26 H                |   110.67
   24 H                |  23 C                |  25 H                |   108.80
   24 H                |  23 C                |  26 H                |   108.74
   25 H                |  23 C                |  26 H                |   109.42
   21 C                |  27 O                |  28 H                |   107.39
   19 C                |  29 C                |  30 O                |   120.67
   19 C                |  29 C                |  31 N                |   118.80
   30 O                |  29 C                |  31 N                |   120.53
   29 C                |  31 N                |  32 H                |   119.35
   29 C                |  31 N                |  33 H                |   118.46
   32 H                |  31 N                |  33 H                |   121.86
 ------------------------------------------------------------------------------
                            number of included internuclear angles:         55
 ==============================================================================



  library name resolved from: environment
  library file name is: </opt/rit/el9/20230413/app/linux-rhel9-x86_64_v3/gcc-11.2.1/nwchem-7.2.0-oxtctbuhfuzyfaoziquq6bki22grib3g/share/nwchem/libraries/>
  


 Summary of "ao basis" -> "" (cartesian)
 ------------------------------------------------------------------------------
       Tag                 Description            Shells   Functions and Types
 ---------------- ------------------------------  ------  ---------------------
 *                        aug-cc-pvdz                 on all atoms 


                      Basis "ao basis" -> "ao basis" (cartesian)
                      -----
  H (Hydrogen)
  ------------
            Exponent  Coefficients 
       -------------- ---------------------------------------------------------
  1 S  1.30100000E+01  0.019685
  1 S  1.96200000E+00  0.137977
  1 S  4.44600000E-01  0.478148

  2 S  1.22000000E-01  1.000000

  3 S  2.97400000E-02  1.000000

  4 P  7.27000000E-01  1.000000

  5 P  1.41000000E-01  1.000000

  C (Carbon)
  ----------
            Exponent  Coefficients 
       -------------- ---------------------------------------------------------
  1 S  6.66500000E+03  0.000692
  1 S  1.00000000E+03  0.005329
  1 S  2.28000000E+02  0.027077
  1 S  6.47100000E+01  0.101718
  1 S  2.10600000E+01  0.274740
  1 S  7.49500000E+00  0.448564
  1 S  2.79700000E+00  0.285074
  1 S  5.21500000E-01  0.015204

  2 S  6.66500000E+03 -0.000146
  2 S  1.00000000E+03 -0.001154
  2 S  2.28000000E+02 -0.005725
  2 S  6.47100000E+01 -0.023312
  2 S  2.10600000E+01 -0.063955
  2 S  7.49500000E+00 -0.149981
  2 S  2.79700000E+00 -0.127262
  2 S  5.21500000E-01  0.544529

  3 S  1.59600000E-01  1.000000

  4 S  4.69000000E-02  1.000000

  5 P  9.43900000E+00  0.038109
  5 P  2.00200000E+00  0.209480
  5 P  5.45600000E-01  0.508557

  6 P  1.51700000E-01  1.000000

  7 P  4.04100000E-02  1.000000

  8 D  5.50000000E-01  1.000000

  9 D  1.51000000E-01  1.000000

  O (Oxygen)
  ----------
            Exponent  Coefficients 
       -------------- ---------------------------------------------------------
  1 S  1.17200000E+04  0.000710
  1 S  1.75900000E+03  0.005470
  1 S  4.00800000E+02  0.027837
  1 S  1.13700000E+02  0.104800
  1 S  3.70300000E+01  0.283062
  1 S  1.32700000E+01  0.448719
  1 S  5.02500000E+00  0.270952
  1 S  1.01300000E+00  0.015458

  2 S  1.17200000E+04 -0.000160
  2 S  1.75900000E+03 -0.001263
  2 S  4.00800000E+02 -0.006267
  2 S  1.13700000E+02 -0.025716
  2 S  3.70300000E+01 -0.070924
  2 S  1.32700000E+01 -0.165411
  2 S  5.02500000E+00 -0.116955
  2 S  1.01300000E+00  0.557368

  3 S  3.02300000E-01  1.000000

  4 S  7.89600000E-02  1.000000

  5 P  1.77000000E+01  0.043018
  5 P  3.85400000E+00  0.228913
  5 P  1.04600000E+00  0.508728

  6 P  2.75300000E-01  1.000000

  7 P  6.85600000E-02  1.000000

  8 D  1.18500000E+00  1.000000

  9 D  3.32000000E-01  1.000000

  N (Nitrogen)
  ------------
            Exponent  Coefficients 
       -------------- ---------------------------------------------------------
  1 S  9.04600000E+03  0.000700
  1 S  1.35700000E+03  0.005389
  1 S  3.09300000E+02  0.027406
  1 S  8.77300000E+01  0.103207
  1 S  2.85600000E+01  0.278723
  1 S  1.02100000E+01  0.448540
  1 S  3.83800000E+00  0.278238
  1 S  7.46600000E-01  0.015440

  2 S  9.04600000E+03 -0.000153
  2 S  1.35700000E+03 -0.001208
  2 S  3.09300000E+02 -0.005992
  2 S  8.77300000E+01 -0.024544
  2 S  2.85600000E+01 -0.067459
  2 S  1.02100000E+01 -0.158078
  2 S  3.83800000E+00 -0.121831
  2 S  7.46600000E-01  0.549003

  3 S  2.24800000E-01  1.000000

  4 S  6.12400000E-02  1.000000

  5 P  1.35500000E+01  0.039919
  5 P  2.91700000E+00  0.217169
  5 P  7.97300000E-01  0.510319

  6 P  2.18500000E-01  1.000000

  7 P  5.61100000E-02  1.000000

  8 D  8.17000000E-01  1.000000

  9 D  2.30000000E-01  1.000000



 Summary of "ao basis" -> "ao basis" (cartesian)
 ------------------------------------------------------------------------------
       Tag                 Description            Shells   Functions and Types
 ---------------- ------------------------------  ------  ---------------------
 H                        aug-cc-pvdz                5        9   3s2p
 C                        aug-cc-pvdz                9       25   4s3p2d
 O                        aug-cc-pvdz                9       25   4s3p2d
 N                        aug-cc-pvdz                9       25   4s3p2d


                                 NWChem SCF Module
                                 -----------------



  ao basis        = "ao basis"
  functions       =   553
  atoms           =    33
  closed shells   =    62
  open shells     =     0
  charge          =   0.00
  wavefunction    = RHF 
  input vectors   = atomic
  output vectors  = ./ALA_THR_3.movecs
  use symmetry    = F
  symmetry adapt  = F


 Summary of "ao basis" -> "ao basis" (cartesian)
 ------------------------------------------------------------------------------
       Tag                 Description            Shells   Functions and Types
 ---------------- ------------------------------  ------  ---------------------
 H                        aug-cc-pvdz                5        9   3s2p
 C                        aug-cc-pvdz                9       25   4s3p2d
 O                        aug-cc-pvdz                9       25   4s3p2d
 N                        aug-cc-pvdz                9       25   4s3p2d



 Forming initial guess at       1.4s


 !! The overlap matrix has   4 vectors deemed linearly dependent with
    eigenvalues:
 2.49D-06 3.16D-06 8.50D-06 9.40D-06


      Superposition of Atomic Density Guess
      -------------------------------------

 Sum of atomic energies:        -809.46727949

      Non-variational initial energy
      ------------------------------

 Total energy =    -819.596938
 1-e energy   =   -3413.417177
 2-e energy   =    1429.735701
 HOMO         =      -0.307376
 LUMO         =       0.008653


 Starting SCF solution at     225.3s



 ----------------------------------------------
         Quadratically convergent ROHF

 Convergence threshold     :          1.000E-04
 Maximum no. of iterations :           30
 Final Fock-matrix accuracy:          1.000E-10
 ----------------------------------------------


              iter       energy          gnorm     gmax       time
             ----- ------------------- --------- --------- --------
                 1     -813.3100171890  2.49D+00  1.27D-01    455.0
                 2     -813.6378439794  8.20D-01  5.07D-02    895.7
                 3     -813.6962331784  6.34D-02  5.37D-03   1563.9
                 4     -813.6968322566  3.70D-03  3.73D-04   2413.1
                 5     -813.6968349529  6.23D-06  4.14D-07   3830.7


       Final RHF  results 
       ------------------ 

         Total SCF energy =   -813.696834952865
      One-electron energy =  -3424.948216032351
      Two-electron energy =   1447.166843131315
 Nuclear repulsion energy =   1164.084537948172

        Time for solution =   3612.5s


             Final eigenvalues
             -----------------

              1      
    1  -20.5934
    2  -20.5427
    3  -20.5412
    4  -20.5171
    5  -15.6120
    6  -15.6066
    7  -15.5925
    8  -11.3756
    9  -11.3735
   10  -11.3493
   11  -11.3110
   12  -11.3094
   13  -11.3002
   14  -11.2382
   15  -11.2372
   16  -11.2345
   17   -1.4089
   18   -1.3991
   19   -1.3975
   20   -1.3794
   21   -1.2537
   22   -1.2411
   23   -1.2359
   24   -1.0792
   25   -1.0491
   26   -0.9926
   27   -0.9808
   28   -0.8973
   29   -0.8597
   30   -0.8274
   31   -0.7915
   32   -0.7877
   33   -0.7689
   34   -0.7280
   35   -0.7217
   36   -0.6839
   37   -0.6793
   38   -0.6710
   39   -0.6560
   40   -0.6485
   41   -0.6283
   42   -0.6118
   43   -0.6041
   44   -0.5977
   45   -0.5849
   46   -0.5797
   47   -0.5641
   48   -0.5627
   49   -0.5550
   50   -0.5474
   51   -0.5440
   52   -0.5330
   53   -0.5260
   54   -0.5024
   55   -0.4976
   56   -0.4793
   57   -0.4402
   58   -0.4372
   59   -0.4260
   60   -0.4154
   61   -0.4075
   62   -0.3905
   63    0.0265
   64    0.0355
   65    0.0396
   66    0.0424
   67    0.0484
   68    0.0544
   69    0.0569
   70    0.0619
   71    0.0650
   72    0.0697

                       ROHF Final Molecular Orbital Analysis
                       -------------------------------------

 Vector   17  Occ=2.000000D+00  E=-1.408861D+00
              MO Center=  1.6D-01,  2.1D+00, -1.6D-01, r^2= 5.5D+00
   Bfn.  Coefficient  Atom+Function         Bfn.  Coefficient  Atom+Function  
  ----- ------------  ---------------      ----- ------------  ---------------
   488      0.252198  30 O  s               487      0.235252  30 O  s         
   429      0.225193  27 O  s               428      0.201094  27 O  s         
   250      0.178306  16 O  s               462      0.173924  29 C  s         
   249      0.166232  16 O  s         

 Vector   18  Occ=2.000000D+00  E=-1.399061D+00
              MO Center= -8.3D-01,  6.9D-01, -7.0D-01, r^2= 5.1D+00
   Bfn.  Coefficient  Atom+Function         Bfn.  Coefficient  Atom+Function  
  ----- ------------  ---------------      ----- ------------  ---------------
   250      0.296882  16 O  s               249      0.284656  16 O  s         
   429     -0.245813  27 O  s               428     -0.222477  27 O  s         
   224      0.195907  15 C  s         

 Vector   19  Occ=2.000000D+00  E=-1.397462D+00
              MO Center= -9.6D-02,  2.8D+00, -5.4D-02, r^2= 4.9D+00
   Bfn.  Coefficient  Atom+Function         Bfn.  Coefficient  Atom+Function  
  ----- ------------  ---------------      ----- ------------  ---------------
   429      0.310374  27 O  s               488     -0.276117  30 O  s         
   428      0.273317  27 O  s               487     -0.251481  30 O  s         
   462     -0.168718  29 C  s         

 Vector   20  Occ=2.000000D+00  E=-1.379446D+00
              MO Center=  1.7D-01, -3.9D+00,  7.8D-01, r^2= 1.6D+00
   Bfn.  Coefficient  Atom+Function         Bfn.  Coefficient  Atom+Function  
  ----- ------------  ---------------      ----- ------------  ---------------
    79      0.344295   6 O  s                80      0.345395   6 O  s         
    54      0.243022   5 C  s                12      0.162540   2 C  s         

 Vector   21  Occ=2.000000D+00  E=-1.253719D+00
              MO Center=  2.1D-01,  5.5D-01, -2.2D-01, r^2= 1.7D+00
   Bfn.  Coefficient  Atom+Function         Bfn.  Coefficient  Atom+Function  
  ----- ------------  ---------------      ----- ------------  ---------------
   275      0.435189  17 N  s               274      0.345111  17 N  s         
   250     -0.219265  16 O  s               249     -0.183571  16 O  s         
   298      0.152684  18 H  s         

 Vector   22  Occ=2.000000D+00  E=-1.241060D+00
              MO Center= -2.5D-02, -3.1D+00, -7.6D-02, r^2= 1.8D+00
   Bfn.  Coefficient  Atom+Function         Bfn.  Coefficient  Atom+Function  
  ----- ------------  ---------------      ----- ------------  ---------------
   105      0.440362   7 N  s               104      0.342809   7 N  s         
    80     -0.213609   6 O  s                79     -0.185793   6 O  s         
   128      0.152898   8 H  s         

 Vector   23  Occ=2.000000D+00  E=-1.235863D+00
              MO Center=  1.0D+00,  3.9D+00, -2.7D-01, r^2= 1.4D+00
   Bfn.  Coefficient  Atom+Function         Bfn.  Coefficient  Atom+Function  
  ----- ------------  ---------------      ----- ------------  ---------------
   513      0.385552  31 N  s               512      0.369075  31 N  s         
   488     -0.218695  30 O  s               487     -0.183702  30 O  s         
   536      0.167105  32 H  s               469     -0.158963  29 C  py        
   466      0.157809  29 C  py              545      0.155738  33 H  s         

 Vector   24  Occ=2.000000D+00  E=-1.079155D+00
              MO Center= -1.2D-01,  4.6D-01, -6.6D-03, r^2= 7.7D+00
   Bfn.  Coefficient  Atom+Function         Bfn.  Coefficient  Atom+Function  
  ----- ------------  ---------------      ----- ------------  ---------------
   308      0.197631  19 C  s               309      0.176522  19 C  s         
   342      0.164792  21 C  s               138     -0.159744   9 C  s         

 Vector   25  Occ=2.000000D+00  E=-1.049073D+00
              MO Center= -6.4D-02, -7.3D-01,  8.2D-02, r^2= 1.0D+01
   Bfn.  Coefficient  Atom+Function         Bfn.  Coefficient  Atom+Function  
  ----- ------------  ---------------      ----- ------------  ---------------
   309      0.226970  19 C  s               138      0.185018   9 C  s         
   172      0.169753  11 C  s               342      0.153329  21 C  s         

 Vector   26  Occ=2.000000D+00  E=-9.926408D-01
              MO Center= -7.3D-01, -2.3D+00,  1.6D-01, r^2= 1.4D+01
   Bfn.  Coefficient  Atom+Function         Bfn.  Coefficient  Atom+Function  
  ----- ------------  ---------------      ----- ------------  ---------------
    11      0.277172   2 C  s               350      0.183796  21 C  pz        
   314     -0.163160  19 C  px              376      0.161782  23 C  s         

 Vector   27  Occ=2.000000D+00  E=-9.808497D-01
              MO Center= -1.5D-01,  3.6D-02,  2.1D-01, r^2= 1.3D+01
   Bfn.  Coefficient  Atom+Function         Bfn.  Coefficient  Atom+Function  
  ----- ------------  ---------------      ----- ------------  ---------------
   350      0.225229  21 C  pz              225     -0.209455  15 C  s         
   376      0.199774  23 C  s               144     -0.194385   9 C  px        
   314     -0.191536  19 C  px              308     -0.180644  19 C  s         
   172     -0.163905  11 C  s                11     -0.161905   2 C  s         

 Vector   28  Occ=2.000000D+00  E=-8.972825D-01
              MO Center=  9.1D-01, -1.5D+00, -3.8D-01, r^2= 6.0D+00
   Bfn.  Coefficient  Atom+Function         Bfn.  Coefficient  Atom+Function  
  ----- ------------  ---------------      ----- ------------  ---------------
   144      0.294355   9 C  px              172      0.248890  11 C  s         
   145     -0.243895   9 C  py              225      0.207323  15 C  s         
   139     -0.205505   9 C  s               309     -0.182150  19 C  s         
   231     -0.168899  15 C  py              138     -0.167841   9 C  s         

 Vector   29  Occ=2.000000D+00  E=-8.597142D-01
              MO Center= -6.0D-01,  2.6D+00,  3.8D-01, r^2= 4.4D+00
   Bfn.  Coefficient  Atom+Function         Bfn.  Coefficient  Atom+Function  
  ----- ------------  ---------------      ----- ------------  ---------------
   344     -0.259664  21 C  s               139      0.242251   9 C  s         
   367      0.221832  22 H  s               342      0.219366  21 C  s         
   376     -0.175619  23 C  s               311     -0.172128  19 C  px        
   366      0.165508  22 H  s               462     -0.156163  29 C  s         
   315     -0.154742  19 C  py        

 Vector   30  Occ=2.000000D+00  E=-8.273675D-01
              MO Center=  4.2D-01,  9.3D-01, -2.1D-01, r^2= 1.0D+01
   Bfn.  Coefficient  Atom+Function         Bfn.  Coefficient  Atom+Function  
  ----- ------------  ---------------      ----- ------------  ---------------
   309      0.244746  19 C  s               516     -0.229710  31 N  py        
   278     -0.208291  17 N  py              225      0.200906  15 C  s         
   469      0.174029  29 C  py              108     -0.157974   7 N  py        
   462      0.155835  29 C  s         

 Vector   31  Occ=2.000000D+00  E=-7.915169D-01
              MO Center= -3.7D-02,  3.9D-01, -1.1D-01, r^2= 1.1D+01
   Bfn.  Coefficient  Atom+Function         Bfn.  Coefficient  Atom+Function  
  ----- ------------  ---------------      ----- ------------  ---------------
   275      0.226123  17 N  s               139     -0.203276   9 C  s         
   128      0.189735   8 H  s               109     -0.174953   7 N  pz        
   298      0.173572  18 H  s               105      0.162841   7 N  s         
   333     -0.162398  20 H  s                55     -0.155156   5 C  s         
   516     -0.154623  31 N  py        

 Vector   32  Occ=2.000000D+00  E=-7.876683D-01
              MO Center=  1.2D-02, -1.1D+00, -1.2D-01, r^2= 7.0D+00
   Bfn.  Coefficient  Atom+Function         Bfn.  Coefficient  Atom+Function  
  ----- ------------  ---------------      ----- ------------  ---------------
   225      0.350256  15 C  s               128      0.225625   8 H  s         
   109     -0.211982   7 N  pz              105      0.202205   7 N  s         
   298     -0.197586  18 H  s               139     -0.178839   9 C  s         
   163     -0.171176  10 H  s               144      0.169656   9 C  px        
   279     -0.165678  17 N  pz               55     -0.163591   5 C  s         

 Vector   33  Occ=2.000000D+00  E=-7.689490D-01
              MO Center=  1.2D-01,  2.5D+00, -2.8D-01, r^2= 8.0D+00
   Bfn.  Coefficient  Atom+Function         Bfn.  Coefficient  Atom+Function  
  ----- ------------  ---------------      ----- ------------  ---------------
   536     -0.254583  32 H  s               515      0.251061  31 N  px        
   463      0.160105  29 C  s               315     -0.155729  19 C  py        
   464     -0.150531  29 C  s         

 Vector   34  Occ=2.000000D+00  E=-7.279839D-01
              MO Center= -7.7D-01,  1.6D-01, -2.0D-01, r^2= 1.1D+01
   Bfn.  Coefficient  Atom+Function         Bfn.  Coefficient  Atom+Function  
  ----- ------------  ---------------      ----- ------------  ---------------
   433     -0.218986  27 O  pz              452      0.213011  28 H  s         
   145      0.211340   9 C  py              142      0.191581   9 C  py        
   228     -0.186793  15 C  py              225     -0.174063  15 C  s         
   346     -0.170108  21 C  py              431     -0.169089  27 O  px        
   314     -0.154862  19 C  px        

 Vector   35  Occ=2.000000D+00  E=-7.217131D-01
              MO Center=  1.2D-02,  2.7D+00, -2.7D-01, r^2= 9.1D+00
   Bfn.  Coefficient  Atom+Function         Bfn.  Coefficient  Atom+Function  
  ----- ------------  ---------------      ----- ------------  ---------------
   545      0.272722  33 H  s               515      0.268075  31 N  px        
   536     -0.195523  32 H  s               546      0.167307  33 H  s         
   516      0.163713  31 N  py        

 Vector   36  Occ=2.000000D+00  E=-6.839226D-01
              MO Center=  9.5D-02,  8.6D-01, -3.7D-01, r^2= 7.1D+00
   Bfn.  Coefficient  Atom+Function         Bfn.  Coefficient  Atom+Function  
  ----- ------------  ---------------      ----- ------------  ---------------
   313      0.196099  19 C  pz              332     -0.196723  20 H  s         
   250     -0.183521  16 O  s               490     -0.180812  30 O  px        
   225      0.171978  15 C  s               254      0.172100  16 O  pz        
   252      0.165385  16 O  px        

 Vector   37  Occ=2.000000D+00  E=-6.792727D-01
              MO Center= -5.5D-01,  1.9D+00,  1.2D-01, r^2= 5.5D+00
   Bfn.  Coefficient  Atom+Function         Bfn.  Coefficient  Atom+Function  
  ----- ------------  ---------------      ----- ------------  ---------------
   345      0.259434  21 C  px              314     -0.198795  19 C  px        
   313      0.184055  19 C  pz              343     -0.179609  21 C  s         
   311     -0.162310  19 C  px              433     -0.151044  27 O  pz        

 Vector   38  Occ=2.000000D+00  E=-6.710187D-01
              MO Center=  4.6D-01, -9.5D-01,  3.2D-01, r^2= 1.4D+01
   Bfn.  Coefficient  Atom+Function         Bfn.  Coefficient  Atom+Function  
  ----- ------------  ---------------      ----- ------------  ---------------
   466     -0.202372  29 C  py               80      0.196967   6 O  s         
    84      0.176393   6 O  pz              490     -0.168212  30 O  px        
    12     -0.166074   2 C  s                58      0.158187   5 C  py        
    82      0.158590   6 O  px              516      0.152716  31 N  py        

 Vector   39  Occ=2.000000D+00  E=-6.560295D-01
              MO Center=  9.8D-03, -1.4D+00, -1.0D-01, r^2= 1.1D+01
   Bfn.  Coefficient  Atom+Function         Bfn.  Coefficient  Atom+Function  
  ----- ------------  ---------------      ----- ------------  ---------------
    58      0.184153   5 C  py              252      0.159372  16 O  px        

 Vector   40  Occ=2.000000D+00  E=-6.485005D-01
              MO Center=  1.1D-01, -3.6D-01, -6.6D-02, r^2= 1.0D+01
   Bfn.  Coefficient  Atom+Function         Bfn.  Coefficient  Atom+Function  
  ----- ------------  ---------------      ----- ------------  ---------------
   278      0.219300  17 N  py              315     -0.196201  19 C  py        
   312     -0.173979  19 C  py              107     -0.156348   7 N  px        

 Vector   41  Occ=2.000000D+00  E=-6.282763D-01
              MO Center=  4.7D-02, -2.9D+00, -8.0D-02, r^2= 7.4D+00
   Bfn.  Coefficient  Atom+Function         Bfn.  Coefficient  Atom+Function  
  ----- ------------  ---------------      ----- ------------  ---------------
   139      0.484035   9 C  s               173     -0.391869  11 C  s         
   225     -0.213081  15 C  s               226      0.205576  15 C  s         
    59     -0.203443   5 C  pz               82      0.182533   6 O  px        
   145      0.168152   9 C  py              175     -0.165707  11 C  px        
   108     -0.163217   7 N  py               16     -0.159477   2 C  pz        

 Vector   42  Occ=2.000000D+00  E=-6.118329D-01
              MO Center=  1.6D-01, -1.3D+00, -3.9D-01, r^2= 9.8D+00
   Bfn.  Coefficient  Atom+Function         Bfn.  Coefficient  Atom+Function  
  ----- ------------  ---------------      ----- ------------  ---------------
   254      0.229247  16 O  pz              227     -0.197246  15 C  px        
    14      0.160433   2 C  px               56      0.155386   5 C  s         
   196      0.151795  12 H  s               309      0.151544  19 C  s         

 Vector   43  Occ=2.000000D+00  E=-6.041170D-01
              MO Center=  2.4D-01,  2.6D+00,  2.4D-01, r^2= 5.8D+00
   Bfn.  Coefficient  Atom+Function         Bfn.  Coefficient  Atom+Function  
  ----- ------------  ---------------      ----- ------------  ---------------
   465      0.250412  29 C  px              490     -0.221212  30 O  px        
   431      0.198775  27 O  px              347     -0.182028  21 C  pz        
   492     -0.177992  30 O  pz              488     -0.174032  30 O  s         
   344     -0.169474  21 C  s               314     -0.160065  19 C  px        
   491      0.156925  30 O  py              463      0.154094  29 C  s         

 Vector   44  Occ=2.000000D+00  E=-5.977332D-01
              MO Center= -2.7D-01, -4.1D-01, -1.8D-01, r^2= 1.3D+01
   Bfn.  Coefficient  Atom+Function         Bfn.  Coefficient  Atom+Function  
  ----- ------------  ---------------      ----- ------------  ---------------
   309      0.214498  19 C  s               432      0.199568  27 O  py        
   252     -0.177893  16 O  px              229      0.175499  15 C  pz        
     1      0.151357   1 H  s         

 Vector   45  Occ=2.000000D+00  E=-5.848585D-01
              MO Center= -3.1D-02,  2.0D-01,  2.6D-01, r^2= 1.6D+01
   Bfn.  Coefficient  Atom+Function         Bfn.  Coefficient  Atom+Function  
  ----- ------------  ---------------      ----- ------------  ---------------
   432     -0.180110  27 O  py              380      0.172934  23 C  py        
   492      0.159952  30 O  pz        

 Vector   46  Occ=2.000000D+00  E=-5.797010D-01
              MO Center=  2.9D-01, -1.4D+00, -1.2D-01, r^2= 1.1D+01
   Bfn.  Coefficient  Atom+Function         Bfn.  Coefficient  Atom+Function  
  ----- ------------  ---------------      ----- ------------  ---------------
   343      0.245787  21 C  s               215      0.181158  14 H  s         
   252      0.177405  16 O  px              214      0.173763  14 H  s         
   177      0.171720  11 C  pz              205     -0.171448  13 H  s         
   229     -0.161865  15 C  pz               15     -0.155628   2 C  py        

 Vector   47  Occ=2.000000D+00  E=-5.641163D-01
              MO Center= -3.1D-01, -1.9D+00,  2.4D-01, r^2= 1.7D+01
   Bfn.  Coefficient  Atom+Function         Bfn.  Coefficient  Atom+Function  
  ----- ------------  ---------------      ----- ------------  ---------------
    36      0.224970   3 H  s                35      0.197597   3 H  s         
    84      0.189572   6 O  pz               44     -0.172336   4 H  s         
    16      0.163561   2 C  pz               14      0.154144   2 C  px        

 Vector   48  Occ=2.000000D+00  E=-5.627282D-01
              MO Center= -6.2D-02,  2.6D-01,  3.0D-01, r^2= 1.7D+01
   Bfn.  Coefficient  Atom+Function         Bfn.  Coefficient  Atom+Function  
  ----- ------------  ---------------      ----- ------------  ---------------
   379      0.173861  23 C  px              432     -0.162644  27 O  py        
    36      0.153703   3 H  s               517     -0.150504  31 N  pz        

 Vector   49  Occ=2.000000D+00  E=-5.550031D-01
              MO Center= -4.6D-01,  1.8D+00,  8.1D-01, r^2= 7.7D+00
   Bfn.  Coefficient  Atom+Function         Bfn.  Coefficient  Atom+Function  
  ----- ------------  ---------------      ----- ------------  ---------------
   309      0.382337  19 C  s               333     -0.275002  20 H  s         
   380     -0.237072  23 C  py              409      0.227863  25 H  s         
   381      0.194797  23 C  pz              418     -0.194674  26 H  s         
   431      0.189889  27 O  px              344     -0.187195  21 C  s         
   419     -0.169561  26 H  s               343     -0.155930  21 C  s         

 Vector   50  Occ=2.000000D+00  E=-5.474412D-01
              MO Center= -5.1D-01, -2.2D+00,  1.8D-01, r^2= 1.3D+01
   Bfn.  Coefficient  Atom+Function         Bfn.  Coefficient  Atom+Function  
  ----- ------------  ---------------      ----- ------------  ---------------
    35      0.213273   3 H  s                16      0.211120   2 C  pz        
   139      0.195215   9 C  s                 1     -0.177061   1 H  s         
   163     -0.169828  10 H  s               108     -0.166861   7 N  py        
   141      0.158793   9 C  px              401      0.157088  24 H  s         
    36      0.151392   3 H  s               400      0.150676  24 H  s         

 Vector   51  Occ=2.000000D+00  E=-5.439884D-01
              MO Center=  3.5D-01, -9.1D-01, -6.9D-02, r^2= 1.1D+01
   Bfn.  Coefficient  Atom+Function         Bfn.  Coefficient  Atom+Function  
  ----- ------------  ---------------      ----- ------------  ---------------
   196     -0.246610  12 H  s               197     -0.247163  12 H  s         
   176      0.241952  11 C  py              410     -0.205605  25 H  s         
   253      0.181227  16 O  py              464     -0.173122  29 C  s         
   409     -0.168022  25 H  s         

 Vector   52  Occ=2.000000D+00  E=-5.330057D-01
              MO Center= -7.2D-01,  1.2D+00,  3.3D-01, r^2= 9.7D+00
   Bfn.  Coefficient  Atom+Function         Bfn.  Coefficient  Atom+Function  
  ----- ------------  ---------------      ----- ------------  ---------------
   343      0.265585  21 C  s               401      0.247091  24 H  s         
   379     -0.245026  23 C  px              309     -0.221497  19 C  s         
   400      0.218985  24 H  s               433     -0.203968  27 O  pz        
   463      0.204487  29 C  s               377     -0.197475  23 C  s         
   313      0.163254  19 C  pz              436     -0.160184  27 O  pz        

 Vector   53  Occ=2.000000D+00  E=-5.260019D-01
              MO Center=  8.3D-01, -2.2D+00, -3.6D-01, r^2= 6.1D+00
   Bfn.  Coefficient  Atom+Function         Bfn.  Coefficient  Atom+Function  
  ----- ------------  ---------------      ----- ------------  ---------------
   163      0.300311  10 H  s               206      0.270597  13 H  s         
   205      0.232961  13 H  s               214     -0.225053  14 H  s         
   215     -0.222430  14 H  s               177     -0.216781  11 C  pz        
   162      0.192786  10 H  s               107     -0.184515   7 N  px        
   143      0.176070   9 C  pz        

 Vector   54  Occ=2.000000D+00  E=-5.023767D-01
              MO Center= -7.0D-01,  9.8D-01,  4.3D-01, r^2= 1.2D+01
   Bfn.  Coefficient  Atom+Function         Bfn.  Coefficient  Atom+Function  
  ----- ------------  ---------------      ----- ------------  ---------------
   366      0.237600  22 H  s               378      0.222928  23 C  s         
   346     -0.205232  21 C  py              367      0.204925  22 H  s         
   432      0.203872  27 O  py              384      0.201302  23 C  pz        
   333     -0.184377  20 H  s               491     -0.174237  30 O  py        
   418      0.171629  26 H  s               381      0.166326  23 C  pz        

 Vector   55  Occ=2.000000D+00  E=-4.976181D-01
              MO Center= -3.1D-02, -1.6D+00,  2.0D-01, r^2= 1.2D+01
   Bfn.  Coefficient  Atom+Function         Bfn.  Coefficient  Atom+Function  
  ----- ------------  ---------------      ----- ------------  ---------------
    82      0.194329   6 O  px              463      0.191094  29 C  s         
    84     -0.167690   6 O  pz              378      0.163597  23 C  s         
   143      0.159334   9 C  pz        

 Vector   56  Occ=2.000000D+00  E=-4.793133D-01
              MO Center= -1.1D+00,  2.0D+00, -1.6D-01, r^2= 5.2D+00
   Bfn.  Coefficient  Atom+Function         Bfn.  Coefficient  Atom+Function  
  ----- ------------  ---------------      ----- ------------  ---------------
   431      0.276606  27 O  px              433     -0.267647  27 O  pz        
   434      0.234610  27 O  px              436     -0.210845  27 O  pz        
   381     -0.196021  23 C  pz              333      0.191089  20 H  s         
   347      0.188636  21 C  pz              252     -0.175585  16 O  px        
   254      0.170453  16 O  pz              311      0.163837  19 C  px        

 Vector   57  Occ=2.000000D+00  E=-4.401523D-01
              MO Center=  7.6D-01,  1.7D+00, -1.5D-02, r^2= 6.2D+00
   Bfn.  Coefficient  Atom+Function         Bfn.  Coefficient  Atom+Function  
  ----- ------------  ---------------      ----- ------------  ---------------
   491      0.362470  30 O  py              494      0.293359  30 O  py        
   253     -0.265251  16 O  py              139      0.223354   9 C  s         
   256     -0.212326  16 O  py              490      0.202776  30 O  px        
   309     -0.197267  19 C  s               344     -0.196971  21 C  s         
   464      0.176480  29 C  s               463      0.154276  29 C  s         

 Vector   58  Occ=2.000000D+00  E=-4.371591D-01
              MO Center=  1.9D-01,  2.2D-01, -5.5D-01, r^2= 6.3D+00
   Bfn.  Coefficient  Atom+Function         Bfn.  Coefficient  Atom+Function  
  ----- ------------  ---------------      ----- ------------  ---------------
   309     -0.454888  19 C  s               253      0.438650  16 O  py        
   256      0.362321  16 O  py              491      0.252854  30 O  py        
   343      0.230568  21 C  s               469     -0.226670  29 C  py        
   463      0.212890  29 C  s               494      0.209122  30 O  py        
   145      0.185802   9 C  py              344     -0.163623  21 C  s         

 Vector   59  Occ=2.000000D+00  E=-4.259789D-01
              MO Center=  1.2D+00,  3.4D+00,  2.9D-02, r^2= 2.7D+00
   Bfn.  Coefficient  Atom+Function         Bfn.  Coefficient  Atom+Function  
  ----- ------------  ---------------      ----- ------------  ---------------
   517      0.366884  31 N  pz              492     -0.320941  30 O  pz        
   520      0.319916  31 N  pz              495     -0.249946  30 O  pz        
   491     -0.207193  30 O  py              276      0.189566  17 N  s         
   333     -0.190299  20 H  s               309      0.189189  19 C  s         
   515     -0.189481  31 N  px              494     -0.169623  30 O  py        

 Vector   60  Occ=2.000000D+00  E=-4.153623D-01
              MO Center=  1.3D-01, -4.2D+00,  8.8D-01, r^2= 2.4D+00
   Bfn.  Coefficient  Atom+Function         Bfn.  Coefficient  Atom+Function  
  ----- ------------  ---------------      ----- ------------  ---------------
    83      0.485698   6 O  py               86      0.386996   6 O  py        
    13     -0.310784   2 C  s                82      0.259621   6 O  px        
   105     -0.238043   7 N  s               344      0.220581  21 C  s         
    85      0.199839   6 O  px               64     -0.192367   5 C  py        
   145     -0.183518   9 C  py               17      0.174025   2 C  px        

 Vector   61  Occ=2.000000D+00  E=-4.074947D-01
              MO Center= -1.2D-01,  5.1D-01, -3.0D-01, r^2= 5.3D+00
   Bfn.  Coefficient  Atom+Function         Bfn.  Coefficient  Atom+Function  
  ----- ------------  ---------------      ----- ------------  ---------------
   279     -0.290604  17 N  pz              282     -0.267908  17 N  pz        
   277      0.265009  17 N  px              280      0.229817  17 N  px        
   254      0.222847  16 O  pz              252     -0.195940  16 O  px        
   317     -0.191431  19 C  px              257      0.173097  16 O  pz        
   343      0.170209  21 C  s               367     -0.166800  22 H  s         

 Vector   62  Occ=2.000000D+00  E=-3.904542D-01
              MO Center=  1.8D-01, -2.9D+00,  1.3D-01, r^2= 4.1D+00
   Bfn.  Coefficient  Atom+Function         Bfn.  Coefficient  Atom+Function  
  ----- ------------  ---------------      ----- ------------  ---------------
   107      0.309016   7 N  px              110      0.291306   7 N  px        
   109     -0.258352   7 N  pz               82     -0.237569   6 O  px        
   112     -0.229476   7 N  pz              139      0.224362   9 C  s         
    84      0.192958   6 O  pz              174      0.189479  11 C  s         
    85     -0.184239   6 O  px        

 Vector   63  Occ=0.000000D+00  E= 2.647595D-02
              MO Center= -1.4D+00,  3.9D+00, -1.4D+00, r^2= 2.4D+01
   Bfn.  Coefficient  Atom+Function         Bfn.  Coefficient  Atom+Function  
  ----- ------------  ---------------      ----- ------------  ---------------
   378      3.527299  23 C  s               514     -2.930440  31 N  s         
   174      2.616325  11 C  s               464      2.118475  29 C  s         
   472      1.993838  29 C  py              353     -1.820998  21 C  pz        
   430     -1.509850  27 O  s               454     -1.433572  28 H  s         
   547     -1.393484  33 H  s               234      1.247325  15 C  py        

 Vector   64  Occ=0.000000D+00  E= 3.545939D-02
              MO Center= -1.4D+00, -5.7D-01, -5.9D-01, r^2= 4.5D+01
   Bfn.  Coefficient  Atom+Function         Bfn.  Coefficient  Atom+Function  
  ----- ------------  ---------------      ----- ------------  ---------------
   148      2.698889   9 C  py              174     -2.633284  11 C  s         
    64      2.411966   5 C  py              106      2.178581   7 N  s         
   514     -2.186117  31 N  s               472      2.050200  29 C  py        
    12     -1.957163   2 C  s               368      1.884825  22 H  s         
    46      1.690628   4 H  s               318      1.594714  19 C  py        

 Vector   65  Occ=0.000000D+00  E= 3.958991D-02
              MO Center= -6.2D-01, -4.2D-01, -1.3D+00, r^2= 4.3D+01
   Bfn.  Coefficient  Atom+Function         Bfn.  Coefficient  Atom+Function  
  ----- ------------  ---------------      ----- ------------  ---------------
   344      4.030241  21 C  s               148     -2.937912   9 C  py        
   378     -2.908111  23 C  s               334     -2.130498  20 H  s         
   174      2.059699  11 C  s               319     -1.911641  19 C  pz        
   351      1.869822  21 C  px                3     -1.859471   1 H  s         
   173      1.768999  11 C  s               402      1.746299  24 H  s         

 Vector   66  Occ=0.000000D+00  E= 4.242611D-02
              MO Center= -1.2D+00,  2.6D+00,  6.6D-01, r^2= 3.2D+01
   Bfn.  Coefficient  Atom+Function         Bfn.  Coefficient  Atom+Function  
  ----- ------------  ---------------      ----- ------------  ---------------
   464      4.330143  29 C  s               334      2.691363  20 H  s         
   226     -2.632005  15 C  s               514     -2.614765  31 N  s         
   353      2.375486  21 C  pz               56      2.321205   5 C  s         
   319      2.028216  19 C  pz              402     -2.026271  24 H  s         
   377      2.012727  23 C  s               387      1.681245  23 C  pz        

 Vector   67  Occ=0.000000D+00  E= 4.837343D-02
              MO Center=  9.1D-01, -1.4D+00, -3.6D-01, r^2= 4.1D+01
   Bfn.  Coefficient  Atom+Function         Bfn.  Coefficient  Atom+Function  
  ----- ------------  ---------------      ----- ------------  ---------------
    64      3.468652   5 C  py              148      2.641291   9 C  py        
   173      2.174923  11 C  s                63      2.121199   5 C  px        
   147      2.007836   9 C  px               12     -1.983857   2 C  s         
   464      1.741202  29 C  s               472     -1.721852  29 C  py        
   276     -1.663846  17 N  s               206     -1.629601  13 H  s         

 Vector   68  Occ=0.000000D+00  E= 5.444472D-02
              MO Center= -1.2D+00, -6.1D-01, -3.8D-01, r^2= 4.3D+01
   Bfn.  Coefficient  Atom+Function         Bfn.  Coefficient  Atom+Function  
  ----- ------------  ---------------      ----- ------------  ---------------
   334      3.533094  20 H  s               368      3.104105  22 H  s         
     3     -2.950479   1 H  s                46      2.466830   4 H  s         
   402     -2.397602  24 H  s               319      2.256148  19 C  pz        
   411      2.043320  25 H  s               174     -2.019140  11 C  s         
   420     -1.975692  26 H  s               216      1.865304  14 H  s         

 Vector   69  Occ=0.000000D+00  E= 5.690673D-02
              MO Center=  1.3D-01, -2.4D+00,  2.4D-01, r^2= 4.3D+01
   Bfn.  Coefficient  Atom+Function         Bfn.  Coefficient  Atom+Function  
  ----- ------------  ---------------      ----- ------------  ---------------
    37      3.313300   3 H  s               464      2.825117  29 C  s         
   198      2.539708  12 H  s               276      2.512826  17 N  s         
   130     -2.213702   8 H  s               207     -2.188587  13 H  s         
   226     -2.102708  15 C  s               411      1.844746  25 H  s         
   368     -1.748615  22 H  s               353      1.689198  21 C  pz        

 Vector   70  Occ=0.000000D+00  E= 6.188632D-02
              MO Center=  2.8D-01,  9.5D-01, -3.1D-01, r^2= 4.0D+01
   Bfn.  Coefficient  Atom+Function         Bfn.  Coefficient  Atom+Function  
  ----- ------------  ---------------      ----- ------------  ---------------
   334      5.460666  20 H  s               368     -3.637788  22 H  s         
   319      3.403062  19 C  pz               64      2.801199   5 C  py        
   198     -2.797790  12 H  s               464     -2.634542  29 C  s         
    13      2.449953   2 C  s               148      2.440121   9 C  py        
   149     -2.429270   9 C  pz              411      2.264369  25 H  s         

 Vector   71  Occ=0.000000D+00  E= 6.498013D-02
              MO Center= -8.0D-01, -8.8D-01,  1.1D+00, r^2= 4.0D+01
   Bfn.  Coefficient  Atom+Function         Bfn.  Coefficient  Atom+Function  
  ----- ------------  ---------------      ----- ------------  ---------------
   402      4.453960  24 H  s               174     -3.350603  11 C  s         
   378      3.097909  23 C  s                37      2.874328   3 H  s         
    56      2.847409   5 C  s               411     -2.517906  25 H  s         
   106     -2.491831   7 N  s                64      2.444820   5 C  py        
   385      2.402403  23 C  px              130     -2.319630   8 H  s         

 Vector   72  Occ=0.000000D+00  E= 6.973273D-02
              MO Center= -5.3D-01,  2.4D+00, -5.5D-02, r^2= 4.4D+01
   Bfn.  Coefficient  Atom+Function         Bfn.  Coefficient  Atom+Function  
  ----- ------------  ---------------      ----- ------------  ---------------
   538      5.113760  32 H  s               420     -4.243169  26 H  s         
   378      3.256870  23 C  s               334     -2.780330  20 H  s         
    37     -2.584370   3 H  s               402      2.209801  24 H  s         
   106      2.188759   7 N  s               319     -2.021647  19 C  pz        
   300     -1.962823  18 H  s               411      1.874703  25 H  s         

 Vector   73  Occ=0.000000D+00  E= 7.197671D-02
              MO Center= -9.4D-01,  2.8D-01,  4.9D-01, r^2= 4.7D+01
   Bfn.  Coefficient  Atom+Function         Bfn.  Coefficient  Atom+Function  
  ----- ------------  ---------------      ----- ------------  ---------------
   420      4.670598  26 H  s                46      3.912498   4 H  s         
   226      3.206936  15 C  s               464     -3.124908  29 C  s         
   368     -2.321390  22 H  s                 3     -2.265008   1 H  s         
   547     -1.972994  33 H  s                56     -1.932263   5 C  s         
   284      1.820050  17 N  py              164     -1.789113  10 H  s         

 Vector   74  Occ=0.000000D+00  E= 7.661599D-02
              MO Center=  9.7D-01, -2.0D+00, -1.0D+00, r^2= 4.0D+01
   Bfn.  Coefficient  Atom+Function         Bfn.  Coefficient  Atom+Function  
  ----- ------------  ---------------      ----- ------------  ---------------
   234      4.993000  15 C  py              216     -4.878210  14 H  s         
    13      4.668721   2 C  s               207      4.503180  13 H  s         
   464      4.081527  29 C  s               226     -4.059166  15 C  s         
   140     -3.471604   9 C  s               114      3.145512   7 N  py        
     3     -3.034246   1 H  s               402     -3.041087  24 H  s         

 Vector   75  Occ=0.000000D+00  E= 8.218585D-02
              MO Center=  1.3D+00, -1.2D+00, -1.1D+00, r^2= 3.8D+01
   Bfn.  Coefficient  Atom+Function         Bfn.  Coefficient  Atom+Function  
  ----- ------------  ---------------      ----- ------------  ---------------
   198      6.300634  12 H  s               334      5.949380  20 H  s         
   226     -5.083676  15 C  s               207     -4.972731  13 H  s         
   464      4.523225  29 C  s               319      3.584611  19 C  pz        
   411     -3.276713  25 H  s               174      3.136911  11 C  s         
    64     -3.071102   5 C  py              318     -3.082199  19 C  py        

 Vector   76  Occ=0.000000D+00  E= 9.009260D-02
              MO Center=  1.8D-01, -1.7D+00,  5.5D-01, r^2= 3.8D+01
   Bfn.  Coefficient  Atom+Function         Bfn.  Coefficient  Atom+Function  
  ----- ------------  ---------------      ----- ------------  ---------------
   344      6.475106  21 C  s               411      5.373844  25 H  s         
   378     -4.832736  23 C  s               164     -4.669760  10 H  s         
   130     -3.912012   8 H  s                56      3.570724   5 C  s         
   198      3.404074  12 H  s               226      3.317012  15 C  s         
   149      2.858052   9 C  pz              140      2.837043   9 C  s         

 Vector   77  Occ=0.000000D+00  E= 9.385379D-02
              MO Center= -1.7D+00,  8.3D-01,  3.0D-01, r^2= 3.9D+01
   Bfn.  Coefficient  Atom+Function         Bfn.  Coefficient  Atom+Function  
  ----- ------------  ---------------      ----- ------------  ---------------
   368      9.377408  22 H  s               402     -4.368255  24 H  s         
   420      4.196171  26 H  s               106     -3.654210   7 N  s         
   352      3.531297  21 C  py              234     -3.440349  15 C  py        
   454     -2.954260  28 H  s               130     -2.936020   8 H  s         
   464     -2.919626  29 C  s               538      2.570454  32 H  s         

 Vector   78  Occ=0.000000D+00  E= 9.760085D-02
              MO Center=  3.4D-03, -1.3D+00,  7.5D-01, r^2= 3.7D+01
   Bfn.  Coefficient  Atom+Function         Bfn.  Coefficient  Atom+Function  
  ----- ------------  ---------------      ----- ------------  ---------------
   411      6.869678  25 H  s               216      6.559522  14 H  s         
   300     -5.926068  18 H  s               130      5.313154   8 H  s         
   148      5.234048   9 C  py              164     -4.925304  10 H  s         
   378     -4.896710  23 C  s               207     -3.695534  13 H  s         
   464      3.655243  29 C  s               149      3.482428   9 C  pz        

 Vector   79  Occ=0.000000D+00  E= 1.089407D-01
              MO Center=  7.4D-01, -6.7D-01,  1.7D+00, r^2= 3.0D+01
   Bfn.  Coefficient  Atom+Function         Bfn.  Coefficient  Atom+Function  
  ----- ------------  ---------------      ----- ------------  ---------------
   300     10.751475  18 H  s               216     -6.691035  14 H  s         
   148     -5.798606   9 C  py              164     -5.721797  10 H  s         
    56      5.686355   5 C  s                13     -4.976152   2 C  s         
   234     -4.386120  15 C  py              344      4.343316  21 C  s         
   106     -3.898311   7 N  s               276      3.476474  17 N  s         

 Vector   80  Occ=0.000000D+00  E= 1.111489D-01
              MO Center=  6.2D-01, -1.0D+00, -5.5D-01, r^2= 4.0D+01
   Bfn.  Coefficient  Atom+Function         Bfn.  Coefficient  Atom+Function  
  ----- ------------  ---------------      ----- ------------  ---------------
   464     13.497105  29 C  s                56     11.035373   5 C  s         
    13    -10.623668   2 C  s               226    -10.499425  15 C  s         
   318     -7.939059  19 C  py              234     -6.715924  15 C  py        
   471     -5.624590  29 C  px              284     -5.051621  17 N  py        
   174     -4.287239  11 C  s               472     -3.787796  29 C  py        

 Vector   81  Occ=0.000000D+00  E= 1.263815D-01
              MO Center=  5.9D-01,  2.8D-01, -7.2D-01, r^2= 3.3D+01
   Bfn.  Coefficient  Atom+Function         Bfn.  Coefficient  Atom+Function  
  ----- ------------  ---------------      ----- ------------  ---------------
   344     11.977178  21 C  s                13     -7.650892   2 C  s         
   148     -5.522741   9 C  py              317      4.851320  19 C  px        
   514     -4.810246  31 N  s                64     -4.630546   5 C  py        
    56      4.213744   5 C  s               472      4.078053  29 C  py        
   318     -3.760096  19 C  py              334     -3.712457  20 H  s         

 Vector   82  Occ=0.000000D+00  E= 1.300545D-01
              MO Center= -5.4D-01,  9.2D-01, -6.6D-01, r^2= 2.9D+01
   Bfn.  Coefficient  Atom+Function         Bfn.  Coefficient  Atom+Function  
  ----- ------------  ---------------      ----- ------------  ---------------
   464     18.200869  29 C  s               226    -15.838852  15 C  s         
   378    -15.824873  23 C  s               174     11.261677  11 C  s         
   353     10.018250  21 C  pz               56      9.900233   5 C  s         
   318     -9.719683  19 C  py              344      8.687710  21 C  s         
    13     -7.772075   2 C  s               317     -6.294463  19 C  px        

 Vector   83  Occ=0.000000D+00  E= 1.334155D-01
              MO Center= -1.8D+00,  3.4D-01,  3.7D-01, r^2= 2.7D+01
   Bfn.  Coefficient  Atom+Function         Bfn.  Coefficient  Atom+Function  
  ----- ------------  ---------------      ----- ------------  ---------------
   378     15.462491  23 C  s               464      9.860914  29 C  s         
   344     -9.660798  21 C  s               368     -7.898347  22 H  s         
   174      7.393119  11 C  s               318     -5.947784  19 C  py        
   106     -5.611551   7 N  s               353     -5.282427  21 C  pz        
   387     -4.997754  23 C  pz              234     -4.812815  15 C  py        

 Vector   84  Occ=0.000000D+00  E= 1.358216D-01
              MO Center=  8.0D-02,  1.7D+00,  2.3D-01, r^2= 3.3D+01
   Bfn.  Coefficient  Atom+Function         Bfn.  Coefficient  Atom+Function  
  ----- ------------  ---------------      ----- ------------  ---------------
   464     20.615010  29 C  s               174     14.737387  11 C  s         
   226    -12.395290  15 C  s               234     10.661337  15 C  py        
   344     -9.458013  21 C  s               514     -9.439476  31 N  s         
    13      7.886523   2 C  s               140     -6.850850   9 C  s         
   317     -6.664063  19 C  px              319      6.511068  19 C  pz        

 Vector   85  Occ=0.000000D+00  E= 1.419938D-01
              MO Center=  9.1D-01,  4.2D-02, -2.6D-01, r^2= 3.6D+01
   Bfn.  Coefficient  Atom+Function         Bfn.  Coefficient  Atom+Function  
  ----- ------------  ---------------      ----- ------------  ---------------
    56     11.934800   5 C  s               344      8.776265  21 C  s         
   174     -6.854363  11 C  s               378     -6.391907  23 C  s         
   514     -6.165680  31 N  s                64      5.497324   5 C  py        
   148      4.982723   9 C  py              472      4.807256  29 C  py        
   319      4.598925  19 C  pz              351      3.764159  21 C  px        

 Vector   86  Occ=0.000000D+00  E= 1.463601D-01
              MO Center=  7.6D-01, -2.7D-01,  2.1D-01, r^2= 3.3D+01
   Bfn.  Coefficient  Atom+Function         Bfn.  Coefficient  Atom+Function  
  ----- ------------  ---------------      ----- ------------  ---------------
   378     16.759148  23 C  s               174    -14.794996  11 C  s         
   344    -13.591601  21 C  s               464    -13.049241  29 C  s         
   147     12.465551   9 C  px               13      9.833357   2 C  s         
    64      9.860047   5 C  py              514      8.756548  31 N  s         
   353     -7.946349  21 C  pz              148      7.427968   9 C  py        

 Vector   87  Occ=0.000000D+00  E= 1.475723D-01
              MO Center=  8.6D-01,  2.6D+00, -1.9D-01, r^2= 3.0D+01
   Bfn.  Coefficient  Atom+Function         Bfn.  Coefficient  Atom+Function  
  ----- ------------  ---------------      ----- ------------  ---------------
   514     11.187098  31 N  s               344     -8.961748  21 C  s         
   317     -8.759652  19 C  px              464     -5.743417  29 C  s         
   472     -5.753097  29 C  py              284      4.358751  17 N  py        
   318     -4.314250  19 C  py               56     -4.057130   5 C  s         
   471      3.959231  29 C  px              351     -3.931853  21 C  px        

 Vector   88  Occ=0.000000D+00  E= 1.496893D-01
              MO Center= -3.5D-01, -9.4D-01, -6.6D-01, r^2= 3.5D+01
   Bfn.  Coefficient  Atom+Function         Bfn.  Coefficient  Atom+Function  
  ----- ------------  ---------------      ----- ------------  ---------------
   344     18.356529  21 C  s               464    -16.656736  29 C  s         
   226     13.617740  15 C  s               148    -13.046658   9 C  py        
   106     -9.301962   7 N  s               514      8.095680  31 N  s         
    13     -6.610753   2 C  s                64     -6.522845   5 C  py        
   140      6.416972   9 C  s               317      4.576745  19 C  px        

 Vector   89  Occ=0.000000D+00  E= 1.532862D-01
              MO Center= -5.4D-01,  1.2D-01, -8.1D-01, r^2= 3.2D+01
[...]
   Bfn.  Coefficient  Atom+Function         Bfn.  Coefficient  Atom+Function  
  ----- ------------  ---------------      ----- ------------  ---------------
   318     11.994184  19 C  py               12      8.307226   2 C  s         
     2     -7.344630   1 H  s                13      6.840458   2 C  s         
   344     -6.186494  21 C  s                36     -5.862387   3 H  s         
   226      5.791936  15 C  s               148      4.610437   9 C  py        
   174      4.205648  11 C  s               149      4.115732   9 C  pz        

 Vector  158  Occ=0.000000D+00  E= 4.346731D-01
              MO Center= -3.2D-01, -6.0D-01,  3.2D-01, r^2= 2.3D+01
   Bfn.  Coefficient  Atom+Function         Bfn.  Coefficient  Atom+Function  
  ----- ------------  ---------------      ----- ------------  ---------------
   378     10.534023  23 C  s               234     -8.095899  15 C  py        
   377      7.318745  23 C  s               284      7.072335  17 N  py        
   226      6.657663  15 C  s               410     -6.241366  25 H  s         
   106     -5.637890   7 N  s               318     -5.248750  19 C  py        
   401     -5.205801  24 H  s               140      4.807306   9 C  s         

 Vector  159  Occ=0.000000D+00  E= 4.412125D-01
              MO Center= -5.2D-01, -8.1D-01,  3.7D-01, r^2= 2.2D+01
   Bfn.  Coefficient  Atom+Function         Bfn.  Coefficient  Atom+Function  
  ----- ------------  ---------------      ----- ------------  ---------------
   464     10.409928  29 C  s               148     -8.737695   9 C  py        
   317     -8.659377  19 C  px              284     -8.004568  17 N  py        
   378     -7.893825  23 C  s               149      7.664106   9 C  pz        
   353      6.239200  21 C  pz              174      5.902707  11 C  s         
   472     -5.650828  29 C  py              234      5.250084  15 C  py        

 Vector  160  Occ=0.000000D+00  E= 4.449721D-01
              MO Center= -8.2D-01, -2.5D+00, -2.4D-02, r^2= 2.3D+01
   Bfn.  Coefficient  Atom+Function         Bfn.  Coefficient  Atom+Function  
  ----- ------------  ---------------      ----- ------------  ---------------
   464     19.577046  29 C  s               226    -17.213601  15 C  s         
   344    -12.718261  21 C  s               318    -10.558901  19 C  py        
    56      8.993665   5 C  s               114      7.903171   7 N  py        
   276      7.421896  17 N  s               317     -6.210318  19 C  px        
   140     -5.749494   9 C  s               148      5.758724   9 C  py        

 Vector  161  Occ=0.000000D+00  E= 4.525846D-01
              MO Center= -1.2D-01, -1.9D+00,  4.0D-01, r^2= 2.2D+01
   Bfn.  Coefficient  Atom+Function         Bfn.  Coefficient  Atom+Function  
  ----- ------------  ---------------      ----- ------------  ---------------
   284     -8.523460  17 N  py              148     -8.467886   9 C  py        
    56      8.399669   5 C  s               318     -8.379284  19 C  py        
   149      8.097568   9 C  pz              464      7.795245  29 C  s         
   234     -7.614366  15 C  py              226     -7.211897  15 C  s         
   163     -6.473374  10 H  s                 2      6.305302   1 H  s         

 Vector  162  Occ=0.000000D+00  E= 4.550722D-01
              MO Center= -2.5D-01, -9.8D-01,  3.8D-01, r^2= 2.4D+01
   Bfn.  Coefficient  Atom+Function         Bfn.  Coefficient  Atom+Function  
  ----- ------------  ---------------      ----- ------------  ---------------
   148     15.120461   9 C  py              378    -12.454100  23 C  s         
   106     11.411135   7 N  s               174    -10.360364  11 C  s         
   318      9.943206  19 C  py               13      8.996718   2 C  s         
    56      9.013713   5 C  s               284      7.848019  17 N  py        
   464     -7.582375  29 C  s               419      6.990728  26 H  s         

 Vector  163  Occ=0.000000D+00  E= 4.611688D-01
              MO Center=  4.5D-01, -1.9D-01,  3.2D-01, r^2= 2.3D+01
   Bfn.  Coefficient  Atom+Function         Bfn.  Coefficient  Atom+Function  
  ----- ------------  ---------------      ----- ------------  ---------------
   174     17.125750  11 C  s               378    -16.449788  23 C  s         
   419      8.675834  26 H  s               173      8.470435  11 C  s         
   197     -8.119321  12 H  s               377     -7.446680  23 C  s         
   215     -6.940410  14 H  s                56     -6.576297   5 C  s         
   234      6.096585  15 C  py              401      6.099976  24 H  s         

 Vector  164  Occ=0.000000D+00  E= 4.623400D-01
              MO Center= -2.0D-01,  7.2D-01,  3.5D-01, r^2= 2.1D+01
   Bfn.  Coefficient  Atom+Function         Bfn.  Coefficient  Atom+Function  
  ----- ------------  ---------------      ----- ------------  ---------------
   344     19.688456  21 C  s               464    -18.864833  29 C  s         
   226     18.694041  15 C  s               378    -16.408591  23 C  s         
   318     15.248781  19 C  py              234     11.241247  15 C  py        
   317      7.823789  19 C  px              377     -7.141730  23 C  s         
   410      7.147333  25 H  s               276     -6.031536  17 N  s         

 Vector  165  Occ=0.000000D+00  E= 4.655411D-01
              MO Center=  7.7D-02,  3.6D-01, -2.5D-01, r^2= 2.3D+01
   Bfn.  Coefficient  Atom+Function         Bfn.  Coefficient  Atom+Function  
  ----- ------------  ---------------      ----- ------------  ---------------
   464     29.502661  29 C  s               226    -20.011422  15 C  s         
   174     19.720760  11 C  s               514    -17.044572  31 N  s         
   173     10.458869  11 C  s               140     -8.985427   9 C  s         
   206     -8.688497  13 H  s               317     -8.412147  19 C  px        
   378     -8.325769  23 C  s               148      7.534872   9 C  py        

 Vector  166  Occ=0.000000D+00  E= 4.704594D-01
              MO Center=  4.9D-01,  1.3D-01,  5.8D-01, r^2= 2.0D+01
   Bfn.  Coefficient  Atom+Function         Bfn.  Coefficient  Atom+Function  
  ----- ------------  ---------------      ----- ------------  ---------------
   226     12.536231  15 C  s               464    -11.515707  29 C  s         
   276     -9.385450  17 N  s               410     -6.646121  25 H  s         
   514      6.125668  31 N  s                56     -5.977543   5 C  s         
   149     -5.876306   9 C  pz              419     -5.582481  26 H  s         
   318      5.179324  19 C  py              377      5.101079  23 C  s         

 Vector  167  Occ=0.000000D+00  E= 4.728418D-01
              MO Center= -1.5D-01,  5.1D-02,  1.1D-01, r^2= 2.2D+01
   Bfn.  Coefficient  Atom+Function         Bfn.  Coefficient  Atom+Function  
  ----- ------------  ---------------      ----- ------------  ---------------
   174     11.656166  11 C  s                56     -9.121727   5 C  s         
   148     -9.018109   9 C  py              147     -7.965548   9 C  px        
   173      6.224614  11 C  s               215     -5.278450  14 H  s         
   343     -5.152033  21 C  s               106     -4.292584   7 N  s         
   206     -4.154869  13 H  s               197     -3.890112  12 H  s         

 Vector  168  Occ=0.000000D+00  E= 4.765797D-01
              MO Center=  1.2D-01,  7.7D-01,  2.3D-02, r^2= 1.9D+01
   Bfn.  Coefficient  Atom+Function         Bfn.  Coefficient  Atom+Function  
  ----- ------------  ---------------      ----- ------------  ---------------
   344     21.000784  21 C  s               226     11.255264  15 C  s         
   378    -10.634396  23 C  s               318      9.631696  19 C  py        
   148     -9.045484   9 C  py              367     -8.873251  22 H  s         
   114      8.273291   7 N  py              377      8.174248  23 C  s         
   234      8.042383  15 C  py              514     -7.808120  31 N  s         

 Vector  169  Occ=0.000000D+00  E= 4.805587D-01
              MO Center=  3.9D-01, -1.1D+00,  2.4D-01, r^2= 2.2D+01
   Bfn.  Coefficient  Atom+Function         Bfn.  Coefficient  Atom+Function  
  ----- ------------  ---------------      ----- ------------  ---------------
   464     31.346592  29 C  s               226    -23.896434  15 C  s         
   378    -22.450831  23 C  s               148     18.770152   9 C  py        
   174     15.884415  11 C  s                56     13.673557   5 C  s         
   106     12.361159   7 N  s               276    -12.055727  17 N  s         
   514    -11.260263  31 N  s               318    -10.526697  19 C  py        

 Vector  170  Occ=0.000000D+00  E= 4.889098D-01
              MO Center=  4.2D-01,  1.3D-01, -1.1D-01, r^2= 2.1D+01
   Bfn.  Coefficient  Atom+Function         Bfn.  Coefficient  Atom+Function  
  ----- ------------  ---------------      ----- ------------  ---------------
   344     25.522614  21 C  s                13    -10.883796   2 C  s         
   464    -10.684156  29 C  s               276     -9.771470  17 N  s         
   106     -9.087994   7 N  s               378     -9.100957  23 C  s         
   226      9.049738  15 C  s                56      8.243130   5 C  s         
   174     -7.868626  11 C  s               234     -6.309426  15 C  py        

 Vector  171  Occ=0.000000D+00  E= 4.931029D-01
              MO Center=  3.5D-01,  5.0D-01, -4.7D-01, r^2= 2.1D+01
   Bfn.  Coefficient  Atom+Function         Bfn.  Coefficient  Atom+Function  
  ----- ------------  ---------------      ----- ------------  ---------------
   344      8.330316  21 C  s               378     -7.871653  23 C  s         
   226      6.740872  15 C  s                12     -6.354150   2 C  s         
   206     -6.146257  13 H  s               464     -5.863404  29 C  s         
   251     -5.641218  16 O  s               174     -4.436410  11 C  s         
   514      4.223753  31 N  s               234     -3.916527  15 C  py        

 Vector  172  Occ=0.000000D+00  E= 4.961583D-01
              MO Center=  1.1D-01,  5.4D-03, -3.4D-01, r^2= 2.5D+01
   Bfn.  Coefficient  Atom+Function         Bfn.  Coefficient  Atom+Function  
  ----- ------------  ---------------      ----- ------------  ---------------
    56    -18.336546   5 C  s                13     17.770545   2 C  s         
   344    -17.151355  21 C  s               318     14.668275  19 C  py        
   284     13.225638  17 N  py              226     12.769146  15 C  s         
   464    -12.358628  29 C  s               148      7.503853   9 C  py        
   378      6.906974  23 C  s               174      6.822348  11 C  s         

 Vector  173  Occ=0.000000D+00  E= 4.992142D-01
              MO Center= -2.3D-01, -4.7D-01, -2.5D-01, r^2= 2.1D+01
   Bfn.  Coefficient  Atom+Function         Bfn.  Coefficient  Atom+Function  
  ----- ------------  ---------------      ----- ------------  ---------------
   234     11.303574  15 C  py              114      9.342031   7 N  py        
    56      8.925382   5 C  s                13      8.428989   2 C  s         
    64      7.650455   5 C  py              226     -7.651419  15 C  s         
   472      5.550529  29 C  py              206      5.483013  13 H  s         
   276     -5.410430  17 N  s               140     -5.254932   9 C  s         

 Vector  174  Occ=0.000000D+00  E= 5.026104D-01
              MO Center=  1.9D-01,  7.7D-01,  3.5D-01, r^2= 2.1D+01
   Bfn.  Coefficient  Atom+Function         Bfn.  Coefficient  Atom+Function  
  ----- ------------  ---------------      ----- ------------  ---------------
   284      9.116953  17 N  py              148      6.222627   9 C  py        
   489     -5.794938  30 O  s               344      5.761925  21 C  s         
   378     -5.526253  23 C  s               226      5.041978  15 C  s         
   174      4.937665  11 C  s               310      4.568945  19 C  s         
   367     -4.461159  22 H  s               234     -4.349045  15 C  py        


 center of mass
 --------------
 x =   0.02398828 y =   0.01981227 z =  -0.00080085

 moments of inertia (a.u.)
 ------------------
        8034.119091626295          -0.000000000000          -0.000000000002
          -0.000000000000        1720.352213119193          -0.000000000000
          -0.000000000002          -0.000000000000        8699.288778236378

  Mulliken analysis of the total density
  --------------------------------------

    Atom       Charge   Shell Charges
 -----------   ------   -------------------------------------------------------
    1 H    1     0.87   0.76  0.13 -0.00  0.03 -0.06
    2 C    6     6.26   2.01  0.66  0.20  0.15  2.06  1.04 -0.02  0.06  0.09
    3 H    1     1.01   0.76  0.25  0.01  0.03 -0.05
    4 H    1     0.87   0.76  0.13  0.00  0.03 -0.06
    5 C    6     5.16   2.01  0.68  0.10 -0.06  1.90  0.31 -0.03  0.24  0.02
    6 O    8     8.70   2.01  0.82  0.99  0.15  2.79  1.82  0.13  0.01 -0.02
    7 N    7     7.59   2.01  0.72  0.86 -0.06  2.46  1.45  0.06  0.05  0.05
    8 H    1     1.00   0.75  0.22 -0.00  0.06 -0.03
    9 C    6     6.45   2.01  0.66  0.22  0.00  2.00  1.43 -0.15  0.14  0.14
   10 H    1     1.12   0.78  0.33 -0.01  0.03 -0.00
   11 C    6     5.61   2.01  0.66  0.17  0.21  2.04  0.46 -0.01  0.07 -0.01
   12 H    1     1.01   0.76  0.28  0.00  0.03 -0.06
   13 H    1     0.89   0.77  0.16  0.00  0.03 -0.08
   14 H    1     0.90   0.77  0.15  0.01  0.03 -0.07
   15 C    6     4.62   2.01  0.68 -0.04  0.06  1.88  0.11  0.03  0.23 -0.35
   16 O    8     8.83   2.01  0.82  1.02  0.17  2.79  1.87  0.15  0.01 -0.00
   17 N    7     7.57   2.01  0.72  0.88 -0.11  2.45  1.46  0.07  0.05  0.04
   18 H    1     1.01   0.75  0.23 -0.00  0.06 -0.03
   19 C    6     5.98   2.01  0.67  0.11 -0.05  2.01  1.20 -0.09  0.13 -0.00
   20 H    1     1.18   0.78  0.36  0.00  0.03  0.01
   21 C    6     5.56   2.01  0.67 -0.07 -0.04  1.95  0.79 -0.06  0.16  0.16
   22 H    1     1.19   0.79  0.40  0.01  0.03 -0.03
   23 C    6     5.58   2.01  0.66  0.01  0.19  2.05  0.59  0.02  0.07 -0.01
   24 H    1     1.03   0.77  0.30  0.01  0.03 -0.08
   25 H    1     0.93   0.77  0.18  0.01  0.03 -0.06
   26 H    1     0.91   0.77  0.15 -0.00  0.03 -0.04
   27 O    8     8.76   2.01  0.80  0.97  0.07  2.83  1.93  0.17  0.01 -0.03
   28 H    1     0.87   0.73  0.03 -0.00  0.08  0.03
   29 C    6     4.56   2.01  0.68  0.04  0.04  1.89 -0.20 -0.00  0.23 -0.13
   30 O    8     8.82   2.01  0.82  1.03  0.18  2.79  1.85  0.14  0.01 -0.00
   31 N    7     7.26   2.01  0.72  0.84 -0.15  2.47  1.26  0.08  0.04 -0.01
   32 H    1     0.92   0.74  0.18 -0.01  0.06 -0.04
   33 H    1     0.97   0.75  0.20 -0.01  0.05 -0.02

       Multipole analysis of the density wrt the origin
       ------------------------------------------------

     L   x y z        total         open         nuclear
     -   - - -        -----         ----         -------
     0   0 0 0     -0.000000      0.000000    124.000000

     1   1 0 0     -1.006672      0.000000      0.000000
     1   0 1 0      1.239625      0.000000     -0.000000
     1   0 0 1     -1.221046      0.000000      0.000000

     2   2 0 0    -73.769476      0.000000    678.624404
     2   1 1 0      2.535169      0.000000     -6.758068
     2   1 0 1     -3.193107      0.000000    -14.640438
     2   0 2 0    -68.203457      0.000000   4104.433632
     2   0 1 1      3.751078      0.000000     28.752134
     2   0 0 2    -75.266293      0.000000    309.793911


 Task  times  cpu:     3837.0s     wall:     3908.6s


                                NWChem Input Module
                                -------------------


 Summary of allocated global arrays
-----------------------------------
  No active global arrays


MA_summarize_allocated_blocks: starting scan ...
MA_summarize_allocated_blocks: scan completed: 0 heap blocks, 0 stack blocks
MA usage statistics:

	allocation statistics:
					      heap	     stack
					      ----	     -----
	current number of blocks	         0	         0
	maximum number of blocks	        16	        14
	current total bytes		         0	         0
	maximum total bytes		    116936	  26223320
	maximum total K-bytes		       117	     26224
	maximum total M-bytes		         1	        27


                                     CITATION
                                     --------
                Please cite the following reference when publishing
                           results obtained with NWChem:

          E. Apra, E. J. Bylaska, W. A. de Jong, N. Govind, K. Kowalski,
       T. P. Straatsma, M. Valiev, H. J. J. van Dam, Y. Alexeev, J. Anchell,
       V. Anisimov, F. W. Aquino, R. Atta-Fynn, J. Autschbach, N. P. Bauman,
     J. C. Becca, D. E. Bernholdt, K. Bhaskaran-Nair, S. Bogatko, P. Borowski,
         J. Boschen, J. Brabec, A. Bruner, E. Cauet, Y. Chen, G. N. Chuev,
      C. J. Cramer, J. Daily, M. J. O. Deegan, T. H. Dunning Jr., M. Dupuis,
   K. G. Dyall, G. I. Fann, S. A. Fischer, A. Fonari, H. Fruchtl, L. Gagliardi,
      J. Garza, N. Gawande, S. Ghosh, K. Glaesemann, A. W. Gotz, J. Hammond,
       V. Helms, E. D. Hermes, K. Hirao, S. Hirata, M. Jacquelin, L. Jensen,
   B. G. Johnson, H. Jonsson, R. A. Kendall, M. Klemm, R. Kobayashi, V. Konkov,
      S. Krishnamoorthy, M. Krishnan, Z. Lin, R. D. Lins, R. J. Littlefield,
      A. J. Logsdail, K. Lopata, W. Ma, A. V. Marenich, J. Martin del Campo,
   D. Mejia-Rodriguez, J. E. Moore, J. M. Mullin, T. Nakajima, D. R. Nascimento,
    J. A. Nichols, P. J. Nichols, J. Nieplocha, A. Otero-de-la-Roza, B. Palmer,
    A. Panyala, T. Pirojsirikul, B. Peng, R. Peverati, J. Pittner, L. Pollack,
   R. M. Richard, P. Sadayappan, G. C. Schatz, W. A. Shelton, D. W. Silverstein,
   D. M. A. Smith, T. A. Soares, D. Song, M. Swart, H. L. Taylor, G. S. Thomas,
            V. Tipparaju, D. G. Truhlar, K. Tsemekhman, T. Van Voorhis,
      A. Vazquez-Mayagoitia, P. Verma, O. Villa, A. Vishnu, K. D. Vogiatzis,
        D. Wang, J. H. Weare, M. J. Williamson, T. L. Windus, K. Wolinski,
        A. T. Wong, Q. Wu, C. Yang, Q. Yu, M. Zacharias, Z. Zhang, Y. Zhao,
                                and R. J. Harrison
                        "NWChem: Past, present, and future
                         J. Chem. Phys. 152, 184102 (2020)
                               doi:10.1063/5.0004997

                                      AUTHORS
                                      -------
  E. Apra, E. J. Bylaska, N. Govind, K. Kowalski, M. Valiev, D. Mejia-Rodriguez,
       A. Kunitsa, N. P. Bauman, A. Panyala, W. A. de Jong, T. P. Straatsma,
   H. J. J. van Dam, D. Wang, T. L. Windus, J. Hammond, J. Autschbach, A. Woods,
    K. Bhaskaran-Nair, J. Brabec, K. Lopata, S. A. Fischer, S. Krishnamoorthy,
     M. Jacquelin, W. Ma, M. Klemm, O. Villa, Y. Chen, V. Anisimov, F. Aquino,
     S. Hirata, M. T. Hackler, E. Hermes, L. Jensen, J. E. Moore, J. C. Becca,
      V. Konjkov, T. Risthaus, M. Malagoli, A. Marenich, A. Otero-de-la-Roza,
        J. Mullin, P. Nichols, R. Peverati, J. Pittner, Y. Zhao, P.-D. Fan,
        A. Fonari, M. J. Williamson, R. J. Harrison, J. R. Rehr, M. Dupuis,
     D. Silverstein, D. M. A. Smith, J. Nieplocha, V. Tipparaju, M. Krishnan,
     B. E. Van Kuiken, A. Vazquez-Mayagoitia, M. Swart, Q. Wu, T. Van Voorhis,
     A. A. Auer, M. Nooijen, L. D. Crosby, E. Brown, G. Cisneros, G. I. Fann,
   H. Fruchtl, J. Garza, K. Hirao, R. A. Kendall, J. A. Nichols, K. Tsemekhman,
    K. Wolinski, J. Anchell, D. E. Bernholdt, P. Borowski, T. Clark, D. Clerc,
   H. Dachsel, M. J. O. Deegan, K. Dyall, D. Elwood, E. Glendening, M. Gutowski,
   A. C. Hess, J. Jaffe, B. G. Johnson, J. Ju, R. Kobayashi, R. Kutteh, Z. Lin,
   R. Littlefield, X. Long, B. Meng, T. Nakajima, S. Niu, L. Pollack, M. Rosing,
   K. Glaesemann, G. Sandrone, M. Stave, H. Taylor, G. Thomas, J. H. van Lenthe,
                               A. T. Wong, Z. Zhang.

 Total times  cpu:     3837.1s     wall:     3909.1s
