export TMOUT=5400
export TMPDIR=/tmp
export PTMPDIR=/tmp/ptmp
 argument  1 = ALA_GLY_2.nw
                                         
                                         


             Northwest Computational Chemistry Package (NWChem) 7.2.0
             --------------------------------------------------------


                    Environmental Molecular Sciences Laboratory
                       Pacific Northwest National Laboratory
                                Richland, WA 99352

                              Copyright (c) 1994-2022
                       Pacific Northwest National Laboratory
                            Battelle Memorial Institute

             NWChem is an open-source computational chemistry package
                        distributed under the terms of the
                      Educational Community License (ECL) 2.0
             A copy of the license is included with this distribution
                              in the LICENSE.TXT file

                                  ACKNOWLEDGMENT
                                  --------------

            This software and its documentation were developed at the
            EMSL at Pacific Northwest National Laboratory, a multiprogram
            national laboratory, operated for the U.S. Department of Energy
            by Battelle under Contract Number DE-AC05-76RL01830. Support
            for this work was provided by the Department of Energy Office
            of Biological and Environmental Research, Office of Basic
            Energy Sciences, and the Office of Advanced Scientific Computing.


           Job information
           ---------------

    hostname        = nova18-18
    program         = /opt/rit/el9/20230413/app/linux-rhel9-x86_64_v3/gcc-11.2.1/nwchem-7.2.0-oxtctbuhfuzyfaoziquq6bki22grib3g/bin/nwchem
    date            = Thu Jun 26 15:47:16 2025

    compiled        = Wed_May_17_23:46:39_2023
    source          = /tmp/root/spack-stage/spack-stage-nwchem-7.2.0-oxtctbuhfuzyfaoziquq6bki22grib3g/spack-src
    nwchem branch   = 7.2.0
    nwchem revision = d0d141fd
    ga revision     = 5.8.0
    use scalapack   = T
    input           = ALA_GLY_2.nw
    prefix          = ALA_GLY_2.
    data base       = ./ALA_GLY_2.db
    status          = startup
    nproc           =        8
    time left       =     -1s



           Memory information
           ------------------

    heap     =   26214400 doubles =    200.0 Mbytes
    stack    =   26214397 doubles =    200.0 Mbytes
    global   =   52428800 doubles =    400.0 Mbytes (distinct from heap & stack)
    total    =  104857597 doubles =    800.0 Mbytes
    verify   = yes
    hardfail = no 


           Directory information
           ---------------------

  0 permanent = .
  0 scratch   = .




                                NWChem Input Module
                                -------------------



 Scaling coordinates for geometry "geometry" by  1.889725989
 (inverse scale =  0.529177249)

 C1  symmetry detected

          ------
          auto-z
          ------
  no constraints, skipping    0.0000000000000000     
  no constraints, skipping    0.0000000000000000     


                             Geometry "geometry" -> ""
                             -------------------------

 Output coordinates in angstroms (scale by  1.889725989 to convert to a.u.)

  No.       Tag          Charge          X              Y              Z
 ---- ---------------- ---------- -------------- -------------- --------------
    1 H                    1.0000    -2.72962774     3.69798744     0.18049678
    2 C                    6.0000    -1.68995329     3.67122939     0.50435177
    3 H                    1.0000    -1.64973940     3.55706845     1.58612583
    4 H                    1.0000    -1.19416036     4.59425458     0.20855308
    5 C                    6.0000    -1.00232815     2.49875272    -0.15281422
    6 O                    8.0000    -1.62430717     1.76008199    -0.90416810
    7 N                    7.0000     0.28353762     2.31521799     0.14259945
    8 H                    1.0000     0.71495016     2.96224873     0.78148319
    9 C                    6.0000     1.13321098     1.25561191    -0.41497936
   10 H                    1.0000     0.92100199     1.18760627    -1.48375230
   11 C                    6.0000     2.59708615     1.69413113    -0.26246263
   12 H                    1.0000     2.75088047     2.66353425    -0.73944365
   13 H                    1.0000     2.86008211     1.76336775     0.79426175
   14 H                    1.0000     3.25089972     0.96216404    -0.74051387
   15 C                    6.0000     0.84658036    -0.14886521     0.17621258
   16 O                    8.0000     1.75211344    -0.83077727     0.65260713
   17 N                    7.0000    -0.41830468    -0.58271608     0.16320259
   18 H                    1.0000    -1.10437012     0.02918156    -0.26788265
   19 C                    6.0000    -0.90829257    -1.84098297     0.75133038
   20 H                    1.0000    -0.50533265    -1.93171262     1.75995193
   21 H                    1.0000    -1.99478942    -1.79543866     0.82413361
   22 C                    6.0000    -0.53788850    -3.12244913    -0.01065014
   23 O                    8.0000    -1.35332419    -4.02786937    -0.12419675
   24 N                    7.0000     0.65482453    -3.21858861    -0.58126283
   25 H                    1.0000     0.88015621    -4.05864784    -1.08681609
   26 H                    1.0000     1.33330023    -2.48505681    -0.42824055

      Atomic Mass 
      ----------- 

      H                  1.007825
      C                 12.000000
      O                 15.994910
      N                 14.003070


 Effective nuclear repulsion energy (a.u.)     833.8254559854

            Nuclear Dipole moment (a.u.) 
            ----------------------------
        X                 Y               Z
 ---------------- ---------------- ----------------
     0.0000000000    -0.0000000000     0.0000000000



                                Z-matrix (autoz)
                                -------- 

 Units are Angstrom for bonds and degrees for angles

      Type          Name      I     J     K     L     M      Value
      ----------- --------  ----- ----- ----- ----- ----- ----------
    1 Stretch                  1     2                       1.08928
    2 Stretch                  2     3                       1.08852
    3 Stretch                  2     4                       1.08871
    4 Stretch                  2     5                       1.50977
    5 Stretch                  5     6                       1.22353
    6 Stretch                  5     7                       1.33207
    7 Stretch                  7     8                       1.00645
    8 Stretch                  7     9                       1.46820
    9 Stretch                  9    10                       1.09176
   10 Stretch                  9    11                       1.53574
   11 Stretch                  9    15                       1.55056
   12 Stretch                 11    12                       1.09129
   13 Stretch                 11    13                       1.09116
   14 Stretch                 11    14                       1.09169
   15 Stretch                 15    16                       1.22961
   16 Stretch                 15    17                       1.33728
   17 Stretch                 17    18                       1.01535
   18 Stretch                 17    19                       1.47283
   19 Stretch                 19    20                       1.08992
   20 Stretch                 19    21                       1.08989
   21 Stretch                 19    22                       1.53622
   22 Stretch                 22    23                       1.22377
   23 Stretch                 22    24                       1.32567
   24 Stretch                 24    25                       1.00601
   25 Stretch                 24    26                       1.01085
   26 Bend                     1     2     3               109.46957
   27 Bend                     1     2     4               109.45423
   28 Bend                     1     2     5               108.92776
   29 Bend                     2     5     6               120.30589
   30 Bend                     2     5     7               116.75158
   31 Bend                     3     2     4               110.00517
   32 Bend                     3     2     5               109.53025
   33 Bend                     4     2     5               109.43495
   34 Bend                     5     7     8               117.77374
   35 Bend                     5     7     9               125.01997
   36 Bend                     6     5     7               122.93731
   37 Bend                     7     9    10               107.71264
   38 Bend                     7     9    11               107.92939
   39 Bend                     7     9    15               113.69921
   40 Bend                     8     7     9               117.19252
   41 Bend                     9    11    12               110.15609
   42 Bend                     9    11    13               110.12334
   43 Bend                     9    11    14               109.62936
   44 Bend                     9    15    16               120.92483
   45 Bend                     9    15    17               117.71035
   46 Bend                    10     9    11               107.47477
   47 Bend                    10     9    15               106.31380
   48 Bend                    11     9    15               113.38973
   49 Bend                    12    11    13               109.44825
   50 Bend                    12    11    14               108.65110
   51 Bend                    13    11    14               108.80065
   52 Bend                    15    17    18               116.59794
   53 Bend                    15    17    19               126.01194
   54 Bend                    16    15    17               121.36030
   55 Bend                    17    19    20               108.52098
   56 Bend                    17    19    21               108.82173
   57 Bend                    17    19    22               115.74500
   58 Bend                    18    17    19               117.36118
   59 Bend                    19    22    23               120.16749
   60 Bend                    19    22    24               119.40144
   61 Bend                    20    19    21               108.07297
   62 Bend                    20    19    22               107.48337
   63 Bend                    21    19    22               107.96017
   64 Bend                    22    24    25               118.58000
   65 Bend                    22    24    26               119.08404
   66 Bend                    23    22    24               120.39162
   67 Bend                    25    24    26               122.11975
   68 Torsion                  1     2     5     6          -0.49591
   69 Torsion                  1     2     5     7        -179.68816
   70 Torsion                  2     5     7     8           0.10496
   71 Torsion                  2     5     7     9        -178.50315
   72 Torsion                  3     2     5     6         119.20726
   73 Torsion                  3     2     5     7         -59.98499
   74 Torsion                  4     2     5     6        -120.12360
   75 Torsion                  4     2     5     7          60.68415
   76 Torsion                  5     7     9    10          42.97901
   77 Torsion                  5     7     9    11         158.74259
   78 Torsion                  5     7     9    15         -74.55202
   79 Torsion                  6     5     7     8        -179.06411
   80 Torsion                  6     5     7     9           2.32778
   81 Torsion                  7     9    11    12         -55.98654
   82 Torsion                  7     9    11    13          64.82592
   83 Torsion                  7     9    11    14        -175.49834
   84 Torsion                  7     9    15    16        -127.00081
   85 Torsion                  7     9    15    17          52.23579
   86 Torsion                  8     7     9    10        -135.63643
   87 Torsion                  8     7     9    11         -19.87285
   88 Torsion                  8     7     9    15         106.83255
   89 Torsion                  9    15    17    18           2.19589
   90 Torsion                  9    15    17    19        -175.78635
   91 Torsion                 10     9    11    12          59.93278
   92 Torsion                 10     9    11    13        -179.25476
   93 Torsion                 10     9    11    14         -59.57902
   94 Torsion                 10     9    15    16         114.66092
   95 Torsion                 10     9    15    17         -66.10248
   96 Torsion                 11     9    15    16          -3.21048
   97 Torsion                 11     9    15    17         176.02613
   98 Torsion                 12    11     9    15         177.12777
   99 Torsion                 13    11     9    15         -62.05977
  100 Torsion                 14    11     9    15          57.61597
  101 Torsion                 15    17    19    20          47.47137
  102 Torsion                 15    17    19    21         164.84830
  103 Torsion                 15    17    19    22         -73.41288
  104 Torsion                 16    15    17    18        -178.57102
  105 Torsion                 16    15    17    19           3.44674
  106 Torsion                 17    19    22    23        -140.21512
  107 Torsion                 17    19    22    24          37.50942
  108 Torsion                 18    17    19    20        -130.49713
  109 Torsion                 18    17    19    21         -13.12020
  110 Torsion                 18    17    19    22         108.61862
  111 Torsion                 19    22    24    25        -179.24981
  112 Torsion                 19    22    24    26           5.97802
  113 Torsion                 20    19    22    23          98.34305
  114 Torsion                 20    19    22    24         -83.93241
  115 Torsion                 21    19    22    23         -18.01732
  116 Torsion                 21    19    22    24         159.70722
  117 Torsion                 23    22    24    25          -1.53048
  118 Torsion                 23    22    24    26        -176.30265


            XYZ format geometry
            -------------------
    26
 geometry
 H                    -2.72962774     3.69798744     0.18049678
 C                    -1.68995329     3.67122939     0.50435177
 H                    -1.64973940     3.55706845     1.58612583
 H                    -1.19416036     4.59425458     0.20855308
 C                    -1.00232815     2.49875272    -0.15281422
 O                    -1.62430717     1.76008199    -0.90416810
 N                     0.28353762     2.31521799     0.14259945
 H                     0.71495016     2.96224873     0.78148319
 C                     1.13321098     1.25561191    -0.41497936
 H                     0.92100199     1.18760627    -1.48375230
 C                     2.59708615     1.69413113    -0.26246263
 H                     2.75088047     2.66353425    -0.73944365
 H                     2.86008211     1.76336775     0.79426175
 H                     3.25089972     0.96216404    -0.74051387
 C                     0.84658036    -0.14886521     0.17621258
 O                     1.75211344    -0.83077727     0.65260713
 N                    -0.41830468    -0.58271608     0.16320259
 H                    -1.10437012     0.02918156    -0.26788265
 C                    -0.90829257    -1.84098297     0.75133038
 H                    -0.50533265    -1.93171262     1.75995193
 H                    -1.99478942    -1.79543866     0.82413361
 C                    -0.53788850    -3.12244913    -0.01065014
 O                    -1.35332419    -4.02786937    -0.12419675
 N                     0.65482453    -3.21858861    -0.58126283
 H                     0.88015621    -4.05864784    -1.08681609
 H                     1.33330023    -2.48505681    -0.42824055

 ==============================================================================
                                internuclear distances
 ------------------------------------------------------------------------------
       center one      |      center two      | atomic units |  angstroms
 ------------------------------------------------------------------------------
    2 C                |   1 H                |     2.05843  |     1.08928
    3 H                |   2 C                |     2.05701  |     1.08852
    4 H                |   2 C                |     2.05736  |     1.08871
    5 C                |   2 C                |     2.85305  |     1.50977
    6 O                |   5 C                |     2.31214  |     1.22353
    7 N                |   5 C                |     2.51724  |     1.33207
    8 H                |   7 N                |     1.90191  |     1.00645
    9 C                |   7 N                |     2.77449  |     1.46820
   10 H                |   9 C                |     2.06312  |     1.09176
   11 C                |   9 C                |     2.90212  |     1.53574
   12 H                |  11 C                |     2.06223  |     1.09129
   13 H                |  11 C                |     2.06199  |     1.09116
   14 H                |  11 C                |     2.06299  |     1.09169
   15 C                |   9 C                |     2.93012  |     1.55056
   16 O                |  15 C                |     2.32363  |     1.22961
   17 N                |  15 C                |     2.52710  |     1.33728
   18 H                |  17 N                |     1.91874  |     1.01535
   19 C                |  17 N                |     2.78324  |     1.47283
   20 H                |  19 C                |     2.05965  |     1.08992
   21 H                |  19 C                |     2.05958  |     1.08989
   22 C                |  19 C                |     2.90303  |     1.53622
   23 O                |  22 C                |     2.31259  |     1.22377
   24 N                |  22 C                |     2.50516  |     1.32567
   25 H                |  24 N                |     1.90109  |     1.00601
   26 H                |  24 N                |     1.91023  |     1.01085
 ------------------------------------------------------------------------------
                         number of included internuclear distances:         25
 ==============================================================================



 ==============================================================================
                                 internuclear angles
 ------------------------------------------------------------------------------
        center 1       |       center 2       |       center 3       |  degrees
 ------------------------------------------------------------------------------
    1 H                |   2 C                |   3 H                |   109.47
    1 H                |   2 C                |   4 H                |   109.45
    1 H                |   2 C                |   5 C                |   108.93
    3 H                |   2 C                |   4 H                |   110.01
    3 H                |   2 C                |   5 C                |   109.53
    4 H                |   2 C                |   5 C                |   109.43
    2 C                |   5 C                |   6 O                |   120.31
    2 C                |   5 C                |   7 N                |   116.75
    6 O                |   5 C                |   7 N                |   122.94
    5 C                |   7 N                |   8 H                |   117.77
    5 C                |   7 N                |   9 C                |   125.02
    8 H                |   7 N                |   9 C                |   117.19
    7 N                |   9 C                |  10 H                |   107.71
    7 N                |   9 C                |  11 C                |   107.93
    7 N                |   9 C                |  15 C                |   113.70
   10 H                |   9 C                |  11 C                |   107.47
   10 H                |   9 C                |  15 C                |   106.31
   11 C                |   9 C                |  15 C                |   113.39
    9 C                |  11 C                |  12 H                |   110.16
    9 C                |  11 C                |  13 H                |   110.12
    9 C                |  11 C                |  14 H                |   109.63
   12 H                |  11 C                |  13 H                |   109.45
   12 H                |  11 C                |  14 H                |   108.65
   13 H                |  11 C                |  14 H                |   108.80
    9 C                |  15 C                |  16 O                |   120.92
    9 C                |  15 C                |  17 N                |   117.71
   16 O                |  15 C                |  17 N                |   121.36
   15 C                |  17 N                |  18 H                |   116.60
   15 C                |  17 N                |  19 C                |   126.01
   18 H                |  17 N                |  19 C                |   117.36
   17 N                |  19 C                |  20 H                |   108.52
   17 N                |  19 C                |  21 H                |   108.82
   17 N                |  19 C                |  22 C                |   115.74
   20 H                |  19 C                |  21 H                |   108.07
   20 H                |  19 C                |  22 C                |   107.48
   21 H                |  19 C                |  22 C                |   107.96
   19 C                |  22 C                |  23 O                |   120.17
   19 C                |  22 C                |  24 N                |   119.40
   23 O                |  22 C                |  24 N                |   120.39
   22 C                |  24 N                |  25 H                |   118.58
   22 C                |  24 N                |  26 H                |   119.08
   25 H                |  24 N                |  26 H                |   122.12
 ------------------------------------------------------------------------------
                            number of included internuclear angles:         42
 ==============================================================================



  library name resolved from: environment
  library file name is: </opt/rit/el9/20230413/app/linux-rhel9-x86_64_v3/gcc-11.2.1/nwchem-7.2.0-oxtctbuhfuzyfaoziquq6bki22grib3g/share/nwchem/libraries/>
  


 Summary of "ao basis" -> "" (cartesian)
 ------------------------------------------------------------------------------
       Tag                 Description            Shells   Functions and Types
 ---------------- ------------------------------  ------  ---------------------
 *                        aug-cc-pvdz                 on all atoms 


                      Basis "ao basis" -> "ao basis" (cartesian)
                      -----
  H (Hydrogen)
  ------------
            Exponent  Coefficients 
       -------------- ---------------------------------------------------------
  1 S  1.30100000E+01  0.019685
  1 S  1.96200000E+00  0.137977
  1 S  4.44600000E-01  0.478148

  2 S  1.22000000E-01  1.000000

  3 S  2.97400000E-02  1.000000

  4 P  7.27000000E-01  1.000000

  5 P  1.41000000E-01  1.000000

  C (Carbon)
  ----------
            Exponent  Coefficients 
       -------------- ---------------------------------------------------------
  1 S  6.66500000E+03  0.000692
  1 S  1.00000000E+03  0.005329
  1 S  2.28000000E+02  0.027077
  1 S  6.47100000E+01  0.101718
  1 S  2.10600000E+01  0.274740
  1 S  7.49500000E+00  0.448564
  1 S  2.79700000E+00  0.285074
  1 S  5.21500000E-01  0.015204

  2 S  6.66500000E+03 -0.000146
  2 S  1.00000000E+03 -0.001154
  2 S  2.28000000E+02 -0.005725
  2 S  6.47100000E+01 -0.023312
  2 S  2.10600000E+01 -0.063955
  2 S  7.49500000E+00 -0.149981
  2 S  2.79700000E+00 -0.127262
  2 S  5.21500000E-01  0.544529

  3 S  1.59600000E-01  1.000000

  4 S  4.69000000E-02  1.000000

  5 P  9.43900000E+00  0.038109
  5 P  2.00200000E+00  0.209480
  5 P  5.45600000E-01  0.508557

  6 P  1.51700000E-01  1.000000

  7 P  4.04100000E-02  1.000000

  8 D  5.50000000E-01  1.000000

  9 D  1.51000000E-01  1.000000

  O (Oxygen)
  ----------
            Exponent  Coefficients 
       -------------- ---------------------------------------------------------
  1 S  1.17200000E+04  0.000710
  1 S  1.75900000E+03  0.005470
  1 S  4.00800000E+02  0.027837
  1 S  1.13700000E+02  0.104800
  1 S  3.70300000E+01  0.283062
  1 S  1.32700000E+01  0.448719
  1 S  5.02500000E+00  0.270952
  1 S  1.01300000E+00  0.015458

  2 S  1.17200000E+04 -0.000160
  2 S  1.75900000E+03 -0.001263
  2 S  4.00800000E+02 -0.006267
  2 S  1.13700000E+02 -0.025716
  2 S  3.70300000E+01 -0.070924
  2 S  1.32700000E+01 -0.165411
  2 S  5.02500000E+00 -0.116955
  2 S  1.01300000E+00  0.557368

  3 S  3.02300000E-01  1.000000

  4 S  7.89600000E-02  1.000000

  5 P  1.77000000E+01  0.043018
  5 P  3.85400000E+00  0.228913
  5 P  1.04600000E+00  0.508728

  6 P  2.75300000E-01  1.000000

  7 P  6.85600000E-02  1.000000

  8 D  1.18500000E+00  1.000000

  9 D  3.32000000E-01  1.000000

  N (Nitrogen)
  ------------
            Exponent  Coefficients 
       -------------- ---------------------------------------------------------
  1 S  9.04600000E+03  0.000700
  1 S  1.35700000E+03  0.005389
  1 S  3.09300000E+02  0.027406
  1 S  8.77300000E+01  0.103207
  1 S  2.85600000E+01  0.278723
  1 S  1.02100000E+01  0.448540
  1 S  3.83800000E+00  0.278238
  1 S  7.46600000E-01  0.015440

  2 S  9.04600000E+03 -0.000153
  2 S  1.35700000E+03 -0.001208
  2 S  3.09300000E+02 -0.005992
  2 S  8.77300000E+01 -0.024544
  2 S  2.85600000E+01 -0.067459
  2 S  1.02100000E+01 -0.158078
  2 S  3.83800000E+00 -0.121831
  2 S  7.46600000E-01  0.549003

  3 S  2.24800000E-01  1.000000

  4 S  6.12400000E-02  1.000000

  5 P  1.35500000E+01  0.039919
  5 P  2.91700000E+00  0.217169
  5 P  7.97300000E-01  0.510319

  6 P  2.18500000E-01  1.000000

  7 P  5.61100000E-02  1.000000

  8 D  8.17000000E-01  1.000000

  9 D  2.30000000E-01  1.000000



 Summary of "ao basis" -> "ao basis" (cartesian)
 ------------------------------------------------------------------------------
       Tag                 Description            Shells   Functions and Types
 ---------------- ------------------------------  ------  ---------------------
 H                        aug-cc-pvdz                5        9   3s2p
 C                        aug-cc-pvdz                9       25   4s3p2d
 O                        aug-cc-pvdz                9       25   4s3p2d
 N                        aug-cc-pvdz                9       25   4s3p2d


                                 NWChem SCF Module
                                 -----------------



  ao basis        = "ao basis"
  functions       =   442
  atoms           =    26
  closed shells   =    50
  open shells     =     0
  charge          =   0.00
  wavefunction    = RHF 
  input vectors   = atomic
  output vectors  = ./ALA_GLY_2.movecs
  use symmetry    = F
  symmetry adapt  = F


 Summary of "ao basis" -> "ao basis" (cartesian)
 ------------------------------------------------------------------------------
       Tag                 Description            Shells   Functions and Types
 ---------------- ------------------------------  ------  ---------------------
 H                        aug-cc-pvdz                5        9   3s2p
 C                        aug-cc-pvdz                9       25   4s3p2d
 O                        aug-cc-pvdz                9       25   4s3p2d
 N                        aug-cc-pvdz                9       25   4s3p2d



 Forming initial guess at       0.9s


 !! The overlap matrix has   1 vectors deemed linearly dependent with
    eigenvalues:
 4.58D-06


      Superposition of Atomic Density Guess
      -------------------------------------

 Sum of atomic energies:        -657.36908239

      Non-variational initial energy
      ------------------------------

 Total energy =    -665.534898
 1-e energy   =   -2548.996260
 2-e energy   =    1049.635907
 HOMO         =      -0.309064
 LUMO         =       0.006555


 Starting SCF solution at     373.8s



 ----------------------------------------------
         Quadratically convergent ROHF

 Convergence threshold     :          1.000E-04
 Maximum no. of iterations :           30
 Final Fock-matrix accuracy:          1.000E-10
 ----------------------------------------------


              iter       energy          gnorm     gmax       time
             ----- ------------------- --------- --------- --------
                 1     -660.4195088225  2.29D+00  1.65D-01    291.6
                 2     -660.6934208588  7.38D-01  4.38D-02    512.2
                 3     -660.7415126493  6.03D-02  4.94D-03    798.9
                 4     -660.7420962877  1.56D-03  1.06D-04   1298.2
                 5     -660.7420965963  4.20D-06  3.41D-07   1990.9


       Final RHF  results 
       ------------------ 

         Total SCF energy =   -660.742096596346
      One-electron energy =  -2557.920790461597
      Two-electron energy =   1063.353237879893
 Nuclear repulsion energy =    833.825455985358

        Time for solution =   1794.7s


             Final eigenvalues
             -----------------

              1      
    1  -20.5516
    2  -20.5438
    3  -20.5110
    4  -15.6256
    5  -15.6015
    6  -15.5752
    7  -11.3811
    8  -11.3732
    9  -11.3463
   10  -11.3169
   11  -11.2909
   12  -11.2626
   13  -11.2536
   14   -1.4180
   15   -1.4028
   16   -1.3730
   17   -1.2733
   18   -1.2435
   19   -1.2035
   20   -1.0787
   21   -1.0128
   22   -0.9988
   23   -0.9014
   24   -0.8343
   25   -0.8122
   26   -0.7809
   27   -0.7474
   28   -0.7285
   29   -0.7070
   30   -0.6927
   31   -0.6716
   32   -0.6536
   33   -0.6358
   34   -0.6142
   35   -0.6073
   36   -0.5951
   37   -0.5888
   38   -0.5795
   39   -0.5663
   40   -0.5570
   41   -0.5517
   42   -0.5467
   43   -0.5287
   44   -0.5238
   45   -0.4643
   46   -0.4470
   47   -0.4347
   48   -0.4138
   49   -0.3967
   50   -0.3882
   51    0.0195
   52    0.0340
   53    0.0392
   54    0.0404
   55    0.0528
   56    0.0558
   57    0.0592
   58    0.0643
   59    0.0668
   60    0.0730

                       ROHF Final Molecular Orbital Analysis
                       -------------------------------------

 Vector   14  Occ=2.000000D+00  E=-1.418046D+00
              MO Center= -1.0D+00,  1.8D+00, -4.8D-01, r^2= 1.9D+00
   Bfn.  Coefficient  Atom+Function         Bfn.  Coefficient  Atom+Function  
  ----- ------------  ---------------      ----- ------------  ---------------
    80      0.339520   6 O  s                79      0.333839   6 O  s         
    54      0.234359   5 C  s                12      0.175988   2 C  s         

 Vector   15  Occ=2.000000D+00  E=-1.402810D+00
              MO Center=  1.0D+00, -4.4D-01,  3.7D-01, r^2= 2.2D+00
   Bfn.  Coefficient  Atom+Function         Bfn.  Coefficient  Atom+Function  
  ----- ------------  ---------------      ----- ------------  ---------------
   250      0.358525  16 O  s               249      0.340145  16 O  s         
   224      0.228457  15 C  s         

 Vector   16  Occ=2.000000D+00  E=-1.373045D+00
              MO Center= -8.8D-01, -3.6D+00, -1.2D-01, r^2= 1.1D+00
   Bfn.  Coefficient  Atom+Function         Bfn.  Coefficient  Atom+Function  
  ----- ------------  ---------------      ----- ------------  ---------------
   377      0.367072  23 O  s               376      0.350591  23 O  s         
   351      0.245461  22 C  s         

 Vector   17  Occ=2.000000D+00  E=-1.273325D+00
              MO Center=  4.6D-02,  2.1D+00, -4.0D-02, r^2= 1.9D+00
   Bfn.  Coefficient  Atom+Function         Bfn.  Coefficient  Atom+Function  
  ----- ------------  ---------------      ----- ------------  ---------------
   105      0.402034   7 N  s               104      0.340663   7 N  s         
    80     -0.215721   6 O  s                79     -0.181510   6 O  s         
    57      0.167566   5 C  px              128      0.156951   8 H  s         

 Vector   18  Occ=2.000000D+00  E=-1.243478D+00
              MO Center= -1.2D-01, -6.8D-01,  2.3D-01, r^2= 2.1D+00
   Bfn.  Coefficient  Atom+Function         Bfn.  Coefficient  Atom+Function  
  ----- ------------  ---------------      ----- ------------  ---------------
   275      0.354766  17 N  s               274      0.343063  17 N  s         
   250     -0.205488  16 O  s               227     -0.186911  15 C  px        
   249     -0.163656  16 O  s               298      0.150242  18 H  s         

 Vector   19  Occ=2.000000D+00  E=-1.203493D+00
              MO Center=  2.6D-01, -3.1D+00, -4.1D-01, r^2= 1.6D+00
   Bfn.  Coefficient  Atom+Function         Bfn.  Coefficient  Atom+Function  
  ----- ------------  ---------------      ----- ------------  ---------------
   402      0.371933  24 N  s               401      0.367028  24 N  s         
   377     -0.212863  23 O  s               354      0.197143  22 C  px        
   376     -0.175015  23 O  s               434      0.164257  26 H  s         
   425      0.156818  25 H  s         

 Vector   20  Occ=2.000000D+00  E=-1.078677D+00
              MO Center=  6.5D-01,  1.8D+00, -1.0D-01, r^2= 4.5D+00
   Bfn.  Coefficient  Atom+Function         Bfn.  Coefficient  Atom+Function  
  ----- ------------  ---------------      ----- ------------  ---------------
   138      0.246031   9 C  s               172      0.197053  11 C  s         
   144      0.194985   9 C  px               12     -0.157536   2 C  s         
    11     -0.153323   2 C  s         

 Vector   21  Occ=2.000000D+00  E=-1.012843D+00
              MO Center= -7.9D-01,  2.8D+00,  2.7D-01, r^2= 5.2D+00
   Bfn.  Coefficient  Atom+Function         Bfn.  Coefficient  Atom+Function  
  ----- ------------  ---------------      ----- ------------  ---------------
    11      0.317221   2 C  s                56     -0.233688   5 C  s         
    13      0.189264   2 C  s         

 Vector   22  Occ=2.000000D+00  E=-9.987671D-01
              MO Center= -1.4D-01, -1.1D+00,  3.6D-01, r^2= 5.1D+00
   Bfn.  Coefficient  Atom+Function         Bfn.  Coefficient  Atom+Function  
  ----- ------------  ---------------      ----- ------------  ---------------
   308      0.302305  19 C  s               139     -0.186215   9 C  s         
   309      0.179961  19 C  s               225      0.156060  15 C  s         
   144      0.153057   9 C  px        

 Vector   23  Occ=2.000000D+00  E=-9.014112D-01
              MO Center=  1.3D+00,  9.8D-01, -1.2D-01, r^2= 5.8D+00
   Bfn.  Coefficient  Atom+Function         Bfn.  Coefficient  Atom+Function  
  ----- ------------  ---------------      ----- ------------  ---------------
   139      0.274226   9 C  s               172     -0.242952  11 C  s         
   145     -0.203717   9 C  py              309      0.202559  19 C  s         
   173     -0.197389  11 C  s               138      0.193429   9 C  s         
   174     -0.184763  11 C  s               225     -0.168812  15 C  s         

 Vector   24  Occ=2.000000D+00  E=-8.342600D-01
              MO Center= -7.7D-03,  1.7D+00,  4.2D-02, r^2= 5.0D+00
   Bfn.  Coefficient  Atom+Function         Bfn.  Coefficient  Atom+Function  
  ----- ------------  ---------------      ----- ------------  ---------------
   107      0.314728   7 N  px              139     -0.223260   9 C  s         
   128      0.220007   8 H  s                54     -0.209438   5 C  s         
    80      0.165489   6 O  s               105      0.164222   7 N  s         
    57     -0.152827   5 C  px        

 Vector   25  Occ=2.000000D+00  E=-8.121802D-01
              MO Center=  1.1D-01, -6.7D-01, -2.1D-02, r^2= 6.3D+00
   Bfn.  Coefficient  Atom+Function         Bfn.  Coefficient  Atom+Function  
  ----- ------------  ---------------      ----- ------------  ---------------
   277      0.247907  17 N  px              309      0.238915  19 C  s         
   128      0.173121   8 H  s               310      0.161405  19 C  s         
   226     -0.159538  15 C  s               351      0.160247  22 C  s         
   404     -0.159451  24 N  px              298     -0.155189  18 H  s         

 Vector   26  Occ=2.000000D+00  E=-7.809025D-01
              MO Center= -5.3D-03, -1.9D+00, -6.5D-02, r^2= 4.5D+00
   Bfn.  Coefficient  Atom+Function         Bfn.  Coefficient  Atom+Function  
  ----- ------------  ---------------      ----- ------------  ---------------
   404      0.263070  24 N  px              298     -0.218237  18 H  s         
   277      0.200709  17 N  px              353      0.191951  22 C  s         
   225      0.185371  15 C  s               351     -0.181115  22 C  s         
   226     -0.166827  15 C  s               276      0.154923  17 N  s         
   434      0.153641  26 H  s         

 Vector   27  Occ=2.000000D+00  E=-7.473762D-01
              MO Center=  5.3D-01,  3.0D-01,  1.6D-02, r^2= 5.7D+00
   Bfn.  Coefficient  Atom+Function         Bfn.  Coefficient  Atom+Function  
  ----- ------------  ---------------      ----- ------------  ---------------
   145      0.352992   9 C  py              225      0.243463  15 C  s         
   139     -0.212823   9 C  s               142      0.204595   9 C  py        
   109     -0.188863   7 N  pz              228     -0.176309  15 C  py        
   253     -0.170834  16 O  py              310     -0.158730  19 C  s         

 Vector   28  Occ=2.000000D+00  E=-7.285181D-01
              MO Center=  2.5D-01, -2.1D+00, -2.5D-01, r^2= 4.8D+00
   Bfn.  Coefficient  Atom+Function         Bfn.  Coefficient  Atom+Function  
  ----- ------------  ---------------      ----- ------------  ---------------
   434      0.284528  26 H  s               405      0.278828  24 N  py        
   225     -0.198420  15 C  s               404      0.193014  24 N  px        
   425     -0.177814  25 H  s               435      0.177968  26 H  s         
   310      0.168360  19 C  s               145     -0.159210   9 C  py        
   139      0.155026   9 C  s               315     -0.154418  19 C  py        

 Vector   29  Occ=2.000000D+00  E=-7.069645D-01
              MO Center= -6.4D-01,  1.8D+00, -2.1D-02, r^2= 6.7D+00
   Bfn.  Coefficient  Atom+Function         Bfn.  Coefficient  Atom+Function  
  ----- ------------  ---------------      ----- ------------  ---------------
    83      0.212320   6 O  py               57     -0.201577   5 C  px        
    18     -0.190947   2 C  py               13     -0.167169   2 C  s         
    15     -0.166878   2 C  py               55     -0.162539   5 C  s         

 Vector   30  Occ=2.000000D+00  E=-6.927485D-01
              MO Center=  2.1D-02,  1.5D+00, -4.0D-01, r^2= 4.7D+00
   Bfn.  Coefficient  Atom+Function         Bfn.  Coefficient  Atom+Function  
  ----- ------------  ---------------      ----- ------------  ---------------
   143     -0.229695   9 C  pz              108      0.221167   7 N  py        
    84     -0.205709   6 O  pz               80      0.198606   6 O  s         
    56     -0.193893   5 C  s               162      0.191295  10 H  s         
   146     -0.171484   9 C  pz               57      0.167565   5 C  px        
   144      0.167497   9 C  px               13      0.162377   2 C  s         

 Vector   31  Occ=2.000000D+00  E=-6.716367D-01
              MO Center= -2.4D-02, -1.5D+00,  6.1D-02, r^2= 7.1D+00
   Bfn.  Coefficient  Atom+Function         Bfn.  Coefficient  Atom+Function  
  ----- ------------  ---------------      ----- ------------  ---------------
   226      0.253664  15 C  s               315      0.245433  19 C  py        
   139      0.238424   9 C  s               310     -0.232364  19 C  s         
   278     -0.185761  17 N  py              312      0.183931  19 C  py        
   227      0.182417  15 C  px              380     -0.174607  23 O  py        
   250     -0.172730  16 O  s               377      0.169939  23 O  s         

 Vector   32  Occ=2.000000D+00  E=-6.535952D-01
              MO Center= -1.6D-02, -1.0D+00,  4.2D-01, r^2= 6.9D+00
   Bfn.  Coefficient  Atom+Function         Bfn.  Coefficient  Atom+Function  
  ----- ------------  ---------------      ----- ------------  ---------------
   313      0.227911  19 C  pz              332      0.209839  20 H  s         
   353     -0.188884  22 C  s               250      0.177836  16 O  s         
   252      0.163813  16 O  px              354      0.162772  22 C  px        
   380     -0.152733  23 O  py              227     -0.151968  15 C  px        

 Vector   33  Occ=2.000000D+00  E=-6.358005D-01
              MO Center= -9.4D-01,  2.3D+00,  2.6D-01, r^2= 6.8D+00
   Bfn.  Coefficient  Atom+Function         Bfn.  Coefficient  Atom+Function  
  ----- ------------  ---------------      ----- ------------  ---------------
   139      0.263384   9 C  s                16      0.232662   2 C  pz        
    44     -0.218689   4 H  s                35      0.216619   3 H  s         
    15     -0.179351   2 C  py               59      0.164278   5 C  pz        

 Vector   34  Occ=2.000000D+00  E=-6.141823D-01
              MO Center=  7.6D-01, -3.1D-01,  2.0D-01, r^2= 6.6D+00
   Bfn.  Coefficient  Atom+Function         Bfn.  Coefficient  Atom+Function  
  ----- ------------  ---------------      ----- ------------  ---------------
   252      0.241653  16 O  px              243     -0.207957  15 C  dxy       
   278     -0.196102  17 N  py              139      0.189867   9 C  s         
   145     -0.178501   9 C  py               56     -0.171789   5 C  s         
   196     -0.169612  12 H  s               197     -0.164056  12 H  s         
   230     -0.160962  15 C  px              298     -0.156946  18 H  s         

 Vector   35  Occ=2.000000D+00  E=-6.072963D-01
              MO Center= -5.5D-01,  1.8D+00, -2.1D-01, r^2= 6.2D+00
   Bfn.  Coefficient  Atom+Function         Bfn.  Coefficient  Atom+Function  
  ----- ------------  ---------------      ----- ------------  ---------------
    82     -0.261984   6 O  px               58      0.247272   5 C  py        
    59      0.196499   5 C  pz               80      0.177006   6 O  s         
   128     -0.174042   8 H  s                84     -0.169043   6 O  pz        
    85     -0.157479   6 O  px        

 Vector   36  Occ=2.000000D+00  E=-5.951104D-01
              MO Center= -7.6D-01, -2.7D-02,  3.2D-02, r^2= 1.2D+01
   Bfn.  Coefficient  Atom+Function         Bfn.  Coefficient  Atom+Function  
  ----- ------------  ---------------      ----- ------------  ---------------
     2      0.190875   1 H  s                 1      0.175638   1 H  s         
    14     -0.164841   2 C  px              379     -0.163491  23 O  px        
    82     -0.157328   6 O  px        

 Vector   37  Occ=2.000000D+00  E=-5.887642D-01
              MO Center= -8.7D-01,  8.9D-01,  1.9D-01, r^2= 1.3D+01
   Bfn.  Coefficient  Atom+Function         Bfn.  Coefficient  Atom+Function  
  ----- ------------  ---------------      ----- ------------  ---------------
    13     -0.281683   2 C  s                 1      0.261696   1 H  s         
    14     -0.253177   2 C  px                2      0.239449   1 H  s         
    56      0.170597   5 C  s               379      0.152129  23 O  px        

 Vector   38  Occ=2.000000D+00  E=-5.795022D-01
              MO Center= -5.0D-01, -2.4D+00,  1.5D-01, r^2= 5.0D+00
   Bfn.  Coefficient  Atom+Function         Bfn.  Coefficient  Atom+Function  
  ----- ------------  ---------------      ----- ------------  ---------------
   311      0.234721  19 C  px              341     -0.210575  21 H  s         
   380     -0.191515  23 O  py              405     -0.191078  24 N  py        
   356      0.185770  22 C  pz              355      0.182853  22 C  py        
   379     -0.174640  23 O  px              312     -0.154132  19 C  py        
   425      0.153673  25 H  s               377      0.151598  23 O  s         

 Vector   39  Occ=2.000000D+00  E=-5.663367D-01
              MO Center=  1.0D+00,  3.2D-01,  1.6D-01, r^2= 8.7D+00
   Bfn.  Coefficient  Atom+Function         Bfn.  Coefficient  Atom+Function  
  ----- ------------  ---------------      ----- ------------  ---------------
   177      0.268655  11 C  pz              174      0.244589  11 C  s         
   215     -0.243756  14 H  s               205      0.236656  13 H  s         
   254     -0.190346  16 O  pz              139     -0.184168   9 C  s         
   379      0.166146  23 O  px              355     -0.163581  22 C  py        
   229     -0.162167  15 C  pz              206      0.159459  13 H  s         

 Vector   40  Occ=2.000000D+00  E=-5.569729D-01
              MO Center=  2.6D-01,  1.3D+00,  6.3D-02, r^2= 8.4D+00
   Bfn.  Coefficient  Atom+Function         Bfn.  Coefficient  Atom+Function  
  ----- ------------  ---------------      ----- ------------  ---------------
   141      0.189951   9 C  px              254      0.185130  16 O  pz        
   108      0.171747   7 N  py               14     -0.168793   2 C  px        
    56      0.167976   5 C  s                44     -0.164158   4 H  s         
    13     -0.157845   2 C  s               175     -0.154626  11 C  px        
   196     -0.152918  12 H  s         

 Vector   41  Occ=2.000000D+00  E=-5.516678D-01
              MO Center=  1.5D+00,  1.2D+00, -1.7D-01, r^2= 6.7D+00
   Bfn.  Coefficient  Atom+Function         Bfn.  Coefficient  Atom+Function  
  ----- ------------  ---------------      ----- ------------  ---------------
   176      0.320019  11 C  py              196      0.266848  12 H  s         
   215     -0.267892  14 H  s               214     -0.233658  14 H  s         
   197      0.216926  12 H  s                12     -0.205304   2 C  s         
    55      0.182782   5 C  s               228      0.180290  15 C  py        
    56      0.159342   5 C  s         

 Vector   42  Occ=2.000000D+00  E=-5.467046D-01
              MO Center= -7.5D-02,  1.8D+00, -3.9D-02, r^2= 7.2D+00
   Bfn.  Coefficient  Atom+Function         Bfn.  Coefficient  Atom+Function  
  ----- ------------  ---------------      ----- ------------  ---------------
   175      0.212091  11 C  px              141     -0.199805   9 C  px        
    35      0.191316   3 H  s                83      0.191633   6 O  py        
    16      0.181892   2 C  pz               84     -0.172979   6 O  pz        
   276      0.153377  17 N  s                86      0.151379   6 O  py        

 Vector   43  Occ=2.000000D+00  E=-5.286927D-01
              MO Center=  8.7D-01, -3.7D-02, -1.0D-01, r^2= 8.1D+00
   Bfn.  Coefficient  Atom+Function         Bfn.  Coefficient  Atom+Function  
  ----- ------------  ---------------      ----- ------------  ---------------
   178      0.268743  11 C  px              174      0.224065  11 C  s         
   162      0.212054  10 H  s               205      0.206722  13 H  s         
   197     -0.199044  12 H  s               143     -0.191731   9 C  pz        
   175      0.188123  11 C  px              141     -0.183734   9 C  px        
   173     -0.179632  11 C  s               177      0.180189  11 C  pz        

 Vector   44  Occ=2.000000D+00  E=-5.238042D-01
              MO Center=  1.3D-01, -1.3D+00,  1.4D-01, r^2= 7.7D+00
   Bfn.  Coefficient  Atom+Function         Bfn.  Coefficient  Atom+Function  
  ----- ------------  ---------------      ----- ------------  ---------------
   342      0.249227  21 H  s               332     -0.212523  20 H  s         
   381      0.198451  23 O  pz              406      0.184035  24 N  pz        
   313     -0.178092  19 C  pz              173     -0.166407  11 C  s         
   162      0.164344  10 H  s               178      0.160994  11 C  px        
   356      0.154550  22 C  pz        

 Vector   45  Occ=2.000000D+00  E=-4.643382D-01
              MO Center=  2.5D-01,  6.3D-01,  1.4D-02, r^2= 5.7D+00
   Bfn.  Coefficient  Atom+Function         Bfn.  Coefficient  Atom+Function  
  ----- ------------  ---------------      ----- ------------  ---------------
   252      0.280919  16 O  px              253      0.278275  16 O  py        
    13      0.263711   2 C  s                84      0.241753   6 O  pz        
   256      0.231424  16 O  py               82     -0.228949   6 O  px        
   255      0.215891  16 O  px              109     -0.198573   7 N  pz        
    56     -0.186192   5 C  s                87      0.184563   6 O  pz        

 Vector   46  Occ=2.000000D+00  E=-4.469594D-01
              MO Center= -1.1D+00,  1.7D+00, -4.1D-01, r^2= 4.0D+00
   Bfn.  Coefficient  Atom+Function         Bfn.  Coefficient  Atom+Function  
  ----- ------------  ---------------      ----- ------------  ---------------
    13      0.460617   2 C  s                56     -0.359306   5 C  s         
    82     -0.360822   6 O  px               83      0.354040   6 O  py        
    85     -0.298993   6 O  px               86      0.284332   6 O  py        
    63      0.186961   5 C  px              105      0.186243   7 N  s         
    18      0.181753   2 C  py               64     -0.180609   5 C  py        

 Vector   47  Occ=2.000000D+00  E=-4.347426D-01
              MO Center= -3.6D-01, -2.0D+00,  9.1D-02, r^2= 6.1D+00
   Bfn.  Coefficient  Atom+Function         Bfn.  Coefficient  Atom+Function  
  ----- ------------  ---------------      ----- ------------  ---------------
   379      0.305019  23 O  px              279     -0.264546  17 N  pz        
   254      0.257210  16 O  pz              382      0.224440  23 O  px        
   282     -0.219643  17 N  pz              380     -0.212017  23 O  py        
   257      0.201221  16 O  pz              381     -0.191567  23 O  pz        
   383     -0.173343  23 O  py        

 Vector   48  Occ=2.000000D+00  E=-4.138461D-01
              MO Center=  3.6D-01,  7.7D-01, -8.5D-03, r^2= 5.4D+00
   Bfn.  Coefficient  Atom+Function         Bfn.  Coefficient  Atom+Function  
  ----- ------------  ---------------      ----- ------------  ---------------
   253      0.272377  16 O  py              109      0.269676   7 N  pz        
   112      0.240330   7 N  pz              108     -0.224734   7 N  py        
   256      0.211285  16 O  py              111     -0.208131   7 N  py        
    84     -0.187905   6 O  pz               13     -0.173211   2 C  s         

 Vector   49  Occ=2.000000D+00  E=-3.967389D-01
              MO Center= -2.5D-01, -3.1D+00, -2.4D-01, r^2= 3.9D+00
   Bfn.  Coefficient  Atom+Function         Bfn.  Coefficient  Atom+Function  
  ----- ------------  ---------------      ----- ------------  ---------------
   381      0.399545  23 O  pz              310      0.324900  19 C  s         
   384      0.307080  23 O  pz              406     -0.289024  24 N  pz        
   409     -0.250333  24 N  pz              174     -0.206753  11 C  s         
   353     -0.197713  22 C  s               404     -0.186518  24 N  px        
   147      0.160396   9 C  px              405      0.160949  24 N  py        

 Vector   50  Occ=2.000000D+00  E=-3.882300D-01
              MO Center= -3.4D-01, -2.3D+00,  7.7D-02, r^2= 4.3D+00
   Bfn.  Coefficient  Atom+Function         Bfn.  Coefficient  Atom+Function  
  ----- ------------  ---------------      ----- ------------  ---------------
   279      0.276104  17 N  pz              380     -0.277020  23 O  py        
   282      0.244512  17 N  pz              379      0.242193  23 O  px        
   406     -0.221020  24 N  pz              383     -0.204311  23 O  py        
   382      0.195244  23 O  px              254     -0.183993  16 O  pz        
   278      0.169222  17 N  py              409     -0.168545  24 N  pz        

 Vector   51  Occ=0.000000D+00  E= 1.954993D-02
              MO Center=  5.4D-01,  4.4D+00,  1.1D+00, r^2= 1.9D+01
   Bfn.  Coefficient  Atom+Function         Bfn.  Coefficient  Atom+Function  
  ----- ------------  ---------------      ----- ------------  ---------------
    56      3.198239   5 C  s               106     -2.557739   7 N  s         
    64      2.429290   5 C  py              226      2.269156  15 C  s         
   174      2.209740  11 C  s                46     -1.649917   4 H  s         
    12      1.554566   2 C  s                37     -1.544256   3 H  s         
   148      1.549855   9 C  py              147     -1.506856   9 C  px        

 Vector   52  Occ=0.000000D+00  E= 3.404634D-02
              MO Center=  1.0D+00,  2.6D+00, -1.9D-02, r^2= 3.1D+01
   Bfn.  Coefficient  Atom+Function         Bfn.  Coefficient  Atom+Function  
  ----- ------------  ---------------      ----- ------------  ---------------
    64      3.345510   5 C  py              310     -3.036822  19 C  s         
    63     -2.758207   5 C  px              198      2.723524  12 H  s         
    37     -2.615120   3 H  s                13     -2.329995   2 C  s         
   147     -2.268776   9 C  px              233     -2.056756  15 C  px        
   106      1.790924   7 N  s               276     -1.797957  17 N  s         

 Vector   53  Occ=0.000000D+00  E= 3.915663D-02
              MO Center=  5.3D-01,  2.8D+00,  9.3D-01, r^2= 3.1D+01
   Bfn.  Coefficient  Atom+Function         Bfn.  Coefficient  Atom+Function  
  ----- ------------  ---------------      ----- ------------  ---------------
   147      3.112254   9 C  px               46      2.772034   4 H  s         
   207     -2.240240  13 H  s                63      2.143266   5 C  px        
   334     -1.594225  20 H  s                64     -1.558897   5 C  py        
    37     -1.538152   3 H  s                 3      1.527590   1 H  s         
   233     -1.511860  15 C  px              173      1.480255  11 C  s         

 Vector   54  Occ=0.000000D+00  E= 4.040354D-02
              MO Center=  3.0D-01,  4.4D-01, -7.3D-01, r^2= 3.5D+01
   Bfn.  Coefficient  Atom+Function         Bfn.  Coefficient  Atom+Function  
  ----- ------------  ---------------      ----- ------------  ---------------
   164      2.588104  10 H  s               174     -2.349683  11 C  s         
   130     -2.331508   8 H  s                56     -2.143710   5 C  s         
     3      2.120053   1 H  s               234      2.053798  15 C  py        
   353     -2.039237  22 C  s               147      1.723568   9 C  px        
   149      1.723137   9 C  pz              216      1.687412  14 H  s         

 Vector   55  Occ=0.000000D+00  E= 5.277336D-02
              MO Center=  1.0D+00, -2.9D-01, -8.3D-01, r^2= 4.2D+01
   Bfn.  Coefficient  Atom+Function         Bfn.  Coefficient  Atom+Function  
  ----- ------------  ---------------      ----- ------------  ---------------
    13      2.964049   2 C  s               403     -2.545717  24 N  s         
   198      2.500270  12 H  s               427     -2.409272  25 H  s         
     3      2.382704   1 H  s                46     -2.364087   4 H  s         
   343      1.990154  21 H  s               130     -1.931683   8 H  s         
   360      1.906589  22 C  px              174     -1.718561  11 C  s         

 Vector   56  Occ=0.000000D+00  E= 5.581687D-02
              MO Center=  4.6D-01,  1.7D+00,  4.7D-02, r^2= 3.6D+01
   Bfn.  Coefficient  Atom+Function         Bfn.  Coefficient  Atom+Function  
  ----- ------------  ---------------      ----- ------------  ---------------
    56      7.267626   5 C  s               164     -4.101148  10 H  s         
     3      2.975023   1 H  s                13     -2.958236   2 C  s         
   216      2.633053  14 H  s               207      2.599512  13 H  s         
   113      2.454778   7 N  px              149     -2.457225   9 C  pz        
   106     -2.339945   7 N  s               148     -2.244342   9 C  py        

 Vector   57  Occ=0.000000D+00  E= 5.916844D-02
              MO Center= -5.2D-01,  7.3D-01,  1.4D+00, r^2= 3.5D+01
   Bfn.  Coefficient  Atom+Function         Bfn.  Coefficient  Atom+Function  
  ----- ------------  ---------------      ----- ------------  ---------------
    37     -3.836697   3 H  s                13      3.522008   2 C  s         
   353     -3.344683  22 C  s               226     -3.314238  15 C  s         
   164     -2.885237  10 H  s               276      2.776967  17 N  s         
    46      2.182004   4 H  s               174      2.105040  11 C  s         
   207      2.108452  13 H  s               310     -2.096842  19 C  s         

 Vector   58  Occ=0.000000D+00  E= 6.433876D-02
              MO Center= -1.4D-01,  1.1D+00,  7.4D-01, r^2= 3.5D+01
   Bfn.  Coefficient  Atom+Function         Bfn.  Coefficient  Atom+Function  
  ----- ------------  ---------------      ----- ------------  ---------------
   334      3.792881  20 H  s               130     -3.008961   8 H  s         
   216      2.798619  14 H  s               300     -2.689602  18 H  s         
   174      2.658778  11 C  s                 3     -2.633078   1 H  s         
   164     -2.482114  10 H  s               114      2.405477   7 N  py        
   226      2.406451  15 C  s                37      2.392431   3 H  s         

 Vector   59  Occ=0.000000D+00  E= 6.681290D-02
              MO Center=  9.2D-01,  4.4D-01, -2.4D-01, r^2= 3.7D+01
   Bfn.  Coefficient  Atom+Function         Bfn.  Coefficient  Atom+Function  
  ----- ------------  ---------------      ----- ------------  ---------------
   164      4.587486  10 H  s               198     -4.551365  12 H  s         
   310      3.651899  19 C  s               207      3.360786  13 H  s         
   334      3.229492  20 H  s               149      3.199875   9 C  pz        
   343     -2.635965  21 H  s               148      2.243266   9 C  py        
   183     -1.981056  11 C  pz              427     -1.882574  25 H  s         

 Vector   60  Occ=0.000000D+00  E= 7.299534D-02
              MO Center= -4.2D-01,  5.0D-01, -1.6D-01, r^2= 4.2D+01
   Bfn.  Coefficient  Atom+Function         Bfn.  Coefficient  Atom+Function  
  ----- ------------  ---------------      ----- ------------  ---------------
    56      6.011832   5 C  s               226     -5.331149  15 C  s         
   343     -5.205800  21 H  s               216     -4.327821  14 H  s         
   198      4.286181  12 H  s               140     -3.567619   9 C  s         
   113      3.461311   7 N  px              234     -3.393252  15 C  py        
   317     -3.245852  19 C  px               46     -3.121435   4 H  s         

 Vector   61  Occ=0.000000D+00  E= 8.455942D-02
              MO Center=  8.8D-01,  1.8D+00,  5.7D-01, r^2= 3.5D+01
   Bfn.  Coefficient  Atom+Function         Bfn.  Coefficient  Atom+Function  
  ----- ------------  ---------------      ----- ------------  ---------------
   207      5.650795  13 H  s               130     -5.274937   8 H  s         
    13     -4.971897   2 C  s                56      4.160491   5 C  s         
     3     -3.411889   1 H  s               216     -3.231964  14 H  s         
   353     -2.881406  22 C  s                37      2.554893   3 H  s         
   164      2.424535  10 H  s                46      2.330756   4 H  s         

 Vector   62  Occ=0.000000D+00  E= 9.280891D-02
              MO Center= -8.5D-01,  1.4D+00,  7.8D-01, r^2= 3.1D+01
   Bfn.  Coefficient  Atom+Function         Bfn.  Coefficient  Atom+Function  
  ----- ------------  ---------------      ----- ------------  ---------------
    56     20.856578   5 C  s                13    -18.341476   2 C  s         
   353    -12.916748  22 C  s               310      8.698233  19 C  s         
    21      5.760211   2 C  py               64      5.128522   5 C  py        
    63     -5.058160   5 C  px               12     -3.956116   2 C  s         
    65      3.695289   5 C  pz              130      3.676481   8 H  s         

 Vector   63  Occ=0.000000D+00  E= 9.816284D-02
              MO Center=  1.3D+00, -1.6D+00, -7.6D-01, r^2= 3.1D+01
   Bfn.  Coefficient  Atom+Function         Bfn.  Coefficient  Atom+Function  
  ----- ------------  ---------------      ----- ------------  ---------------
   436     -7.898446  26 H  s               310     -7.766005  19 C  s         
   353      7.708693  22 C  s               226      7.208078  15 C  s         
    13      6.076165   2 C  s                56     -6.022712   5 C  s         
   300     -5.532762  18 H  s               216      4.251146  14 H  s         
   198     -3.930332  12 H  s               427      3.747180  25 H  s         

 Vector   64  Occ=0.000000D+00  E= 1.024399D-01
              MO Center= -8.5D-01, -1.1D+00, -8.2D-01, r^2= 3.0D+01
   Bfn.  Coefficient  Atom+Function         Bfn.  Coefficient  Atom+Function  
  ----- ------------  ---------------      ----- ------------  ---------------
   300     10.183900  18 H  s               343     -5.993492  21 H  s         
    56     -5.011400   5 C  s               436     -4.196201  26 H  s         
   216      3.935887  14 H  s               164     -3.799092  10 H  s         
   353     -3.400089  22 C  s               310      3.336219  19 C  s         
   334      2.981147  20 H  s               318     -2.800281  19 C  py        

 Vector   65  Occ=0.000000D+00  E= 1.084538D-01
              MO Center= -7.2D-01,  2.8D-01,  3.2D-01, r^2= 3.0D+01
   Bfn.  Coefficient  Atom+Function         Bfn.  Coefficient  Atom+Function  
  ----- ------------  ---------------      ----- ------------  ---------------
    56     21.590258   5 C  s               353     16.877455  22 C  s         
    13    -12.277354   2 C  s               226    -11.395135  15 C  s         
   310    -10.847822  19 C  s               148     -7.722478   9 C  py        
   140     -6.733158   9 C  s               174      5.158652  11 C  s         
   113      5.110213   7 N  px               65      5.013172   5 C  pz        

 Vector   66  Occ=0.000000D+00  E= 1.183489D-01
              MO Center=  2.5D-02,  1.2D+00,  4.7D-01, r^2= 2.8D+01
   Bfn.  Coefficient  Atom+Function         Bfn.  Coefficient  Atom+Function  
  ----- ------------  ---------------      ----- ------------  ---------------
    56     22.471660   5 C  s                13    -20.397817   2 C  s         
   174     13.533061  11 C  s               310     13.346389  19 C  s         
   147    -11.925156   9 C  px               64     10.920513   5 C  py        
   106    -10.648756   7 N  s               353     -8.832507  22 C  s         
   226     -7.288372  15 C  s                65      6.408724   5 C  pz        

 Vector   67  Occ=0.000000D+00  E= 1.245224D-01
              MO Center= -8.3D-01,  1.2D+00,  3.1D-01, r^2= 3.5D+01
   Bfn.  Coefficient  Atom+Function         Bfn.  Coefficient  Atom+Function  
  ----- ------------  ---------------      ----- ------------  ---------------
    13     24.292660   2 C  s                56    -18.230885   5 C  s         
   310     16.471922  19 C  s               226    -16.048133  15 C  s         
   353    -15.251949  22 C  s                63     12.996475   5 C  px        
    64    -12.966514   5 C  py              148     -9.734374   9 C  py        
   140     -7.335494   9 C  s                21     -6.623086   2 C  py        

 Vector   68  Occ=0.000000D+00  E= 1.325485D-01
              MO Center=  1.1D+00,  1.6D+00, -2.1D-01, r^2= 2.7D+01
   Bfn.  Coefficient  Atom+Function         Bfn.  Coefficient  Atom+Function  
  ----- ------------  ---------------      ----- ------------  ---------------
   174     12.089779  11 C  s               147    -10.747676   9 C  px        
   226     -9.184169  15 C  s                63     -8.638333   5 C  px        
    13     -8.504018   2 C  s                56     -7.150027   5 C  s         
   106      6.997022   7 N  s               181     -5.217365  11 C  px        
    64      3.412219   5 C  py              113     -3.313815   7 N  px        

 Vector   69  Occ=0.000000D+00  E= 1.340779D-01
              MO Center= -4.6D-01, -1.8D+00,  5.0D-01, r^2= 2.7D+01
   Bfn.  Coefficient  Atom+Function         Bfn.  Coefficient  Atom+Function  
  ----- ------------  ---------------      ----- ------------  ---------------
   310     12.588422  19 C  s               353     -7.617804  22 C  s         
   174     -6.007407  11 C  s               361     -5.811748  22 C  py        
   147      5.669723   9 C  px              106      3.802012   7 N  s         
   276     -3.648092  17 N  s               233     -3.454091  15 C  px        
   360      3.309447  22 C  px              140      2.904320   9 C  s         

 Vector   70  Occ=0.000000D+00  E= 1.435033D-01
              MO Center=  8.6D-01,  1.2D+00, -3.8D-02, r^2= 2.6D+01
   Bfn.  Coefficient  Atom+Function         Bfn.  Coefficient  Atom+Function  
  ----- ------------  ---------------      ----- ------------  ---------------
   174    -15.866325  11 C  s               147     15.584762   9 C  px        
    13     13.857614   2 C  s                64    -12.730690   5 C  py        
   310      9.725712  19 C  s                63      7.194800   5 C  px        
   234      6.171944  15 C  py              181      6.002651  11 C  px        
    65     -4.706573   5 C  pz               56     -3.846442   5 C  s         

 Vector   71  Occ=0.000000D+00  E= 1.466928D-01
              MO Center=  3.1D-01,  7.2D-01,  4.6D-01, r^2= 2.6D+01
   Bfn.  Coefficient  Atom+Function         Bfn.  Coefficient  Atom+Function  
  ----- ------------  ---------------      ----- ------------  ---------------
   310     18.803778  19 C  s               233     11.834670  15 C  px        
   226     -9.092510  15 C  s               284      8.746220  17 N  py        
   276      7.388027  17 N  s               174     -6.851260  11 C  s         
   234      6.706742  15 C  py              283      5.632803  17 N  px        
   140     -5.331519   9 C  s               147      5.332080   9 C  px        

 Vector   72  Occ=0.000000D+00  E= 1.471085D-01
              MO Center=  1.4D-01,  7.8D-01, -2.9D-01, r^2= 2.6D+01
   Bfn.  Coefficient  Atom+Function         Bfn.  Coefficient  Atom+Function  
  ----- ------------  ---------------      ----- ------------  ---------------
   310     12.966917  19 C  s               353    -12.282298  22 C  s         
   174    -11.192527  11 C  s               403      6.991040  24 N  s         
   164      5.777277  10 H  s               148      5.266331   9 C  py        
   234      5.228803  15 C  py              181      5.199524  11 C  px        
   436      5.199364  26 H  s               317      5.097738  19 C  px        

 Vector   73  Occ=0.000000D+00  E= 1.528162D-01
              MO Center= -3.9D-01,  1.8D+00, -6.9D-01, r^2= 3.0D+01
   Bfn.  Coefficient  Atom+Function         Bfn.  Coefficient  Atom+Function  
  ----- ------------  ---------------      ----- ------------  ---------------
   147     -9.842458   9 C  px              174      9.836264  11 C  s         
    56      9.020181   5 C  s               403     -8.133253  24 N  s         
   353      6.439923  22 C  s                13     -5.240920   2 C  s         
    46     -5.031870   4 H  s               360      4.850282  22 C  px        
    63     -4.742945   5 C  px               21      4.099551   2 C  py        

 Vector   74  Occ=0.000000D+00  E= 1.569385D-01
              MO Center= -2.0D-01, -1.9D-01, -3.3D-01, r^2= 3.1D+01
   Bfn.  Coefficient  Atom+Function         Bfn.  Coefficient  Atom+Function  
  ----- ------------  ---------------      ----- ------------  ---------------
   403     11.047183  24 N  s               353     -7.415096  22 C  s         
   234      7.276506  15 C  py              360     -6.377111  22 C  px        
   362      4.482901  22 C  pz               56      4.460326   5 C  s         
   226     -4.214586  15 C  s               318      4.169877  19 C  py        
     3     -3.762349   1 H  s               233      3.580365  15 C  px        

 Vector   75  Occ=0.000000D+00  E= 1.602065D-01
              MO Center= -1.6D-01,  1.3D+00,  3.9D-01, r^2= 2.3D+01
   Bfn.  Coefficient  Atom+Function         Bfn.  Coefficient  Atom+Function  
  ----- ------------  ---------------      ----- ------------  ---------------
   310     10.220574  19 C  s               353     -8.477480  22 C  s         
   234      7.317555  15 C  py              233      5.312090  15 C  px        
    64      4.902168   5 C  py              343      4.273347  21 H  s         
   164      4.222831  10 H  s               317      4.067517  19 C  px        
   174     -3.739722  11 C  s               226     -3.709284  15 C  s         

 Vector   76  Occ=0.000000D+00  E= 1.622041D-01
              MO Center=  3.2D-01,  4.0D-01,  3.2D-01, r^2= 2.5D+01
   Bfn.  Coefficient  Atom+Function         Bfn.  Coefficient  Atom+Function  
  ----- ------------  ---------------      ----- ------------  ---------------
   106      5.383004   7 N  s               353      4.628396  22 C  s         
   207     -3.514531  13 H  s                63     -3.469745   5 C  px        
    65     -3.235736   5 C  pz               13     -3.063029   2 C  s         
   234     -3.071282  15 C  py              226      3.001129  15 C  s         
   140      2.942553   9 C  s               251     -2.932008  16 O  s         

 Vector   77  Occ=0.000000D+00  E= 1.657952D-01
              MO Center=  6.1D-01,  1.4D+00,  6.0D-01, r^2= 2.7D+01
   Bfn.  Coefficient  Atom+Function         Bfn.  Coefficient  Atom+Function  
  ----- ------------  ---------------      ----- ------------  ---------------
   174     10.210804  11 C  s               310     -8.948184  19 C  s         
   130     -6.221408   8 H  s               181     -5.951380  11 C  px        
   233     -5.394753  15 C  px              353      5.130359  22 C  s         
   234     -4.887277  15 C  py              403     -4.470612  24 N  s         
   216      4.418846  14 H  s               149      3.969760   9 C  pz        

 Vector   78  Occ=0.000000D+00  E= 1.672858D-01
              MO Center= -5.1D-02,  1.2D+00,  1.5D-01, r^2= 3.0D+01
   Bfn.  Coefficient  Atom+Function         Bfn.  Coefficient  Atom+Function  
  ----- ------------  ---------------      ----- ------------  ---------------
   310     14.159622  19 C  s                56     11.976724   5 C  s         
    13     -7.951108   2 C  s               174     -6.850800  11 C  s         
   130      6.082152   8 H  s               226     -5.891204  15 C  s         
   207     -5.101044  13 H  s                20     -4.769028   2 C  px        
   284      4.502337  17 N  py              173     -3.852419  11 C  s         

 Vector   79  Occ=0.000000D+00  E= 1.713662D-01
              MO Center=  4.6D-02,  8.8D-01, -6.3D-01, r^2= 2.7D+01
   Bfn.  Coefficient  Atom+Function         Bfn.  Coefficient  Atom+Function  
  ----- ------------  ---------------      ----- ------------  ---------------
    56     11.876499   5 C  s               148    -10.202392   9 C  py        
   226    -10.136535  15 C  s               113      7.182814   7 N  px        
    63      7.096036   5 C  px              149     -6.362430   9 C  pz        
    13      5.202266   2 C  s               234     -5.043108  15 C  py        
     3      4.829726   1 H  s               164     -4.534917  10 H  s         

 Vector   80  Occ=0.000000D+00  E= 1.759847D-01
              MO Center= -3.6D-01,  2.5D-01,  2.5D-01, r^2= 2.8D+01
   Bfn.  Coefficient  Atom+Function         Bfn.  Coefficient  Atom+Function  
  ----- ------------  ---------------      ----- ------------  ---------------
   310     15.699415  19 C  s               174    -12.393260  11 C  s         
   147      8.541351   9 C  px               13     -7.038141   2 C  s         
    56      6.642818   5 C  s               148      6.192569   9 C  py        
   276     -5.104695  17 N  s               353     -4.803030  22 C  s         
   436      4.717345  26 H  s               361     -3.569128  22 C  py        

 Vector   81  Occ=0.000000D+00  E= 1.786524D-01
              MO Center= -6.7D-01, -2.3D-01,  2.2D-01, r^2= 2.8D+01
   Bfn.  Coefficient  Atom+Function         Bfn.  Coefficient  Atom+Function  
  ----- ------------  ---------------      ----- ------------  ---------------
    56      8.730050   5 C  s               310     -8.407439  19 C  s         
   234     -7.152066  15 C  py              106     -5.693907   7 N  s         
    63      5.418663   5 C  px              174     -5.397483  11 C  s         
   343     -5.235503  21 H  s               226      4.881657  15 C  s         
   147      4.497201   9 C  px              362      4.517386  22 C  pz        

 Vector   82  Occ=0.000000D+00  E= 1.823880D-01
              MO Center=  9.9D-02,  3.7D-01,  5.1D-03, r^2= 2.6D+01
   Bfn.  Coefficient  Atom+Function         Bfn.  Coefficient  Atom+Function  
  ----- ------------  ---------------      ----- ------------  ---------------
   226     13.584276  15 C  s               106    -11.493066   7 N  s         
   174     -9.622756  11 C  s               234      7.439405  15 C  py        
   148      7.198307   9 C  py              235     -5.823328  15 C  pz        
   149      5.760918   9 C  pz              140      5.433196   9 C  s         
   276     -4.475310  17 N  s               284     -4.056700  17 N  py        

 Vector   83  Occ=0.000000D+00  E= 1.840889D-01
              MO Center=  3.0D-01, -5.9D-01,  5.6D-01, r^2= 2.4D+01
   Bfn.  Coefficient  Atom+Function         Bfn.  Coefficient  Atom+Function  
  ----- ------------  ---------------      ----- ------------  ---------------
   276     -8.934782  17 N  s               147      8.655523   9 C  px        
   174     -7.541233  11 C  s               226      6.783466  15 C  s         
   233     -6.610745  15 C  px              106      5.114253   7 N  s         
   353      4.878278  22 C  s               140      4.609989   9 C  s         
   198     -4.099887  12 H  s               300     -3.433041  18 H  s         

 Vector   84  Occ=0.000000D+00  E= 1.868475D-01
              MO Center=  1.1D+00, -6.9D-01, -3.2D-01, r^2= 2.4D+01
   Bfn.  Coefficient  Atom+Function         Bfn.  Coefficient  Atom+Function  
  ----- ------------  ---------------      ----- ------------  ---------------
   174     10.204562  11 C  s               147     -9.179845   9 C  px        
   148     -5.961277   9 C  py              318     -5.307237  19 C  py        
   235      4.651469  15 C  pz              182      3.763437  11 C  py        
   353     -3.522288  22 C  s               216      3.462207  14 H  s         
   360      3.399543  22 C  px              198     -3.374907  12 H  s         

 Vector   85  Occ=0.000000D+00  E= 1.893013D-01
              MO Center= -8.9D-01, -9.6D-01, -2.2D-01, r^2= 2.2D+01
   Bfn.  Coefficient  Atom+Function         Bfn.  Coefficient  Atom+Function  
  ----- ------------  ---------------      ----- ------------  ---------------
   310     16.504997  19 C  s               300    -11.077125  18 H  s         
   276    -10.223998  17 N  s               174     -7.544595  11 C  s         
    64     -6.991266   5 C  py              319     -6.857577  19 C  pz        
   334      5.722039  20 H  s               284      5.079414  17 N  py        
   234      4.947570  15 C  py              318      4.668410  19 C  py        

 Vector   86  Occ=0.000000D+00  E= 1.953024D-01
              MO Center=  6.5D-01,  4.6D-01, -1.4D-01, r^2= 2.6D+01
   Bfn.  Coefficient  Atom+Function         Bfn.  Coefficient  Atom+Function  
  ----- ------------  ---------------      ----- ------------  ---------------
   174     20.388512  11 C  s               226    -13.615341  15 C  s         
    13     12.245171   2 C  s               140    -10.318260   9 C  s         
   147     -9.488422   9 C  px              148     -8.983737   9 C  py        
   234     -7.769240  15 C  py               63      6.579861   5 C  px        
   149      6.335964   9 C  pz              183     -5.989619  11 C  pz        

 Vector   87  Occ=0.000000D+00  E= 1.988211D-01
              MO Center=  4.7D-01, -2.0D-01, -4.3D-01, r^2= 2.5D+01
   Bfn.  Coefficient  Atom+Function         Bfn.  Coefficient  Atom+Function  
  ----- ------------  ---------------      ----- ------------  ---------------
   226     26.775247  15 C  s               140     15.042637   9 C  s         
   233    -12.379152  15 C  px              276    -10.581031  17 N  s         
   148     10.251470   9 C  py               63     -8.093455   5 C  px        
   300     -6.785009  18 H  s               310     -6.326856  19 C  s         
   353     -6.333095  22 C  s                13     -6.108191   2 C  s         

 Vector   88  Occ=0.000000D+00  E= 2.059505D-01
              MO Center=  5.5D-01, -4.0D-01, -6.1D-01, r^2= 2.7D+01
   Bfn.  Coefficient  Atom+Function         Bfn.  Coefficient  Atom+Function  
  ----- ------------  ---------------      ----- ------------  ---------------
    56     15.953302   5 C  s               226    -11.464310  15 C  s         
   310      9.706836  19 C  s               147      9.226030   9 C  px        
   276     -5.122252  17 N  s               148     -4.928518   9 C  py        
   113      4.820495   7 N  px              233     -4.584201  15 C  px        
   174     -4.380843  11 C  s               216     -4.369689  14 H  s         

 Vector   89  Occ=0.000000D+00  E= 2.130833D-01
              MO Center=  5.0D-01,  1.8D+00,  9.9D-01, r^2= 2.3D+01
   Bfn.  Coefficient  Atom+Function         Bfn.  Coefficient  Atom+Function  
  ----- ------------  ---------------      ----- ------------  ---------------
   174    -14.318098  11 C  s                56     13.173423   5 C  s         
    13     -8.555400   2 C  s               310      7.348001  19 C  s         
   113      5.207584   7 N  px              317      4.622936  19 C  px        
   181      4.501993  11 C  px              233      4.450516  15 C  px        
   115      4.426423   7 N  pz              216     -3.939422  14 H  s         

 Vector   90  Occ=0.000000D+00  E= 2.148330D-01
              MO Center=  4.8D-01,  9.0D-02, -7.3D-01, r^2= 2.4D+01
   Bfn.  Coefficient  Atom+Function         Bfn.  Coefficient  Atom+Function  
  ----- ------------  ---------------      ----- ------------  ---------------
    13     27.776563   2 C  s               147     19.919630   9 C  px        
    63     13.914344   5 C  px              174    -13.181359  11 C  s         
    64    -12.258377   5 C  py              149    -11.043718   9 C  pz        
   226    -10.394088  15 C  s               148     -9.686227   9 C  py        
   276      7.936630  17 N  s               235      7.767179  15 C  pz        

 Vector   91  Occ=0.000000D+00  E= 2.213914D-01
              MO Center= -9.9D-01,  1.1D+00,  4.9D-01, r^2= 2.3D+01
   Bfn.  Coefficient  Atom+Function         Bfn.  Coefficient  Atom+Function  
  ----- ------------  ---------------      ----- ------------  ---------------
    56     53.612638   5 C  s                13    -32.263322   2 C  s         
   353    -14.967666  22 C  s               276     10.329600  17 N  s         
   113      8.917218   7 N  px              318     -8.203356  19 C  py        
    65      7.962324   5 C  pz              106     -7.762176   7 N  s         
   174     -7.696173  11 C  s                21      6.826416   2 C  py        

[...]
   140     13.149009   9 C  s                56    -12.819305   5 C  s         
   113    -12.046529   7 N  px              310    -11.733564  19 C  s         
    13    -10.842228   2 C  s               147     -8.949251   9 C  px        
   148      8.778076   9 C  py               64      8.458334   5 C  py        

 Vector  125  Occ=0.000000D+00  E= 4.136580D-01
              MO Center= -1.8D-01,  9.0D-01, -1.6D-01, r^2= 2.0D+01
   Bfn.  Coefficient  Atom+Function         Bfn.  Coefficient  Atom+Function  
  ----- ------------  ---------------      ----- ------------  ---------------
   353     12.266346  22 C  s               403    -10.414511  24 N  s         
    56      9.625327   5 C  s               276     -5.801819  17 N  s         
   139     -4.099321   9 C  s               163      4.063965  10 H  s         
    45     -3.701677   4 H  s               378     -3.562531  23 O  s         
   106     -3.424741   7 N  s               233     -3.318612  15 C  px        

 Vector  126  Occ=0.000000D+00  E= 4.154825D-01
              MO Center= -2.8D-01,  1.5D+00,  2.1D-01, r^2= 2.0D+01
   Bfn.  Coefficient  Atom+Function         Bfn.  Coefficient  Atom+Function  
  ----- ------------  ---------------      ----- ------------  ---------------
    56     30.892996   5 C  s               113     16.058201   7 N  px        
   310    -11.949470  19 C  s               226    -11.319434  15 C  s         
   353     10.766631  22 C  s               276     10.403152  17 N  s         
   140     -7.951292   9 C  s               148     -7.750651   9 C  py        
    12     -7.548403   2 C  s               403     -7.201350  24 N  s         

 Vector  127  Occ=0.000000D+00  E= 4.260492D-01
              MO Center=  2.7D-01, -7.0D-01, -4.2D-01, r^2= 2.0D+01
   Bfn.  Coefficient  Atom+Function         Bfn.  Coefficient  Atom+Function  
  ----- ------------  ---------------      ----- ------------  ---------------
    56     10.307296   5 C  s               226     -9.724964  15 C  s         
   163      6.672118  10 H  s               234     -6.540326  15 C  py        
   403      6.424318  24 N  s               139     -5.631968   9 C  s         
   113      4.892230   7 N  px              140     -4.846291   9 C  s         
   310     -4.031072  19 C  s                63      3.830122   5 C  px        

 Vector  128  Occ=0.000000D+00  E= 4.296169D-01
              MO Center= -1.4D-01,  7.2D-01, -2.3D-01, r^2= 1.9D+01
   Bfn.  Coefficient  Atom+Function         Bfn.  Coefficient  Atom+Function  
  ----- ------------  ---------------      ----- ------------  ---------------
    56     17.029690   5 C  s               276     11.764051  17 N  s         
   226    -11.431367  15 C  s               310    -10.830285  19 C  s         
   403     -9.318101  24 N  s               140     -8.864547   9 C  s         
   163      8.337540  10 H  s               148     -7.265269   9 C  py        
   353      6.922175  22 C  s               147      6.053233   9 C  px        

 Vector  129  Occ=0.000000D+00  E= 4.312217D-01
              MO Center= -1.1D-01,  5.6D-01,  1.3D-01, r^2= 1.9D+01
   Bfn.  Coefficient  Atom+Function         Bfn.  Coefficient  Atom+Function  
  ----- ------------  ---------------      ----- ------------  ---------------
    13     17.017402   2 C  s               276     16.964898  17 N  s         
   226    -13.709661  15 C  s               310    -12.781834  19 C  s         
   140    -11.728596   9 C  s                63     10.039642   5 C  px        
   114     -8.199310   7 N  py              148     -8.173015   9 C  py        
   113      7.447441   7 N  px              173      7.108433  11 C  s         

 Vector  130  Occ=0.000000D+00  E= 4.380512D-01
              MO Center= -2.9D-01,  2.3D+00,  1.8D-01, r^2= 1.7D+01
   Bfn.  Coefficient  Atom+Function         Bfn.  Coefficient  Atom+Function  
  ----- ------------  ---------------      ----- ------------  ---------------
    13     19.766335   2 C  s                56    -13.806407   5 C  s         
    36     -8.407375   3 H  s               149      8.110064   9 C  pz        
   174      6.994770  11 C  s                12      6.488835   2 C  s         
    65     -6.453160   5 C  pz               64     -5.840370   5 C  py        
   310      5.854164  19 C  s               106     -5.598269   7 N  s         

 Vector  131  Occ=0.000000D+00  E= 4.487475D-01
              MO Center=  5.0D-01,  3.2D-01,  2.1D-01, r^2= 1.7D+01
   Bfn.  Coefficient  Atom+Function         Bfn.  Coefficient  Atom+Function  
  ----- ------------  ---------------      ----- ------------  ---------------
   174     12.418307  11 C  s               310    -11.870681  19 C  s         
   284     -9.724748  17 N  py               13     -9.288143   2 C  s         
    12      7.456804   2 C  s               147     -7.397721   9 C  px        
   113     -5.480678   7 N  px               64      4.852836   5 C  py        
   163      4.646065  10 H  s                63     -4.452901   5 C  px        

 Vector  132  Occ=0.000000D+00  E= 4.559135D-01
              MO Center=  6.8D-01,  5.6D-01,  1.6D-01, r^2= 1.8D+01
   Bfn.  Coefficient  Atom+Function         Bfn.  Coefficient  Atom+Function  
  ----- ------------  ---------------      ----- ------------  ---------------
    13     18.467813   2 C  s               174     15.720393  11 C  s         
    56    -12.492050   5 C  s               106     12.300449   7 N  s         
   310    -12.343239  19 C  s               233    -12.266884  15 C  px        
   234    -10.449062  15 C  py              173      9.673343  11 C  s         
   206     -9.229881  13 H  s               353      8.560135  22 C  s         

 Vector  133  Occ=0.000000D+00  E= 4.594230D-01
              MO Center=  5.3D-01,  2.0D+00,  3.0D-01, r^2= 1.6D+01
   Bfn.  Coefficient  Atom+Function         Bfn.  Coefficient  Atom+Function  
  ----- ------------  ---------------      ----- ------------  ---------------
    56     35.307550   5 C  s                13    -23.273836   2 C  s         
   113      8.500670   7 N  px               64      7.814759   5 C  py        
   310     -7.177277  19 C  s               234     -6.691236  15 C  py        
   206      6.123930  13 H  s                45      5.642767   4 H  s         
   114     -5.623072   7 N  py               81     -5.098069   6 O  s         

 Vector  134  Occ=0.000000D+00  E= 4.636652D-01
              MO Center=  2.8D-01,  1.4D-01,  5.6D-02, r^2= 1.8D+01
   Bfn.  Coefficient  Atom+Function         Bfn.  Coefficient  Atom+Function  
  ----- ------------  ---------------      ----- ------------  ---------------
   310     28.905593  19 C  s               174    -22.404799  11 C  s         
    56     13.724777   5 C  s               226    -10.747403  15 C  s         
   234     10.769158  15 C  py              197      8.864973  12 H  s         
   147      8.653276   9 C  px               64     -7.098535   5 C  py        
   333     -6.647514  20 H  s                13      6.392648   2 C  s         

 Vector  135  Occ=0.000000D+00  E= 4.644661D-01
              MO Center= -9.9D-02, -8.6D-01, -1.3D-01, r^2= 1.6D+01
   Bfn.  Coefficient  Atom+Function         Bfn.  Coefficient  Atom+Function  
  ----- ------------  ---------------      ----- ------------  ---------------
   353      7.715522  22 C  s                56     -6.284770   5 C  s         
   174      5.814905  11 C  s               147     -5.513527   9 C  px        
   317     -4.509753  19 C  px              310     -4.392085  19 C  s         
   411      4.187533  24 N  py               13      3.348349   2 C  s         
   163      2.762892  10 H  s               173      2.767304  11 C  s         

 Vector  136  Occ=0.000000D+00  E= 4.728374D-01
              MO Center=  8.3D-02,  3.5D-01, -1.0D-01, r^2= 1.8D+01
   Bfn.  Coefficient  Atom+Function         Bfn.  Coefficient  Atom+Function  
  ----- ------------  ---------------      ----- ------------  ---------------
   174     23.952321  11 C  s               226    -21.050885  15 C  s         
   147    -16.474174   9 C  px               56     14.673818   5 C  s         
    13    -14.338965   2 C  s               276      9.781085  17 N  s         
   140     -9.114086   9 C  s               353      9.087855  22 C  s         
   233      7.035194  15 C  px              215     -6.646489  14 H  s         

 Vector  137  Occ=0.000000D+00  E= 4.763572D-01
              MO Center=  3.2D-01,  5.1D-01, -6.6D-02, r^2= 1.7D+01
   Bfn.  Coefficient  Atom+Function         Bfn.  Coefficient  Atom+Function  
  ----- ------------  ---------------      ----- ------------  ---------------
    56     18.978213   5 C  s                13    -14.396795   2 C  s         
   353     12.202318  22 C  s               174    -11.044053  11 C  s         
   226     10.191659  15 C  s               106     -8.416050   7 N  s         
    63     -6.705064   5 C  px              310     -6.630887  19 C  s         
    12     -6.365559   2 C  s               197      5.925492  12 H  s         

 Vector  138  Occ=0.000000D+00  E= 4.799494D-01
              MO Center= -1.0D-01,  2.0D+00,  3.4D-01, r^2= 1.8D+01
   Bfn.  Coefficient  Atom+Function         Bfn.  Coefficient  Atom+Function  
  ----- ------------  ---------------      ----- ------------  ---------------
    13     53.642775   2 C  s                56    -42.976598   5 C  s         
    64    -19.309512   5 C  py              174    -18.855668  11 C  s         
   147     15.477885   9 C  px               12     14.500913   2 C  s         
    63     13.766760   5 C  px               36    -12.835084   3 H  s         
   106     12.052985   7 N  s                45    -11.421799   4 H  s         

 Vector  139  Occ=0.000000D+00  E= 4.873564D-01
              MO Center= -4.4D-01, -5.8D-02,  3.9D-02, r^2= 1.9D+01
   Bfn.  Coefficient  Atom+Function         Bfn.  Coefficient  Atom+Function  
  ----- ------------  ---------------      ----- ------------  ---------------
   353     26.668978  22 C  s               226    -16.944336  15 C  s         
   276     14.529740  17 N  s               140    -13.231373   9 C  s         
   310    -12.078009  19 C  s               378     -7.772414  23 O  s         
   284      7.115202  17 N  py              233      7.065519  15 C  px        
   148     -6.648624   9 C  py               12      6.238027   2 C  s         

 Vector  140  Occ=0.000000D+00  E= 4.931262D-01
              MO Center=  4.2D-02,  2.3D-01,  2.1D-01, r^2= 1.6D+01
   Bfn.  Coefficient  Atom+Function         Bfn.  Coefficient  Atom+Function  
  ----- ------------  ---------------      ----- ------------  ---------------
   226     17.749905  15 C  s               174    -15.258451  11 C  s         
    56    -12.476195   5 C  s               114      8.990486   7 N  py        
   353      7.769317  22 C  s               113     -7.576821   7 N  px        
   147      7.338505   9 C  px              140      7.204440   9 C  s         
   234      7.012507  15 C  py              197      4.966097  12 H  s         

 Vector  141  Occ=0.000000D+00  E= 4.986829D-01
              MO Center=  3.8D-02,  1.4D-02,  4.3D-01, r^2= 1.5D+01
   Bfn.  Coefficient  Atom+Function         Bfn.  Coefficient  Atom+Function  
  ----- ------------  ---------------      ----- ------------  ---------------
   310     35.566372  19 C  s               353    -25.878709  22 C  s         
   226    -14.611285  15 C  s               276     -9.425733  17 N  s         
   333     -9.040061  20 H  s               403      6.426617  24 N  s         
   283      5.932676  17 N  px              309      5.858575  19 C  s         
   317      5.161285  19 C  px               13      4.764065   2 C  s         

 Vector  142  Occ=0.000000D+00  E= 5.056042D-01
              MO Center=  2.2D-01,  1.3D+00,  1.2D-02, r^2= 1.7D+01
   Bfn.  Coefficient  Atom+Function         Bfn.  Coefficient  Atom+Function  
  ----- ------------  ---------------      ----- ------------  ---------------
   174     18.743285  11 C  s               226    -13.730607  15 C  s         
    12     12.316956   2 C  s               310      7.098949  19 C  s         
   147     -6.537330   9 C  px              148     -6.263887   9 C  py        
   197     -6.287515  12 H  s               181     -5.730894  11 C  px        
     2     -5.635073   1 H  s                36     -5.648698   3 H  s         


 center of mass
 --------------
 x =  -0.03532859 y =  -0.11158960 z =  -0.01390234

 moments of inertia (a.u.)
 ------------------
        4080.709370111808          -0.000000000002          -0.000000000001
          -0.000000000002        1406.063675408468           0.000000000001
          -0.000000000001           0.000000000001        5120.187704234923

  Mulliken analysis of the total density
  --------------------------------------

    Atom       Charge   Shell Charges
 -----------   ------   -------------------------------------------------------
    1 H    1     0.96   0.76  0.21  0.01  0.03 -0.06
    2 C    6     6.55   2.01  0.66  0.28  0.32  2.07  1.06 -0.03  0.06  0.12
    3 H    1     0.81   0.76  0.08  0.01  0.03 -0.06
    4 H    1     0.78   0.76  0.04  0.01  0.03 -0.06
    5 C    6     4.94   2.01  0.68  0.07 -0.17  1.89  0.36 -0.15  0.24  0.02
    6 O    8     8.78   2.01  0.82  1.00  0.16  2.80  1.86  0.14  0.02 -0.01
    7 N    7     7.60   2.01  0.72  0.80 -0.07  2.45  1.44  0.16  0.05  0.04
    8 H    1     0.98   0.77  0.21 -0.02  0.05 -0.04
    9 C    6     6.64   2.01  0.66  0.08 -0.02  1.99  1.68 -0.12  0.14  0.22
   10 H    1     0.98   0.78  0.15  0.00  0.03  0.02
   11 C    6     5.83   2.01  0.66  0.25  0.33  2.04  0.49 -0.04  0.07  0.01
   12 H    1     0.93   0.77  0.20  0.01  0.03 -0.09
   13 H    1     0.89   0.77  0.14  0.02  0.03 -0.08
   14 H    1     0.96   0.77  0.23  0.01  0.03 -0.08
   15 C    6     4.39   2.01  0.68 -0.09 -0.03  1.88  0.10 -0.01  0.23 -0.39
   16 O    8     8.82   2.01  0.82  1.03  0.16  2.79  1.86  0.14  0.01 -0.01
   17 N    7     7.31   2.01  0.72  0.78 -0.19  2.45  1.44  0.01  0.05  0.05
   18 H    1     0.98   0.73  0.30 -0.03  0.06 -0.08
   19 C    6     6.42   2.01  0.66  0.29  0.31  2.01  1.02 -0.01  0.11  0.03
   20 H    1     0.83   0.77  0.04 -0.00  0.03 -0.01
   21 H    1     1.07   0.77  0.30  0.01  0.03 -0.04
   22 C    6     4.71   2.01  0.68  0.08 -0.01  1.89 -0.08 -0.01  0.24 -0.07
   23 O    8     8.72   2.01  0.82  1.01  0.15  2.79  1.81  0.13  0.01 -0.01
   24 N    7     7.19   2.01  0.72  0.77 -0.14  2.47  1.25  0.10  0.04 -0.03
   25 H    1     1.02   0.76  0.24 -0.00  0.05 -0.03
   26 H    1     0.92   0.73  0.19 -0.01  0.06 -0.05

       Multipole analysis of the density wrt the origin
       ------------------------------------------------

     L   x y z        total         open         nuclear
     -   - - -        -----         ----         -------
     0   0 0 0     -0.000000      0.000000    100.000000

     1   1 0 0      1.031079      0.000000      0.000000
     1   0 1 0      2.956718      0.000000     -0.000000
     1   0 0 1      0.414750      0.000000      0.000000

     2   2 0 0    -62.239752      0.000000    695.326817
     2   1 1 0     -5.879313      0.000000     -8.647043
     2   1 0 1     -6.893607      0.000000    -17.821227
     2   0 2 0    -60.704535      0.000000   2124.207271
     2   0 1 1      4.957013      0.000000     12.744552
     2   0 0 2    -57.631466      0.000000    113.540191


 Task  times  cpu:     1994.9s     wall:     2210.3s


                                NWChem Input Module
                                -------------------


 Summary of allocated global arrays
-----------------------------------
  No active global arrays


MA_summarize_allocated_blocks: starting scan ...
MA_summarize_allocated_blocks: scan completed: 0 heap blocks, 0 stack blocks
MA usage statistics:

	allocation statistics:
					      heap	     stack
					      ----	     -----
	current number of blocks	         0	         0
	maximum number of blocks	        16	        14
	current total bytes		         0	         0
	maximum total bytes		     92816	  22971464
	maximum total K-bytes		        93	     22972
	maximum total M-bytes		         1	        23


                                     CITATION
                                     --------
                Please cite the following reference when publishing
                           results obtained with NWChem:

          E. Apra, E. J. Bylaska, W. A. de Jong, N. Govind, K. Kowalski,
       T. P. Straatsma, M. Valiev, H. J. J. van Dam, Y. Alexeev, J. Anchell,
       V. Anisimov, F. W. Aquino, R. Atta-Fynn, J. Autschbach, N. P. Bauman,
     J. C. Becca, D. E. Bernholdt, K. Bhaskaran-Nair, S. Bogatko, P. Borowski,
         J. Boschen, J. Brabec, A. Bruner, E. Cauet, Y. Chen, G. N. Chuev,
      C. J. Cramer, J. Daily, M. J. O. Deegan, T. H. Dunning Jr., M. Dupuis,
   K. G. Dyall, G. I. Fann, S. A. Fischer, A. Fonari, H. Fruchtl, L. Gagliardi,
      J. Garza, N. Gawande, S. Ghosh, K. Glaesemann, A. W. Gotz, J. Hammond,
       V. Helms, E. D. Hermes, K. Hirao, S. Hirata, M. Jacquelin, L. Jensen,
   B. G. Johnson, H. Jonsson, R. A. Kendall, M. Klemm, R. Kobayashi, V. Konkov,
      S. Krishnamoorthy, M. Krishnan, Z. Lin, R. D. Lins, R. J. Littlefield,
      A. J. Logsdail, K. Lopata, W. Ma, A. V. Marenich, J. Martin del Campo,
   D. Mejia-Rodriguez, J. E. Moore, J. M. Mullin, T. Nakajima, D. R. Nascimento,
    J. A. Nichols, P. J. Nichols, J. Nieplocha, A. Otero-de-la-Roza, B. Palmer,
    A. Panyala, T. Pirojsirikul, B. Peng, R. Peverati, J. Pittner, L. Pollack,
   R. M. Richard, P. Sadayappan, G. C. Schatz, W. A. Shelton, D. W. Silverstein,
   D. M. A. Smith, T. A. Soares, D. Song, M. Swart, H. L. Taylor, G. S. Thomas,
            V. Tipparaju, D. G. Truhlar, K. Tsemekhman, T. Van Voorhis,
      A. Vazquez-Mayagoitia, P. Verma, O. Villa, A. Vishnu, K. D. Vogiatzis,
        D. Wang, J. H. Weare, M. J. Williamson, T. L. Windus, K. Wolinski,
        A. T. Wong, Q. Wu, C. Yang, Q. Yu, M. Zacharias, Z. Zhang, Y. Zhao,
                                and R. J. Harrison
                        "NWChem: Past, present, and future
                         J. Chem. Phys. 152, 184102 (2020)
                               doi:10.1063/5.0004997

                                      AUTHORS
                                      -------
  E. Apra, E. J. Bylaska, N. Govind, K. Kowalski, M. Valiev, D. Mejia-Rodriguez,
       A. Kunitsa, N. P. Bauman, A. Panyala, W. A. de Jong, T. P. Straatsma,
   H. J. J. van Dam, D. Wang, T. L. Windus, J. Hammond, J. Autschbach, A. Woods,
    K. Bhaskaran-Nair, J. Brabec, K. Lopata, S. A. Fischer, S. Krishnamoorthy,
     M. Jacquelin, W. Ma, M. Klemm, O. Villa, Y. Chen, V. Anisimov, F. Aquino,
     S. Hirata, M. T. Hackler, E. Hermes, L. Jensen, J. E. Moore, J. C. Becca,
      V. Konjkov, T. Risthaus, M. Malagoli, A. Marenich, A. Otero-de-la-Roza,
        J. Mullin, P. Nichols, R. Peverati, J. Pittner, Y. Zhao, P.-D. Fan,
        A. Fonari, M. J. Williamson, R. J. Harrison, J. R. Rehr, M. Dupuis,
     D. Silverstein, D. M. A. Smith, J. Nieplocha, V. Tipparaju, M. Krishnan,
     B. E. Van Kuiken, A. Vazquez-Mayagoitia, M. Swart, Q. Wu, T. Van Voorhis,
     A. A. Auer, M. Nooijen, L. D. Crosby, E. Brown, G. Cisneros, G. I. Fann,
   H. Fruchtl, J. Garza, K. Hirao, R. A. Kendall, J. A. Nichols, K. Tsemekhman,
    K. Wolinski, J. Anchell, D. E. Bernholdt, P. Borowski, T. Clark, D. Clerc,
   H. Dachsel, M. J. O. Deegan, K. Dyall, D. Elwood, E. Glendening, M. Gutowski,
   A. C. Hess, J. Jaffe, B. G. Johnson, J. Ju, R. Kobayashi, R. Kutteh, Z. Lin,
   R. Littlefield, X. Long, B. Meng, T. Nakajima, S. Niu, L. Pollack, M. Rosing,
   K. Glaesemann, G. Sandrone, M. Stave, H. Taylor, G. Thomas, J. H. van Lenthe,
                               A. T. Wong, Z. Zhang.

 Total times  cpu:     1994.9s     wall:     2210.8s
