export TMOUT=5400
export TMPDIR=/tmp
export PTMPDIR=/tmp/ptmp
 argument  1 = ALA_GLN_2.nw
                                         
                                         


             Northwest Computational Chemistry Package (NWChem) 7.2.0
             --------------------------------------------------------


                    Environmental Molecular Sciences Laboratory
                       Pacific Northwest National Laboratory
                                Richland, WA 99352

                              Copyright (c) 1994-2022
                       Pacific Northwest National Laboratory
                            Battelle Memorial Institute

             NWChem is an open-source computational chemistry package
                        distributed under the terms of the
                      Educational Community License (ECL) 2.0
             A copy of the license is included with this distribution
                              in the LICENSE.TXT file

                                  ACKNOWLEDGMENT
                                  --------------

            This software and its documentation were developed at the
            EMSL at Pacific Northwest National Laboratory, a multiprogram
            national laboratory, operated for the U.S. Department of Energy
            by Battelle under Contract Number DE-AC05-76RL01830. Support
            for this work was provided by the Department of Energy Office
            of Biological and Environmental Research, Office of Basic
            Energy Sciences, and the Office of Advanced Scientific Computing.


           Job information
           ---------------

    hostname        = nova18-18
    program         = /opt/rit/el9/20230413/app/linux-rhel9-x86_64_v3/gcc-11.2.1/nwchem-7.2.0-oxtctbuhfuzyfaoziquq6bki22grib3g/bin/nwchem
    date            = Thu Jun 26 11:38:28 2025

    compiled        = Wed_May_17_23:46:39_2023
    source          = /tmp/root/spack-stage/spack-stage-nwchem-7.2.0-oxtctbuhfuzyfaoziquq6bki22grib3g/spack-src
    nwchem branch   = 7.2.0
    nwchem revision = d0d141fd
    ga revision     = 5.8.0
    use scalapack   = T
    input           = ALA_GLN_2.nw
    prefix          = ALA_GLN_2.
    data base       = ./ALA_GLN_2.db
    status          = startup
    nproc           =        8
    time left       =     -1s



           Memory information
           ------------------

    heap     =   26214394 doubles =    200.0 Mbytes
    stack    =   26214399 doubles =    200.0 Mbytes
    global   =   52428800 doubles =    400.0 Mbytes (distinct from heap & stack)
    total    =  104857593 doubles =    800.0 Mbytes
    verify   = yes
    hardfail = no 


           Directory information
           ---------------------

  0 permanent = .
  0 scratch   = .




                                NWChem Input Module
                                -------------------



 Scaling coordinates for geometry "geometry" by  1.889725989
 (inverse scale =  0.529177249)

 C1  symmetry detected

          ------
          auto-z
          ------
  no constraints, skipping    0.0000000000000000     
  no constraints, skipping    0.0000000000000000     


                             Geometry "geometry" -> ""
                             -------------------------

 Output coordinates in angstroms (scale by  1.889725989 to convert to a.u.)

  No.       Tag          Charge          X              Y              Z
 ---- ---------------- ---------- -------------- -------------- --------------
    1 H                    1.0000    -1.54944678    -6.38260443     0.58067652
    2 C                    6.0000    -1.69343247    -5.43145616     0.06893530
    3 H                    1.0000    -2.56071516    -4.92057292     0.48174162
    4 H                    1.0000    -1.83573641    -5.60773690    -0.99540614
    5 C                    6.0000    -0.46475694    -4.57667420     0.27304371
    6 O                    8.0000     0.47676315    -5.00066470     0.93003151
    7 N                    7.0000    -0.48011105    -3.36978215    -0.28749340
    8 H                    1.0000    -1.30807023    -3.07697389    -0.78372007
    9 C                    6.0000     0.60257108    -2.39076220    -0.18991596
   10 H                    1.0000     1.09508053    -2.50226709     0.77790328
   11 C                    6.0000     1.63160800    -2.67663532    -1.29389448
   12 H                    1.0000     2.46547454    -1.97746169    -1.21702567
   13 H                    1.0000     2.01697588    -3.69153888    -1.18652426
   14 H                    1.0000     1.16583665    -2.57128793    -2.27444789
   15 C                    6.0000     0.06017608    -0.95222846    -0.28166739
   16 O                    8.0000    -1.06178278    -0.73215582    -0.74107392
   17 N                    7.0000     0.85882989     0.02880567     0.14606283
   18 H                    1.0000     1.78028733    -0.20655621     0.49027638
   19 C                    6.0000     0.53485173     1.45660942     0.08855973
   20 H                    1.0000    -0.01777851     1.64428985    -0.83360017
   21 C                    6.0000    -0.36259314     1.81389801     1.29445174
   22 H                    1.0000    -1.22407875     1.14465257     1.29777951
   23 H                    1.0000     0.19560435     1.64032365     2.21676867
   24 C                    6.0000    -0.88951197     3.25707331     1.30692576
   25 H                    1.0000    -1.60804390     3.36358547     2.12064010
   26 H                    1.0000    -0.06664787     3.94608215     1.49612277
   27 C                    6.0000    -1.56654873     3.63954669    -0.00472447
   28 O                    8.0000    -0.99729092     4.32171014    -0.83795888
   29 N                    7.0000    -2.76004721     3.16521752    -0.27590189
   30 H                    1.0000    -3.14033021     3.41326897    -1.17320693
   31 H                    1.0000    -3.22580352     2.54211770     0.35753530
   32 C                    6.0000     1.82611414     2.29354470     0.03991059
   33 O                    8.0000     2.86515183     1.86353435     0.53139891
   34 N                    7.0000     1.79682596     3.48365156    -0.54388807
   35 H                    1.0000     0.92949548     3.84857828    -0.91986987
   36 H                    1.0000     2.64581651     4.02196662    -0.57602745

      Atomic Mass 
      ----------- 

      H                  1.007825
      C                 12.000000
      O                 15.994910
      N                 14.003070


 Effective nuclear repulsion energy (a.u.)    1373.5723715863

            Nuclear Dipole moment (a.u.) 
            ----------------------------
        X                 Y               Z
 ---------------- ---------------- ----------------
    -0.0000000000    -0.0000000000     0.0000000000



                                Z-matrix (autoz)
                                -------- 

 Units are Angstrom for bonds and degrees for angles

      Type          Name      I     J     K     L     M      Value
      ----------- --------  ----- ----- ----- ----- ----- ----------
    1 Stretch                  1     2                       1.08963
    2 Stretch                  2     3                       1.08793
    3 Stretch                  2     4                       1.08819
    4 Stretch                  2     5                       1.51061
    5 Stretch                  5     6                       1.22387
    6 Stretch                  5     7                       1.33080
    7 Stretch                  7     8                       1.00871
    8 Stretch                  7     9                       1.46294
    9 Stretch                  9    10                       1.09164
   10 Stretch                  9    11                       1.53604
   11 Stretch                  9    15                       1.54013
   12 Stretch                 11    12                       1.09091
   13 Stretch                 11    13                       1.09090
   14 Stretch                 11    14                       1.09065
   15 Stretch                 15    16                       1.23218
   16 Stretch                 15    17                       1.33538
   17 Stretch                 17    18                       1.01142
   18 Stretch                 17    19                       1.46523
   19 Stretch                 19    20                       1.09133
   20 Stretch                 19    21                       1.54507
   21 Stretch                 19    32                       1.53954
   22 Stretch                 21    22                       1.09090
   23 Stretch                 21    23                       1.09196
   24 Stretch                 21    24                       1.53641
   25 Stretch                 24    25                       1.09076
   26 Stretch                 24    26                       1.08979
   27 Stretch                 24    27                       1.52482
   28 Stretch                 27    28                       1.21806
   29 Stretch                 27    29                       1.31262
   30 Stretch                 29    30                       1.00563
   31 Stretch                 29    31                       1.00321
   32 Stretch                 32    33                       1.22722
   33 Stretch                 32    34                       1.32591
   34 Stretch                 34    35                       1.01331
   35 Stretch                 34    36                       1.00578
   36 Bend                     1     2     3               109.69721
   37 Bend                     1     2     4               109.58648
   38 Bend                     1     2     5               108.84446
   39 Bend                     2     5     6               120.14687
   40 Bend                     2     5     7               116.54306
   41 Bend                     3     2     4               110.05671
   42 Bend                     3     2     5               109.35456
   43 Bend                     4     2     5               109.28002
   44 Bend                     5     7     8               118.68089
   45 Bend                     5     7     9               124.76916
   46 Bend                     6     5     7               123.30946
   47 Bend                     7     9    10               108.94573
   48 Bend                     7     9    11               108.86322
   49 Bend                     7     9    15               111.12846
   50 Bend                     8     7     9               116.48807
   51 Bend                     9    11    12               110.00826
   52 Bend                     9    11    13               109.81984
   53 Bend                     9    11    14               110.00426
   54 Bend                     9    15    16               120.64421
   55 Bend                     9    15    17               117.16024
   56 Bend                    10     9    11               108.41750
   57 Bend                    10     9    15               107.88534
   58 Bend                    11     9    15               111.52766
   59 Bend                    12    11    13               108.62079
   60 Bend                    12    11    14               109.13992
   61 Bend                    13    11    14               109.22085
   62 Bend                    15    17    18               118.87708
   63 Bend                    15    17    19               124.82521
   64 Bend                    16    15    17               122.19382
   65 Bend                    17    19    20               108.22261
   66 Bend                    17    19    21               108.85289
   67 Bend                    17    19    32               110.21407
   68 Bend                    18    17    19               116.20364
   69 Bend                    19    21    22               108.61525
   70 Bend                    19    21    23               108.99866
   71 Bend                    19    21    24               115.00844
   72 Bend                    19    32    33               120.46301
   73 Bend                    19    32    34               118.90338
   74 Bend                    20    19    21               109.00169
   75 Bend                    20    19    32               107.72976
   76 Bend                    21    19    32               112.71362
   77 Bend                    21    24    25               108.88678
   78 Bend                    21    24    26               109.65348
   79 Bend                    21    24    27               112.38951
   80 Bend                    22    21    23               107.67355
   81 Bend                    22    21    24               107.78200
   82 Bend                    23    21    24               108.52794
   83 Bend                    24    27    28               121.42615
   84 Bend                    24    27    29               119.39226
   85 Bend                    25    24    26               107.82706
   86 Bend                    25    24    27               108.94921
   87 Bend                    26    24    27               109.02679
   88 Bend                    27    29    30               116.04261
   89 Bend                    27    29    31               121.07332
   90 Bend                    28    27    29               119.07726
   91 Bend                    30    29    31               122.75408
   92 Bend                    32    34    35               120.36627
   93 Bend                    32    34    36               118.41311
   94 Bend                    33    32    34               120.63344
   95 Bend                    35    34    36               121.19135
   96 Torsion                  1     2     5     6           0.00382
   97 Torsion                  1     2     5     7        -179.72145
   98 Torsion                  2     5     7     8           2.12636
   99 Torsion                  2     5     7     9         179.15908
  100 Torsion                  3     2     5     6         119.82903
  101 Torsion                  3     2     5     7         -59.89624
  102 Torsion                  4     2     5     6        -119.64269
  103 Torsion                  4     2     5     7          60.63204
  104 Torsion                  5     7     9    10         -32.34289
  105 Torsion                  5     7     9    11          85.70918
  106 Torsion                  5     7     9    15        -151.07774
  107 Torsion                  6     5     7     8        -177.58937
  108 Torsion                  6     5     7     9          -0.55665
  109 Torsion                  7     9    11    12        -178.07206
  110 Torsion                  7     9    11    13         -58.57042
  111 Torsion                  7     9    11    14          61.66923
  112 Torsion                  7     9    15    16         -18.06761
  113 Torsion                  7     9    15    17         162.40074
  114 Torsion                  8     7     9    10         144.74863
  115 Torsion                  8     7     9    11         -97.19930
  116 Torsion                  8     7     9    15          26.01378
  117 Torsion                  9    15    17    18           1.19997
  118 Torsion                  9    15    17    19         177.53196
  119 Torsion                 10     9    11    12         -59.68715
  120 Torsion                 10     9    11    13          59.81449
  121 Torsion                 10     9    11    14        -179.94586
  122 Torsion                 10     9    15    16        -137.43804
  123 Torsion                 10     9    15    17          43.03031
  124 Torsion                 11     9    15    16         103.60342
  125 Torsion                 11     9    15    17         -75.92823
  126 Torsion                 12    11     9    15          58.95402
  127 Torsion                 13    11     9    15         178.45566
  128 Torsion                 14    11     9    15         -61.30469
  129 Torsion                 15    17    19    20         -36.62845
  130 Torsion                 15    17    19    21          81.70713
  131 Torsion                 15    17    19    32        -154.20097
  132 Torsion                 16    15    17    18        -178.32388
  133 Torsion                 16    15    17    19          -1.99189
  134 Torsion                 17    19    21    22         -54.05374
  135 Torsion                 17    19    21    23          62.99714
  136 Torsion                 17    19    21    24        -174.89908
  137 Torsion                 17    19    32    33         -27.18069
  138 Torsion                 17    19    32    34         152.66925
  139 Torsion                 18    17    19    20         139.79185
  140 Torsion                 18    17    19    21        -101.87257
  141 Torsion                 18    17    19    32          22.21933
  142 Torsion                 19    21    24    25         172.75297
  143 Torsion                 19    21    24    26         -69.48733
  144 Torsion                 19    21    24    27          51.94730
  145 Torsion                 19    32    34    35           2.28071
  146 Torsion                 19    32    34    36        -179.66393
  147 Torsion                 20    19    21    22          63.79025
  148 Torsion                 20    19    21    23        -179.15888
  149 Torsion                 20    19    21    24         -57.05509
  150 Torsion                 20    19    32    33        -145.05748
  151 Torsion                 20    19    32    34          34.79246
  152 Torsion                 21    19    32    33          94.65104
  153 Torsion                 21    19    32    34         -85.49902
  154 Torsion                 21    24    27    28        -101.82043
  155 Torsion                 21    24    27    29          74.43119
  156 Torsion                 22    21    19    32        -176.65191
  157 Torsion                 22    21    24    25          51.45302
  158 Torsion                 22    21    24    26         169.21272
  159 Torsion                 22    21    24    27         -69.35265
  160 Torsion                 23    21    19    32         -59.60104
  161 Torsion                 23    21    24    25         -64.88962
  162 Torsion                 23    21    24    26          52.87008
  163 Torsion                 23    21    24    27         174.30471
  164 Torsion                 24    21    19    32          62.50275
  165 Torsion                 24    27    29    30        -177.12777
  166 Torsion                 24    27    29    31          -1.16177
  167 Torsion                 25    24    27    28         137.40981
  168 Torsion                 25    24    27    29         -46.33857
  169 Torsion                 26    24    27    28          19.97155
  170 Torsion                 26    24    27    29        -163.77683
  171 Torsion                 28    27    29    30          -0.78745
  172 Torsion                 28    27    29    31         175.17855
  173 Torsion                 33    32    34    35        -177.86962
  174 Torsion                 33    32    34    36           0.18574


            XYZ format geometry
            -------------------
    36
 geometry
 H                    -1.54944678    -6.38260443     0.58067652
 C                    -1.69343247    -5.43145616     0.06893530
 H                    -2.56071516    -4.92057292     0.48174162
 H                    -1.83573641    -5.60773690    -0.99540614
 C                    -0.46475694    -4.57667420     0.27304371
 O                     0.47676315    -5.00066470     0.93003151
 N                    -0.48011105    -3.36978215    -0.28749340
 H                    -1.30807023    -3.07697389    -0.78372007
 C                     0.60257108    -2.39076220    -0.18991596
 H                     1.09508053    -2.50226709     0.77790328
 C                     1.63160800    -2.67663532    -1.29389448
 H                     2.46547454    -1.97746169    -1.21702567
 H                     2.01697588    -3.69153888    -1.18652426
 H                     1.16583665    -2.57128793    -2.27444789
 C                     0.06017608    -0.95222846    -0.28166739
 O                    -1.06178278    -0.73215582    -0.74107392
 N                     0.85882989     0.02880567     0.14606283
 H                     1.78028733    -0.20655621     0.49027638
 C                     0.53485173     1.45660942     0.08855973
 H                    -0.01777851     1.64428985    -0.83360017
 C                    -0.36259314     1.81389801     1.29445174
 H                    -1.22407875     1.14465257     1.29777951
 H                     0.19560435     1.64032365     2.21676867
 C                    -0.88951197     3.25707331     1.30692576
 H                    -1.60804390     3.36358547     2.12064010
 H                    -0.06664787     3.94608215     1.49612277
 C                    -1.56654873     3.63954669    -0.00472447
 O                    -0.99729092     4.32171014    -0.83795888
 N                    -2.76004721     3.16521752    -0.27590189
 H                    -3.14033021     3.41326897    -1.17320693
 H                    -3.22580352     2.54211770     0.35753530
 C                     1.82611414     2.29354470     0.03991059
 O                     2.86515183     1.86353435     0.53139891
 N                     1.79682596     3.48365156    -0.54388807
 H                     0.92949548     3.84857828    -0.91986987
 H                     2.64581651     4.02196662    -0.57602745

 ==============================================================================
                                internuclear distances
 ------------------------------------------------------------------------------
       center one      |      center two      | atomic units |  angstroms
 ------------------------------------------------------------------------------
    2 C                |   1 H                |     2.05910  |     1.08963
    3 H                |   2 C                |     2.05589  |     1.08793
    4 H                |   2 C                |     2.05637  |     1.08819
    5 C                |   2 C                |     2.85465  |     1.51061
    6 O                |   5 C                |     2.31278  |     1.22387
    7 N                |   5 C                |     2.51485  |     1.33080
    8 H                |   7 N                |     1.90618  |     1.00871
    9 C                |   7 N                |     2.76456  |     1.46294
   10 H                |   9 C                |     2.06290  |     1.09164
   11 C                |   9 C                |     2.90269  |     1.53604
   12 H                |  11 C                |     2.06152  |     1.09091
   13 H                |  11 C                |     2.06150  |     1.09090
   14 H                |  11 C                |     2.06104  |     1.09065
   15 C                |   9 C                |     2.91042  |     1.54013
   16 O                |  15 C                |     2.32849  |     1.23218
   17 N                |  15 C                |     2.52349  |     1.33538
   18 H                |  17 N                |     1.91130  |     1.01142
   19 C                |  17 N                |     2.76888  |     1.46523
   20 H                |  19 C                |     2.06232  |     1.09133
   21 C                |  19 C                |     2.91976  |     1.54507
   22 H                |  21 C                |     2.06150  |     1.09090
   23 H                |  21 C                |     2.06351  |     1.09196
   24 C                |  21 C                |     2.90339  |     1.53641
   25 H                |  24 C                |     2.06124  |     1.09076
   26 H                |  24 C                |     2.05940  |     1.08979
   27 C                |  24 C                |     2.88150  |     1.52482
   28 O                |  27 C                |     2.30181  |     1.21806
   29 N                |  27 C                |     2.48049  |     1.31262
   30 H                |  29 N                |     1.90037  |     1.00563
   31 H                |  29 N                |     1.89579  |     1.00321
   32 C                |  19 C                |     2.90931  |     1.53954
   33 O                |  32 C                |     2.31911  |     1.22722
   34 N                |  32 C                |     2.50560  |     1.32591
   35 H                |  34 N                |     1.91488  |     1.01331
   36 H                |  34 N                |     1.90066  |     1.00578
 ------------------------------------------------------------------------------
                         number of included internuclear distances:         35
 ==============================================================================



 ==============================================================================
                                 internuclear angles
 ------------------------------------------------------------------------------
        center 1       |       center 2       |       center 3       |  degrees
 ------------------------------------------------------------------------------
    1 H                |   2 C                |   3 H                |   109.70
    1 H                |   2 C                |   4 H                |   109.59
    1 H                |   2 C                |   5 C                |   108.84
    3 H                |   2 C                |   4 H                |   110.06
    3 H                |   2 C                |   5 C                |   109.35
    4 H                |   2 C                |   5 C                |   109.28
    2 C                |   5 C                |   6 O                |   120.15
    2 C                |   5 C                |   7 N                |   116.54
    6 O                |   5 C                |   7 N                |   123.31
    5 C                |   7 N                |   8 H                |   118.68
    5 C                |   7 N                |   9 C                |   124.77
    8 H                |   7 N                |   9 C                |   116.49
    7 N                |   9 C                |  10 H                |   108.95
    7 N                |   9 C                |  11 C                |   108.86
    7 N                |   9 C                |  15 C                |   111.13
   10 H                |   9 C                |  11 C                |   108.42
   10 H                |   9 C                |  15 C                |   107.89
   11 C                |   9 C                |  15 C                |   111.53
    9 C                |  11 C                |  12 H                |   110.01
    9 C                |  11 C                |  13 H                |   109.82
    9 C                |  11 C                |  14 H                |   110.00
   12 H                |  11 C                |  13 H                |   108.62
   12 H                |  11 C                |  14 H                |   109.14
   13 H                |  11 C                |  14 H                |   109.22
    9 C                |  15 C                |  16 O                |   120.64
    9 C                |  15 C                |  17 N                |   117.16
   16 O                |  15 C                |  17 N                |   122.19
   15 C                |  17 N                |  18 H                |   118.88
   15 C                |  17 N                |  19 C                |   124.83
   18 H                |  17 N                |  19 C                |   116.20
   17 N                |  19 C                |  20 H                |   108.22
   17 N                |  19 C                |  21 C                |   108.85
   17 N                |  19 C                |  32 C                |   110.21
   20 H                |  19 C                |  21 C                |   109.00
   20 H                |  19 C                |  32 C                |   107.73
   21 C                |  19 C                |  32 C                |   112.71
   19 C                |  21 C                |  22 H                |   108.62
   19 C                |  21 C                |  23 H                |   109.00
   19 C                |  21 C                |  24 C                |   115.01
   22 H                |  21 C                |  23 H                |   107.67
   22 H                |  21 C                |  24 C                |   107.78
   23 H                |  21 C                |  24 C                |   108.53
   21 C                |  24 C                |  25 H                |   108.89
   21 C                |  24 C                |  26 H                |   109.65
   21 C                |  24 C                |  27 C                |   112.39
   25 H                |  24 C                |  26 H                |   107.83
   25 H                |  24 C                |  27 C                |   108.95
   26 H                |  24 C                |  27 C                |   109.03
   24 C                |  27 C                |  28 O                |   121.43
   24 C                |  27 C                |  29 N                |   119.39
   28 O                |  27 C                |  29 N                |   119.08
   27 C                |  29 N                |  30 H                |   116.04
   27 C                |  29 N                |  31 H                |   121.07
   30 H                |  29 N                |  31 H                |   122.75
   19 C                |  32 C                |  33 O                |   120.46
   19 C                |  32 C                |  34 N                |   118.90
   33 O                |  32 C                |  34 N                |   120.63
   32 C                |  34 N                |  35 H                |   120.37
   32 C                |  34 N                |  36 H                |   118.41
   35 H                |  34 N                |  36 H                |   121.19
 ------------------------------------------------------------------------------
                            number of included internuclear angles:         60
 ==============================================================================



  library name resolved from: environment
  library file name is: </opt/rit/el9/20230413/app/linux-rhel9-x86_64_v3/gcc-11.2.1/nwchem-7.2.0-oxtctbuhfuzyfaoziquq6bki22grib3g/share/nwchem/libraries/>
  


 Summary of "ao basis" -> "" (cartesian)
 ------------------------------------------------------------------------------
       Tag                 Description            Shells   Functions and Types
 ---------------- ------------------------------  ------  ---------------------
 *                        aug-cc-pvdz                 on all atoms 


                      Basis "ao basis" -> "ao basis" (cartesian)
                      -----
  H (Hydrogen)
  ------------
            Exponent  Coefficients 
       -------------- ---------------------------------------------------------
  1 S  1.30100000E+01  0.019685
  1 S  1.96200000E+00  0.137977
  1 S  4.44600000E-01  0.478148

  2 S  1.22000000E-01  1.000000

  3 S  2.97400000E-02  1.000000

  4 P  7.27000000E-01  1.000000

  5 P  1.41000000E-01  1.000000

  C (Carbon)
  ----------
            Exponent  Coefficients 
       -------------- ---------------------------------------------------------
  1 S  6.66500000E+03  0.000692
  1 S  1.00000000E+03  0.005329
  1 S  2.28000000E+02  0.027077
  1 S  6.47100000E+01  0.101718
  1 S  2.10600000E+01  0.274740
  1 S  7.49500000E+00  0.448564
  1 S  2.79700000E+00  0.285074
  1 S  5.21500000E-01  0.015204

  2 S  6.66500000E+03 -0.000146
  2 S  1.00000000E+03 -0.001154
  2 S  2.28000000E+02 -0.005725
  2 S  6.47100000E+01 -0.023312
  2 S  2.10600000E+01 -0.063955
  2 S  7.49500000E+00 -0.149981
  2 S  2.79700000E+00 -0.127262
  2 S  5.21500000E-01  0.544529

  3 S  1.59600000E-01  1.000000

  4 S  4.69000000E-02  1.000000

  5 P  9.43900000E+00  0.038109
  5 P  2.00200000E+00  0.209480
  5 P  5.45600000E-01  0.508557

  6 P  1.51700000E-01  1.000000

  7 P  4.04100000E-02  1.000000

  8 D  5.50000000E-01  1.000000

  9 D  1.51000000E-01  1.000000

  O (Oxygen)
  ----------
            Exponent  Coefficients 
       -------------- ---------------------------------------------------------
  1 S  1.17200000E+04  0.000710
  1 S  1.75900000E+03  0.005470
  1 S  4.00800000E+02  0.027837
  1 S  1.13700000E+02  0.104800
  1 S  3.70300000E+01  0.283062
  1 S  1.32700000E+01  0.448719
  1 S  5.02500000E+00  0.270952
  1 S  1.01300000E+00  0.015458

  2 S  1.17200000E+04 -0.000160
  2 S  1.75900000E+03 -0.001263
  2 S  4.00800000E+02 -0.006267
  2 S  1.13700000E+02 -0.025716
  2 S  3.70300000E+01 -0.070924
  2 S  1.32700000E+01 -0.165411
  2 S  5.02500000E+00 -0.116955
  2 S  1.01300000E+00  0.557368

  3 S  3.02300000E-01  1.000000

  4 S  7.89600000E-02  1.000000

  5 P  1.77000000E+01  0.043018
  5 P  3.85400000E+00  0.228913
  5 P  1.04600000E+00  0.508728

  6 P  2.75300000E-01  1.000000

  7 P  6.85600000E-02  1.000000

  8 D  1.18500000E+00  1.000000

  9 D  3.32000000E-01  1.000000

  N (Nitrogen)
  ------------
            Exponent  Coefficients 
       -------------- ---------------------------------------------------------
  1 S  9.04600000E+03  0.000700
  1 S  1.35700000E+03  0.005389
  1 S  3.09300000E+02  0.027406
  1 S  8.77300000E+01  0.103207
  1 S  2.85600000E+01  0.278723
  1 S  1.02100000E+01  0.448540
  1 S  3.83800000E+00  0.278238
  1 S  7.46600000E-01  0.015440

  2 S  9.04600000E+03 -0.000153
  2 S  1.35700000E+03 -0.001208
  2 S  3.09300000E+02 -0.005992
  2 S  8.77300000E+01 -0.024544
  2 S  2.85600000E+01 -0.067459
  2 S  1.02100000E+01 -0.158078
  2 S  3.83800000E+00 -0.121831
  2 S  7.46600000E-01  0.549003

  3 S  2.24800000E-01  1.000000

  4 S  6.12400000E-02  1.000000

  5 P  1.35500000E+01  0.039919
  5 P  2.91700000E+00  0.217169
  5 P  7.97300000E-01  0.510319

  6 P  2.18500000E-01  1.000000

  7 P  5.61100000E-02  1.000000

  8 D  8.17000000E-01  1.000000

  9 D  2.30000000E-01  1.000000



 Summary of "ao basis" -> "ao basis" (cartesian)
 ------------------------------------------------------------------------------
       Tag                 Description            Shells   Functions and Types
 ---------------- ------------------------------  ------  ---------------------
 H                        aug-cc-pvdz                5        9   3s2p
 C                        aug-cc-pvdz                9       25   4s3p2d
 O                        aug-cc-pvdz                9       25   4s3p2d
 N                        aug-cc-pvdz                9       25   4s3p2d


                                 NWChem SCF Module
                                 -----------------



  ao basis        = "ao basis"
  functions       =   612
  atoms           =    36
  closed shells   =    69
  open shells     =     0
  charge          =   0.00
  wavefunction    = RHF 
  input vectors   = atomic
  output vectors  = ./ALA_GLN_2.movecs
  use symmetry    = F
  symmetry adapt  = F


 Summary of "ao basis" -> "ao basis" (cartesian)
 ------------------------------------------------------------------------------
       Tag                 Description            Shells   Functions and Types
 ---------------- ------------------------------  ------  ---------------------
 H                        aug-cc-pvdz                5        9   3s2p
 C                        aug-cc-pvdz                9       25   4s3p2d
 O                        aug-cc-pvdz                9       25   4s3p2d
 N                        aug-cc-pvdz                9       25   4s3p2d



 Forming initial guess at       1.5s


 !! The overlap matrix has   5 vectors deemed linearly dependent with
    eigenvalues:
 2.45D-06 2.69D-06 5.88D-06 7.95D-06 8.80D-06


      Superposition of Atomic Density Guess
      -------------------------------------

 Sum of atomic energies:        -901.93634758

      Non-variational initial energy
      ------------------------------

 Total energy =    -913.537935
 1-e energy   =   -3955.674356
 2-e energy   =    1668.564049
 HOMO         =      -0.312882
 LUMO         =       0.006856


 Starting SCF solution at     269.3s



 ----------------------------------------------
         Quadratically convergent ROHF

 Convergence threshold     :          1.000E-04
 Maximum no. of iterations :           30
 Final Fock-matrix accuracy:          1.000E-10
 ----------------------------------------------


              iter       energy          gnorm     gmax       time
             ----- ------------------- --------- --------- --------
                 1     -906.1971631934  2.67D+00  1.18D-01    518.7
                 2     -906.5726381246  8.67D-01  4.46D-02   1068.7
                 3     -906.6384556797  6.76D-02  4.25D-03   1866.7
                 4     -906.6391733759  4.00D-03  3.29D-04   2962.7
                 5     -906.6391763695  7.41D-06  3.85D-07   4873.2


       Final RHF  results 
       ------------------ 

         Total SCF energy =   -906.639176369522
      One-electron energy =  -3968.343100464323
      Two-electron energy =   1688.131552508468
 Nuclear repulsion energy =   1373.572371586333

        Time for solution =   4612.6s


             Final eigenvalues
             -----------------

              1      
    1  -20.5442
    2  -20.5412
    3  -20.5336
    4  -20.5168
    5  -15.6146
    6  -15.6102
    7  -15.5925
    8  -15.5922
    9  -11.3752
   10  -11.3723
   11  -11.3681
   12  -11.3493
   13  -11.3107
   14  -11.2992
   15  -11.2680
   16  -11.2672
   17  -11.2387
   18  -11.2365
   19   -1.4171
   20   -1.4017
   21   -1.3930
   22   -1.3785
   23   -1.2550
   24   -1.2474
   25   -1.2408
   26   -1.2240
   27   -1.1037
   28   -1.0597
   29   -1.0046
   30   -0.9858
   31   -0.9039
   32   -0.8890
   33   -0.8241
   34   -0.8218
   35   -0.7970
   36   -0.7880
   37   -0.7574
   38   -0.7535
   39   -0.7182
   40   -0.6967
   41   -0.6842
   42   -0.6714
   43   -0.6583
   44   -0.6522
   45   -0.6440
   46   -0.6335
   47   -0.6240
   48   -0.6143
   49   -0.6089
   50   -0.5915
   51   -0.5824
   52   -0.5750
   53   -0.5713
   54   -0.5636
   55   -0.5508
   56   -0.5465
   57   -0.5352
   58   -0.5274
   59   -0.5253
   60   -0.5149
   61   -0.4961
   62   -0.4451
   63   -0.4373
   64   -0.4353
   65   -0.4332
   66   -0.4165
   67   -0.4149
   68   -0.4059
   69   -0.3898
   70    0.0225
   71    0.0356
   72    0.0382
   73    0.0397
   74    0.0493
   75    0.0500
   76    0.0553
   77    0.0588
   78    0.0634
   79    0.0671

                       ROHF Final Molecular Orbital Analysis
                       -------------------------------------

 Vector   19  Occ=2.000000D+00  E=-1.417050D+00
              MO Center= -1.3D+00,  4.0D+00, -5.3D-01, r^2= 9.3D-01
   Bfn.  Coefficient  Atom+Function         Bfn.  Coefficient  Atom+Function  
  ----- ------------  ---------------      ----- ------------  ---------------
   454      0.369799  28 O  s               453      0.349737  28 O  s         
   428      0.248038  27 C  s         

 Vector   20  Occ=2.000000D+00  E=-1.401713D+00
              MO Center=  2.4D-01, -7.5D-02, -2.8D-01, r^2= 4.5D+00
   Bfn.  Coefficient  Atom+Function         Bfn.  Coefficient  Atom+Function  
  ----- ------------  ---------------      ----- ------------  ---------------
   250      0.306880  16 O  s               249      0.290979  16 O  s         
   224      0.209127  15 C  s               547      0.188316  33 O  s         
   546      0.170932  33 O  s         

 Vector   21  Occ=2.000000D+00  E=-1.392954D+00
              MO Center=  1.7D+00,  1.3D+00,  8.8D-02, r^2= 5.0D+00
   Bfn.  Coefficient  Atom+Function         Bfn.  Coefficient  Atom+Function  
  ----- ------------  ---------------      ----- ------------  ---------------
   547      0.337029  33 O  s               546      0.307041  33 O  s         
   521      0.212332  32 C  s               250     -0.187713  16 O  s         
   249     -0.179370  16 O  s         

 Vector   22  Occ=2.000000D+00  E=-1.378539D+00
              MO Center=  7.6D-02, -4.5D+00,  5.6D-01, r^2= 1.7D+00
   Bfn.  Coefficient  Atom+Function         Bfn.  Coefficient  Atom+Function  
  ----- ------------  ---------------      ----- ------------  ---------------
    79      0.342880   6 O  s                80      0.344495   6 O  s         
    54      0.242068   5 C  s                12      0.167755   2 C  s         

 Vector   23  Occ=2.000000D+00  E=-1.255010D+00
              MO Center=  5.1D-01,  8.0D-02,  1.2D-02, r^2= 2.0D+00
   Bfn.  Coefficient  Atom+Function         Bfn.  Coefficient  Atom+Function  
  ----- ------------  ---------------      ----- ------------  ---------------
   275      0.452099  17 N  s               274      0.340769  17 N  s         
   250     -0.218150  16 O  s               249     -0.181268  16 O  s         
   227      0.164180  15 C  px        

 Vector   24  Occ=2.000000D+00  E=-1.247437D+00
              MO Center= -2.3D+00,  3.3D+00, -2.7D-01, r^2= 1.7D+00
   Bfn.  Coefficient  Atom+Function         Bfn.  Coefficient  Atom+Function  
  ----- ------------  ---------------      ----- ------------  ---------------
   478      0.363960  29 N  s               479      0.361903  29 N  s         
   454     -0.227438  28 O  s               453     -0.188256  28 O  s         
   431     -0.180560  27 C  px              511      0.167940  31 H  s         
   502      0.152742  30 H  s         

 Vector   25  Occ=2.000000D+00  E=-1.240791D+00
              MO Center= -2.5D-01, -3.5D+00, -8.8D-02, r^2= 1.8D+00
   Bfn.  Coefficient  Atom+Function         Bfn.  Coefficient  Atom+Function  
  ----- ------------  ---------------      ----- ------------  ---------------
   105      0.439374   7 N  s               104      0.342720   7 N  s         
    80     -0.214407   6 O  s                79     -0.186713   6 O  s         
   128      0.153018   8 H  s         

 Vector   26  Occ=2.000000D+00  E=-1.224043D+00
              MO Center=  1.8D+00,  3.1D+00, -3.3D-01, r^2= 1.5D+00
   Bfn.  Coefficient  Atom+Function         Bfn.  Coefficient  Atom+Function  
  ----- ------------  ---------------      ----- ------------  ---------------
   572      0.386074  34 N  s               571      0.367479  34 N  s         
   547     -0.215457  33 O  s               546     -0.179042  33 O  s         
   525      0.164566  32 C  py              595      0.160015  35 H  s         
   604      0.155625  36 H  s         

 Vector   27  Occ=2.000000D+00  E=-1.103658D+00
              MO Center= -2.8D-01,  1.8D+00,  7.8D-01, r^2= 4.4D+00
   Bfn.  Coefficient  Atom+Function         Bfn.  Coefficient  Atom+Function  
  ----- ------------  ---------------      ----- ------------  ---------------
   342      0.245209  21 C  s               385      0.217837  24 C  s         
   309      0.172317  19 C  s               308      0.161334  19 C  s         

 Vector   28  Occ=2.000000D+00  E=-1.059719D+00
              MO Center=  2.1D-01, -2.2D+00, -2.1D-01, r^2= 7.9D+00
   Bfn.  Coefficient  Atom+Function         Bfn.  Coefficient  Atom+Function  
  ----- ------------  ---------------      ----- ------------  ---------------
   138      0.231840   9 C  s                12     -0.194044   2 C  s         
   172      0.193983  11 C  s         

 Vector   29  Occ=2.000000D+00  E=-1.004616D+00
              MO Center= -3.4D-01,  1.7D-01,  3.2D-01, r^2= 1.4D+01
   Bfn.  Coefficient  Atom+Function         Bfn.  Coefficient  Atom+Function  
  ----- ------------  ---------------      ----- ------------  ---------------
   386      0.240910  24 C  s               308     -0.213223  19 C  s         
   385      0.192663  24 C  s                11      0.177005   2 C  s         
   139      0.156910   9 C  s         

 Vector   30  Occ=2.000000D+00  E=-9.857810D-01
              MO Center= -4.5D-01, -3.4D+00, -1.9D-01, r^2= 1.1D+01
   Bfn.  Coefficient  Atom+Function         Bfn.  Coefficient  Atom+Function  
  ----- ------------  ---------------      ----- ------------  ---------------
    11      0.275122   2 C  s                56     -0.264307   5 C  s         
    13      0.213399   2 C  s               225      0.196358  15 C  s         
   144      0.193132   9 C  px              172      0.187693  11 C  s         

 Vector   31  Occ=2.000000D+00  E=-9.039279D-01
              MO Center=  3.0D-02,  2.3D-01,  1.2D-01, r^2= 1.0D+01
   Bfn.  Coefficient  Atom+Function         Bfn.  Coefficient  Atom+Function  
  ----- ------------  ---------------      ----- ------------  ---------------
   386      0.282250  24 C  s               145     -0.248222   9 C  py        
   225      0.226555  15 C  s               139     -0.217519   9 C  s         
   342     -0.203099  21 C  s               144      0.194137   9 C  px        
   172      0.179507  11 C  s               231     -0.157888  15 C  py        

 Vector   32  Occ=2.000000D+00  E=-8.889942D-01
              MO Center=  4.6D-01, -1.0D-01, -1.2D-01, r^2= 1.1D+01
   Bfn.  Coefficient  Atom+Function         Bfn.  Coefficient  Atom+Function  
  ----- ------------  ---------------      ----- ------------  ---------------
   309      0.267688  19 C  s               314      0.229934  19 C  px        
   172     -0.176730  11 C  s               528      0.164794  32 C  py        
   342     -0.153726  21 C  s         

 Vector   33  Occ=2.000000D+00  E=-8.240527D-01
              MO Center= -7.9D-01,  2.4D+00, -6.2D-02, r^2= 9.2D+00
   Bfn.  Coefficient  Atom+Function         Bfn.  Coefficient  Atom+Function  
  ----- ------------  ---------------      ----- ------------  ---------------
   481      0.258492  29 N  px              428      0.176581  27 C  s         
   511     -0.167555  31 H  s               309     -0.161380  19 C  s         
   575      0.154170  34 N  py        

 Vector   34  Occ=2.000000D+00  E=-8.218015D-01
              MO Center= -1.3D-01,  7.3D-01, -4.5D-02, r^2= 1.1D+01
   Bfn.  Coefficient  Atom+Function         Bfn.  Coefficient  Atom+Function  
  ----- ------------  ---------------      ----- ------------  ---------------
   309      0.205337  19 C  s               225      0.187115  15 C  s         
   277     -0.183560  17 N  px              386     -0.180873  24 C  s         
   275     -0.173445  17 N  s               481      0.171303  29 N  px        
   298     -0.164867  18 H  s         

 Vector   35  Occ=2.000000D+00  E=-7.969914D-01
              MO Center=  4.8D-01,  1.5D+00,  2.9D-03, r^2= 6.3D+00
   Bfn.  Coefficient  Atom+Function         Bfn.  Coefficient  Atom+Function  
  ----- ------------  ---------------      ----- ------------  ---------------
   275      0.269682  17 N  s               333     -0.239429  20 H  s         
   298      0.221219  18 H  s               225     -0.215545  15 C  s         
   277      0.214547  17 N  px              315      0.182792  19 C  py        
   575     -0.175042  34 N  py              332     -0.155218  20 H  s         

 Vector   36  Occ=2.000000D+00  E=-7.880311D-01
              MO Center= -1.1D-01, -2.9D+00, -1.7D-01, r^2= 4.1D+00
   Bfn.  Coefficient  Atom+Function         Bfn.  Coefficient  Atom+Function  
  ----- ------------  ---------------      ----- ------------  ---------------
   128      0.291857   8 H  s               225      0.273646  15 C  s         
   139     -0.259304   9 C  s               105      0.254872   7 N  s         
   144      0.212360   9 C  px               55     -0.210556   5 C  s         
   108      0.198106   7 N  py              109     -0.195857   7 N  pz        
   107     -0.183472   7 N  px              163     -0.180328  10 H  s         

 Vector   37  Occ=2.000000D+00  E=-7.573737D-01
              MO Center= -2.1D+00,  3.1D+00, -4.7D-02, r^2= 3.6D+00
   Bfn.  Coefficient  Atom+Function         Bfn.  Coefficient  Atom+Function  
  ----- ------------  ---------------      ----- ------------  ---------------
   483      0.341815  29 N  pz              502     -0.293250  30 H  s         
   511      0.279073  31 H  s               386     -0.240181  24 C  s         
   482     -0.194993  29 N  py              503     -0.163351  30 H  s         

 Vector   38  Occ=2.000000D+00  E=-7.534956D-01
              MO Center=  8.9D-01,  1.0D+00, -2.3D-01, r^2= 1.0D+01
   Bfn.  Coefficient  Atom+Function         Bfn.  Coefficient  Atom+Function  
  ----- ------------  ---------------      ----- ------------  ---------------
   574      0.243065  34 N  px              595     -0.242775  35 H  s         
   315     -0.163060  19 C  py              142     -0.151512   9 C  py        
   522      0.150209  32 C  s         

 Vector   39  Occ=2.000000D+00  E=-7.182151D-01
              MO Center=  6.6D-01,  3.7D-01, -3.0D-01, r^2= 1.4D+01
   Bfn.  Coefficient  Atom+Function         Bfn.  Coefficient  Atom+Function  
  ----- ------------  ---------------      ----- ------------  ---------------
   574      0.285267  34 N  px              604      0.247515  36 H  s         
   145      0.200280   9 C  py              228     -0.183977  15 C  py        
   595     -0.179890  35 H  s               142      0.178079   9 C  py        
   605      0.152558  36 H  s         

 Vector   40  Occ=2.000000D+00  E=-6.966972D-01
              MO Center= -6.2D-01,  2.4D+00,  1.2D-01, r^2= 7.2D+00
   Bfn.  Coefficient  Atom+Function         Bfn.  Coefficient  Atom+Function  
  ----- ------------  ---------------      ----- ------------  ---------------
   431      0.227018  27 C  px              390     -0.188254  24 C  pz        
   458      0.183998  28 O  pz              409     -0.164721  25 H  s         
   454     -0.164629  28 O  s         

 Vector   41  Occ=2.000000D+00  E=-6.842337D-01
              MO Center= -5.3D-02,  1.4D+00,  7.3D-02, r^2= 9.1D+00
   Bfn.  Coefficient  Atom+Function         Bfn.  Coefficient  Atom+Function  
  ----- ------------  ---------------      ----- ------------  ---------------
   313      0.184102  19 C  pz              332     -0.181234  20 H  s         
   458      0.179602  28 O  pz              309     -0.155227  19 C  s         

 Vector   42  Occ=2.000000D+00  E=-6.713793D-01
              MO Center=  3.7D-01, -1.7D+00,  1.2D-01, r^2= 1.4D+01
   Bfn.  Coefficient  Atom+Function         Bfn.  Coefficient  Atom+Function  
  ----- ------------  ---------------      ----- ------------  ---------------
    82      0.211088   6 O  px               80      0.201067   6 O  s         
    12     -0.166045   2 C  s                58      0.158570   5 C  py        

 Vector   43  Occ=2.000000D+00  E=-6.583480D-01
              MO Center=  2.5D-02, -8.7D-01,  4.6D-02, r^2= 1.1D+01
   Bfn.  Coefficient  Atom+Function         Bfn.  Coefficient  Atom+Function  
  ----- ------------  ---------------      ----- ------------  ---------------
   107      0.166324   7 N  px              162     -0.160836  10 H  s         
   277      0.157989  17 N  px        

 Vector   44  Occ=2.000000D+00  E=-6.521844D-01
              MO Center=  6.2D-02, -1.5D+00,  5.5D-02, r^2= 1.2D+01
   Bfn.  Coefficient  Atom+Function         Bfn.  Coefficient  Atom+Function  
  ----- ------------  ---------------      ----- ------------  ---------------
    56     -0.200711   5 C  s                13      0.191253   2 C  s         
    58      0.189189   5 C  py               82      0.171765   6 O  px        
   252      0.170638  16 O  px              227     -0.162433  15 C  px        
   250     -0.159523  16 O  s         

 Vector   45  Occ=2.000000D+00  E=-6.440126D-01
              MO Center=  5.0D-01,  2.2D+00,  5.2D-01, r^2= 6.8D+00
   Bfn.  Coefficient  Atom+Function         Bfn.  Coefficient  Atom+Function  
  ----- ------------  ---------------      ----- ------------  ---------------
   549      0.227163  33 O  px              345      0.194341  21 C  px        
   366     -0.185069  22 H  s               309      0.176399  19 C  s         
   525      0.174955  32 C  py              547      0.173091  33 O  s         
   388      0.157650  24 C  px              418      0.150321  26 H  s         

 Vector   46  Occ=2.000000D+00  E=-6.334676D-01
              MO Center= -2.6D-01,  3.2D-01, -9.3D-02, r^2= 1.4D+01
   Bfn.  Coefficient  Atom+Function         Bfn.  Coefficient  Atom+Function  
  ----- ------------  ---------------      ----- ------------  ---------------
   139      0.342031   9 C  s               173     -0.247392  11 C  s         
   343      0.206065  21 C  s               225     -0.202233  15 C  s         
   458      0.178655  28 O  pz              432      0.170662  27 C  py        
   456     -0.154845  28 O  px        

 Vector   47  Occ=2.000000D+00  E=-6.240115D-01
              MO Center= -4.2D-01, -1.6D+00, -3.4D-02, r^2= 1.7D+01
   Bfn.  Coefficient  Atom+Function         Bfn.  Coefficient  Atom+Function  
  ----- ------------  ---------------      ----- ------------  ---------------
   139      0.398686   9 C  s               173     -0.303808  11 C  s         
    59     -0.188872   5 C  pz               16     -0.187496   2 C  pz        
   225     -0.171792  15 C  s         

 Vector   48  Occ=2.000000D+00  E=-6.142594D-01
              MO Center= -7.3D-01,  1.1D+00,  1.0D-02, r^2= 1.2D+01
   Bfn.  Coefficient  Atom+Function         Bfn.  Coefficient  Atom+Function  
  ----- ------------  ---------------      ----- ------------  ---------------
   252      0.192461  16 O  px              457     -0.190155  28 O  py        
   482     -0.159837  29 N  py              388      0.156158  24 C  px        
   433     -0.155762  27 C  pz        

 Vector   49  Occ=2.000000D+00  E=-6.089274D-01
              MO Center=  1.9D-01, -1.1D+00, -1.9D-01, r^2= 1.2D+01
   Bfn.  Coefficient  Atom+Function         Bfn.  Coefficient  Atom+Function  
  ----- ------------  ---------------      ----- ------------  ---------------
   309      0.234295  19 C  s                56      0.200248   5 C  s         
   254      0.174548  16 O  pz              315      0.169560  19 C  py        
   205      0.151764  13 H  s               333     -0.151284  20 H  s         

 Vector   50  Occ=2.000000D+00  E=-5.914671D-01
              MO Center= -4.6D-01, -4.2D-01, -1.5D-01, r^2= 1.6D+01
   Bfn.  Coefficient  Atom+Function         Bfn.  Coefficient  Atom+Function  
  ----- ------------  ---------------      ----- ------------  ---------------
   457      0.179801  28 O  py              433      0.178724  27 C  pz        
   252      0.176516  16 O  px               44     -0.153803   4 H  s         
    16      0.152410   2 C  pz        

 Vector   51  Occ=2.000000D+00  E=-5.823546D-01
              MO Center=  3.5D-02, -1.5D+00, -1.1D-01, r^2= 1.6D+01
   Bfn.  Coefficient  Atom+Function         Bfn.  Coefficient  Atom+Function  
  ----- ------------  ---------------      ----- ------------  ---------------
   343      0.282178  21 C  s               309     -0.229783  19 C  s         
   196      0.184592  12 H  s                57      0.179382   5 C  px        
    15     -0.173937   2 C  py              175      0.170683  11 C  px        
   197      0.168919  12 H  s               315     -0.161422  19 C  py        
   410     -0.155513  25 H  s         

 Vector   52  Occ=2.000000D+00  E=-5.749764D-01
              MO Center=  8.1D-01,  1.2D+00,  2.0D-01, r^2= 1.2D+01
   Bfn.  Coefficient  Atom+Function         Bfn.  Coefficient  Atom+Function  
  ----- ------------  ---------------      ----- ------------  ---------------
   551      0.253478  33 O  pz              419     -0.209940  26 H  s         
   554      0.173048  33 O  pz              576      0.173486  34 N  pz        
   524     -0.167071  32 C  px              343     -0.163297  21 C  s         
   388     -0.158446  24 C  px        

 Vector   53  Occ=2.000000D+00  E=-5.712933D-01
              MO Center=  6.6D-01,  1.9D+00,  6.4D-02, r^2= 7.4D+00
   Bfn.  Coefficient  Atom+Function         Bfn.  Coefficient  Atom+Function  
  ----- ------------  ---------------      ----- ------------  ---------------
   550      0.193908  33 O  py              333      0.178600  20 H  s         
   549     -0.177445  33 O  px              311     -0.174591  19 C  px        
   526      0.172756  32 C  pz              456     -0.160178  28 O  px        
   524      0.153549  32 C  px        

 Vector   54  Occ=2.000000D+00  E=-5.635676D-01
              MO Center= -6.3D-01, -4.7D+00,  1.5D-01, r^2= 5.4D+00
   Bfn.  Coefficient  Atom+Function         Bfn.  Coefficient  Atom+Function  
  ----- ------------  ---------------      ----- ------------  ---------------
     2      0.273837   1 H  s                 1      0.238393   1 H  s         
    35     -0.218490   3 H  s                15     -0.212955   2 C  py        
    14      0.209731   2 C  px               83     -0.168669   6 O  py        
    84      0.166145   6 O  pz               57     -0.162261   5 C  px        

 Vector   55  Occ=2.000000D+00  E=-5.508011D-01
              MO Center= -1.3D-01, -2.2D+00, -1.0D-01, r^2= 1.4D+01
   Bfn.  Coefficient  Atom+Function         Bfn.  Coefficient  Atom+Function  
  ----- ------------  ---------------      ----- ------------  ---------------
   309      0.226367  19 C  s                16      0.209416   2 C  pz        
   343     -0.195784  21 C  s                 1      0.194627   1 H  s         
    44     -0.165541   4 H  s               386      0.152928  24 C  s         

 Vector   56  Occ=2.000000D+00  E=-5.464628D-01
              MO Center=  5.0D-01, -1.9D+00, -5.1D-01, r^2= 1.1D+01
   Bfn.  Coefficient  Atom+Function         Bfn.  Coefficient  Atom+Function  
  ----- ------------  ---------------      ----- ------------  ---------------
   176      0.279249  11 C  py              205     -0.265713  13 H  s         
   206     -0.263671  13 H  s               253      0.159829  16 O  py        
   163      0.155972  10 H  s         

 Vector   57  Occ=2.000000D+00  E=-5.351917D-01
              MO Center= -2.9D-01,  1.6D+00,  5.1D-01, r^2= 7.7D+00
   Bfn.  Coefficient  Atom+Function         Bfn.  Coefficient  Atom+Function  
  ----- ------------  ---------------      ----- ------------  ---------------
   375     -0.205801  23 H  s               389     -0.193545  24 C  py        
   346      0.187575  21 C  py              392     -0.188465  24 C  py        
   376     -0.185403  23 H  s               332     -0.163926  20 H  s         
   456     -0.161308  28 O  px              333     -0.154138  20 H  s         

 Vector   58  Occ=2.000000D+00  E=-5.274378D-01
              MO Center=  2.2D-01,  2.4D-01,  2.6D-01, r^2= 1.2D+01
   Bfn.  Coefficient  Atom+Function         Bfn.  Coefficient  Atom+Function  
  ----- ------------  ---------------      ----- ------------  ---------------
   366      0.208005  22 H  s               418      0.178997  26 H  s         
   410     -0.172572  25 H  s               345     -0.171339  21 C  px        
   376     -0.164209  23 H  s               419      0.156003  26 H  s         
   196     -0.155171  12 H  s               163      0.152961  10 H  s         
   214      0.153595  14 H  s               175     -0.152730  11 C  px        

 Vector   59  Occ=2.000000D+00  E=-5.253192D-01
              MO Center=  3.1D-01, -6.9D-01,  3.3D-02, r^2= 1.2D+01
   Bfn.  Coefficient  Atom+Function         Bfn.  Coefficient  Atom+Function  
  ----- ------------  ---------------      ----- ------------  ---------------
   215      0.230862  14 H  s               163      0.218253  10 H  s         
   214      0.196474  14 H  s               366     -0.188417  22 H  s         
   175     -0.181924  11 C  px              376      0.168599  23 H  s         
   418     -0.168818  26 H  s               367     -0.165635  22 H  s         
   196     -0.160019  12 H  s               162      0.157732  10 H  s         

 Vector   60  Occ=2.000000D+00  E=-5.148982D-01
              MO Center= -2.8D-01, -2.3D-01,  2.0D-01, r^2= 1.2D+01
   Bfn.  Coefficient  Atom+Function         Bfn.  Coefficient  Atom+Function  
  ----- ------------  ---------------      ----- ------------  ---------------
   254      0.219801  16 O  pz              313     -0.189357  19 C  pz        
   257      0.168799  16 O  pz              346      0.168440  21 C  py        
   522     -0.166538  32 C  s               386     -0.165432  24 C  s         
   389     -0.164112  24 C  py              347      0.162967  21 C  pz        
   367     -0.156863  22 H  s               163     -0.153312  10 H  s         

 Vector   61  Occ=2.000000D+00  E=-4.961281D-01
              MO Center=  1.1D-01, -3.2D+00, -4.2D-02, r^2= 6.9D+00
   Bfn.  Coefficient  Atom+Function         Bfn.  Coefficient  Atom+Function  
  ----- ------------  ---------------      ----- ------------  ---------------
    84      0.246691   6 O  pz              143     -0.233195   9 C  pz        
   177      0.200306  11 C  pz               87      0.180915   6 O  pz        
   163     -0.165190  10 H  s               162     -0.162776  10 H  s         
   254      0.160017  16 O  pz        

 Vector   62  Occ=2.000000D+00  E=-4.450821D-01
              MO Center= -5.1D-01,  3.4D+00, -1.8D-01, r^2= 5.0D+00
   Bfn.  Coefficient  Atom+Function         Bfn.  Coefficient  Atom+Function  
  ----- ------------  ---------------      ----- ------------  ---------------
   456      0.372771  28 O  px              459      0.310899  28 O  px        
   386      0.282213  24 C  s               458      0.280619  28 O  pz        
   429     -0.253449  27 C  s               461      0.211719  28 O  pz        
   436     -0.197541  27 C  pz              390      0.185691  24 C  pz        
   448     -0.182224  27 C  dxz             376     -0.172952  23 H  s         

 Vector   63  Occ=2.000000D+00  E=-4.372597D-01
              MO Center= -6.5D-01,  7.2D-02, -4.7D-01, r^2= 7.6D+00
   Bfn.  Coefficient  Atom+Function         Bfn.  Coefficient  Atom+Function  
  ----- ------------  ---------------      ----- ------------  ---------------
   253      0.439134  16 O  py              256      0.357383  16 O  py        
   142      0.174765   9 C  py              145      0.169330   9 C  py        
   458      0.159911  28 O  pz        

 Vector   64  Occ=2.000000D+00  E=-4.353241D-01
              MO Center= -1.3D+00,  2.9D+00, -3.8D-01, r^2= 6.8D+00
   Bfn.  Coefficient  Atom+Function         Bfn.  Coefficient  Atom+Function  
  ----- ------------  ---------------      ----- ------------  ---------------
   482     -0.316107  29 N  py              457      0.287844  28 O  py        
   480     -0.275823  29 N  s               485     -0.268396  29 N  py        
   460      0.233531  28 O  py              430      0.190377  27 C  s         
   484      0.176097  29 N  px              253     -0.174382  16 O  py        
   483     -0.171691  29 N  pz              481      0.170505  29 N  px        

 Vector   65  Occ=2.000000D+00  E=-4.331531D-01
              MO Center=  1.2D+00,  1.7D+00,  9.7D-02, r^2= 6.8D+00
   Bfn.  Coefficient  Atom+Function         Bfn.  Coefficient  Atom+Function  
  ----- ------------  ---------------      ----- ------------  ---------------
   309      0.498842  19 C  s               550     -0.353169  33 O  py        
   522     -0.302706  32 C  s               553     -0.291896  33 O  py        
   549     -0.239322  33 O  px              333     -0.237729  20 H  s         
   528      0.228104  32 C  py              343     -0.223447  21 C  s         
   540     -0.219656  32 C  dxy             527      0.215776  32 C  px        

 Vector   66  Occ=2.000000D+00  E=-4.164718D-01
              MO Center=  1.4D+00,  8.0D-01,  1.0D-01, r^2= 1.2D+01
   Bfn.  Coefficient  Atom+Function         Bfn.  Coefficient  Atom+Function  
  ----- ------------  ---------------      ----- ------------  ---------------
   576      0.306135  34 N  pz              579      0.274475  34 N  pz        
   551     -0.248190  33 O  pz              550     -0.205947  33 O  py        
   554     -0.194499  33 O  pz               13     -0.186032   2 C  s         
    83      0.184168   6 O  py              279     -0.172714  17 N  pz        
   553     -0.165617  33 O  py              282     -0.162874  17 N  pz        

 Vector   67  Occ=2.000000D+00  E=-4.148876D-01
              MO Center=  3.9D-01, -3.4D+00,  5.1D-01, r^2= 1.1D+01
   Bfn.  Coefficient  Atom+Function         Bfn.  Coefficient  Atom+Function  
  ----- ------------  ---------------      ----- ------------  ---------------
    13      0.416363   2 C  s                83     -0.409445   6 O  py        
    86     -0.328072   6 O  py               82     -0.277381   6 O  px        
    56     -0.268280   5 C  s                85     -0.212271   6 O  px        
   105      0.208096   7 N  s                17     -0.201543   2 C  px        
    64      0.182734   5 C  py               14     -0.181413   2 C  px        

 Vector   68  Occ=2.000000D+00  E=-4.058653D-01
              MO Center=  6.3D-01,  3.9D-01, -5.5D-02, r^2= 7.1D+00
   Bfn.  Coefficient  Atom+Function         Bfn.  Coefficient  Atom+Function  
  ----- ------------  ---------------      ----- ------------  ---------------
   279      0.329116  17 N  pz              282      0.299674  17 N  pz        
   254     -0.246475  16 O  pz              387      0.193691  24 C  s         
   257     -0.192632  16 O  pz              319     -0.189859  19 C  pz        
   576      0.178689  34 N  pz              551     -0.176276  33 O  pz        
   579      0.157314  34 N  pz        

 Vector   69  Occ=2.000000D+00  E=-3.897698D-01
              MO Center=  7.1D-02, -3.3D+00,  4.1D-02, r^2= 4.4D+00
   Bfn.  Coefficient  Atom+Function         Bfn.  Coefficient  Atom+Function  
  ----- ------------  ---------------      ----- ------------  ---------------
   109      0.357869   7 N  pz              112      0.324763   7 N  pz        
    84     -0.271573   6 O  pz              139     -0.246862   9 C  s         
    87     -0.209171   6 O  pz              174     -0.189741  11 C  s         
   107     -0.173958   7 N  px              110     -0.170296   7 N  px        

 Vector   70  Occ=0.000000D+00  E= 2.249148D-02
              MO Center= -3.8D+00,  2.2D+00,  1.4D+00, r^2= 1.9D+01
   Bfn.  Coefficient  Atom+Function         Bfn.  Coefficient  Atom+Function  
  ----- ------------  ---------------      ----- ------------  ---------------
   523      3.623686  32 C  s               430      2.754013  27 C  s         
   174      2.712161  11 C  s               411     -2.610237  25 H  s         
   234      2.455197  15 C  py              480     -2.318968  29 N  s         
    56      2.286915   5 C  s               319      1.867976  19 C  pz        
   394     -1.577331  24 C  px              573     -1.552771  34 N  s         

 Vector   71  Occ=0.000000D+00  E= 3.556533D-02
              MO Center= -2.1D+00, -1.1D+00,  1.8D-01, r^2= 4.2D+01
   Bfn.  Coefficient  Atom+Function         Bfn.  Coefficient  Atom+Function  
  ----- ------------  ---------------      ----- ------------  ---------------
   411     -3.402968  25 H  s               148      3.229262   9 C  py        
   387     -3.119104  24 C  s               234      2.687017  15 C  py        
   318      2.583047  19 C  py              319      2.430458  19 C  pz        
   106      2.397682   7 N  s               396      2.188982  24 C  pz        
   523      2.038498  32 C  s                64      1.975231   5 C  py        

 Vector   72  Occ=0.000000D+00  E= 3.824502D-02
              MO Center= -2.9D+00, -1.0D-01,  1.5D-01, r^2= 3.8D+01
   Bfn.  Coefficient  Atom+Function         Bfn.  Coefficient  Atom+Function  
  ----- ------------  ---------------      ----- ------------  ---------------
   174      3.007140  11 C  s               504      2.270889  30 H  s         
   480      2.205435  29 N  s               523      2.136288  32 C  s         
   148     -1.911737   9 C  py               64     -1.880233   5 C  py        
    56      1.774184   5 C  s               439      1.755208  27 C  pz        
   437      1.741440  27 C  px              396      1.702514  24 C  pz        

 Vector   73  Occ=0.000000D+00  E= 3.967872D-02
              MO Center=  1.7D+00,  2.9D+00, -1.1D+00, r^2= 3.3D+01
   Bfn.  Coefficient  Atom+Function         Bfn.  Coefficient  Atom+Function  
  ----- ------------  ---------------      ----- ------------  ---------------
   573      3.564328  34 N  s               531     -2.403073  32 C  py        
   523     -2.304039  32 C  s               606      2.241248  36 H  s         
   174     -1.823824  11 C  s               317     -1.611861  19 C  px        
   173     -1.580127  11 C  s               334      1.575640  20 H  s         
   420      1.576319  26 H  s               319      1.517644  19 C  pz        

 Vector   74  Occ=0.000000D+00  E= 4.930496D-02
              MO Center= -1.0D-01, -2.7D-01, -5.0D-01, r^2= 4.8D+01
   Bfn.  Coefficient  Atom+Function         Bfn.  Coefficient  Atom+Function  
  ----- ------------  ---------------      ----- ------------  ---------------
   411      3.316849  25 H  s                37     -2.299330   3 H  s         
   573     -2.224327  34 N  s               368     -2.205039  22 H  s         
    46      1.976872   4 H  s               606     -1.945955  36 H  s         
   149      1.812874   9 C  pz              173     -1.804266  11 C  s         
   216      1.624147  14 H  s               215      1.551961  14 H  s         

 Vector   75  Occ=0.000000D+00  E= 5.001499D-02
              MO Center=  5.6D-01, -1.5D+00,  2.6D-01, r^2= 4.4D+01
   Bfn.  Coefficient  Atom+Function         Bfn.  Coefficient  Atom+Function  
  ----- ------------  ---------------      ----- ------------  ---------------
    64      2.885329   5 C  py              420      2.605396  26 H  s         
   147      2.414332   9 C  px              377     -2.420050  23 H  s         
   352     -2.400809  21 C  py               63      2.356156   5 C  px        
   234     -2.260744  15 C  py              198     -1.984388  12 H  s         
   276     -1.968515  17 N  s               387      1.975844  24 C  s         

 Vector   76  Occ=0.000000D+00  E= 5.529877D-02
              MO Center= -1.2D+00,  1.5D-01,  4.3D-01, r^2= 4.5D+01
   Bfn.  Coefficient  Atom+Function         Bfn.  Coefficient  Atom+Function  
  ----- ------------  ---------------      ----- ------------  ---------------
   377      2.802902  23 H  s               504      2.762325  30 H  s         
   164      2.371436  10 H  s                 3      2.257758   1 H  s         
   387     -1.967530  24 C  s               430     -1.788662  27 C  s         
   573     -1.728714  34 N  s               318      1.713076  19 C  py        
   513     -1.655228  31 H  s               149     -1.530246   9 C  pz        

 Vector   77  Occ=0.000000D+00  E= 5.883103D-02
              MO Center= -3.7D-02, -2.4D+00, -2.1D-02, r^2= 4.3D+01
   Bfn.  Coefficient  Atom+Function         Bfn.  Coefficient  Atom+Function  
  ----- ------------  ---------------      ----- ------------  ---------------
   387      3.248136  24 C  s                 3      2.887200   1 H  s         
   207      2.803459  13 H  s               344      2.520018  21 C  s         
    13     -2.501305   2 C  s               130     -2.428140   8 H  s         
   377     -2.406070  23 H  s               174     -2.289788  11 C  s         
   106     -2.232608   7 N  s               513      1.986735  31 H  s         

 Vector   78  Occ=0.000000D+00  E= 6.337333D-02
              MO Center= -6.1D-01, -4.8D-02, -5.2D-01, r^2= 4.4D+01
   Bfn.  Coefficient  Atom+Function         Bfn.  Coefficient  Atom+Function  
  ----- ------------  ---------------      ----- ------------  ---------------
   411      3.537762  25 H  s               174     -3.010962  11 C  s         
    56      2.951084   5 C  s               513     -2.964210  31 H  s         
   420     -2.785208  26 H  s               430     -2.770399  27 C  s         
   368      2.726592  22 H  s               597      2.670881  35 H  s         
   334      2.631471  20 H  s               523     -2.566249  32 C  s         

 Vector   79  Occ=0.000000D+00  E= 6.708398D-02
              MO Center= -5.6D-01, -2.3D-01,  4.1D-01, r^2= 5.1D+01
   Bfn.  Coefficient  Atom+Function         Bfn.  Coefficient  Atom+Function  
  ----- ------------  ---------------      ----- ------------  ---------------
   420      5.206674  26 H  s                37      3.523601   3 H  s         
    46     -2.875915   4 H  s               352     -2.233526  21 C  py        
   395     -2.002427  24 C  py              106      1.991983   7 N  s         
   198      1.832159  12 H  s               351      1.793624  21 C  px        
   174     -1.775502  11 C  s               377     -1.742023  23 H  s         

 Vector   80  Occ=0.000000D+00  E= 7.307321D-02
              MO Center= -4.1D-01, -1.3D-01,  3.7D-02, r^2= 5.2D+01
   Bfn.  Coefficient  Atom+Function         Bfn.  Coefficient  Atom+Function  
  ----- ------------  ---------------      ----- ------------  ---------------
   430      9.615453  27 C  s                13      4.516426   2 C  s         
   334      4.210395  20 H  s               344     -4.117711  21 C  s         
   597     -4.104979  35 H  s                64      3.994400   5 C  py        
   368     -3.766367  22 H  s                 3      3.620250   1 H  s         
   387     -2.959965  24 C  s               174     -2.818276  11 C  s         

 Vector   81  Occ=0.000000D+00  E= 7.541622D-02
              MO Center=  5.2D-01, -1.3D+00, -4.3D-01, r^2= 4.4D+01
   Bfn.  Coefficient  Atom+Function         Bfn.  Coefficient  Atom+Function  
  ----- ------------  ---------------      ----- ------------  ---------------
   368      5.285270  22 H  s               198     -4.592686  12 H  s         
    13      4.444457   2 C  s               411     -4.014579  25 H  s         
   420      3.585202  26 H  s               334     -3.265976  20 H  s         
   394     -3.107708  24 C  px              234      3.005673  15 C  py        
   216      2.981837  14 H  s               207      2.613244  13 H  s         

 Vector   82  Occ=0.000000D+00  E= 7.898474D-02
              MO Center=  2.7D-01, -4.4D-01,  7.7D-01, r^2= 4.0D+01
   Bfn.  Coefficient  Atom+Function         Bfn.  Coefficient  Atom+Function  
  ----- ------------  ---------------      ----- ------------  ---------------
   430      7.490476  27 C  s               164     -5.796081  10 H  s         
   149      4.018521   9 C  pz              344     -3.689323  21 C  s         
    56      3.211681   5 C  s               368      3.087752  22 H  s         
   334     -2.913257  20 H  s               207      2.695181  13 H  s         
   504      2.410995  30 H  s               513     -2.373342  31 H  s         

 Vector   83  Occ=0.000000D+00  E= 8.569197D-02
              MO Center= -8.4D-01, -1.0D+00, -1.4D+00, r^2= 3.8D+01
   Bfn.  Coefficient  Atom+Function         Bfn.  Coefficient  Atom+Function  
  ----- ------------  ---------------      ----- ------------  ---------------
   430     -7.849436  27 C  s               344      7.321246  21 C  s         
   334     -6.124307  20 H  s               216      5.855043  14 H  s         
   387      5.192204  24 C  s               130     -4.339861   8 H  s         
   319     -3.672503  19 C  pz              207     -3.269664  13 H  s         
    13      2.880554   2 C  s                37      2.862839   3 H  s         

 Vector   84  Occ=0.000000D+00  E= 8.667642D-02
              MO Center=  3.1D-02,  1.3D+00, -3.3D-01, r^2= 4.6D+01
   Bfn.  Coefficient  Atom+Function         Bfn.  Coefficient  Atom+Function  
  ----- ------------  ---------------      ----- ------------  ---------------
   430      6.935042  27 C  s               411      5.459820  25 H  s         
   597     -4.615101  35 H  s               606      3.356970  36 H  s         
   394      3.339422  24 C  px              344     -3.319020  21 C  s         
   234      3.220740  15 C  py              420     -3.202405  26 H  s         
    56     -3.082019   5 C  s               368     -2.887707  22 H  s         

 Vector   85  Occ=0.000000D+00  E= 9.005058D-02
              MO Center= -1.1D-02,  3.3D-01,  2.3D-01, r^2= 4.3D+01
   Bfn.  Coefficient  Atom+Function         Bfn.  Coefficient  Atom+Function  
  ----- ------------  ---------------      ----- ------------  ---------------
   368     10.610784  22 H  s               377     -6.668722  23 H  s         
   351      5.673932  21 C  px               13      4.536087   2 C  s         
   207     -4.249032  13 H  s               420      4.103603  26 H  s         
   523     -3.922256  32 C  s               513     -3.715295  31 H  s         
   597     -3.588776  35 H  s                56     -2.581197   5 C  s         

 Vector   86  Occ=0.000000D+00  E= 9.825124D-02
              MO Center= -6.2D-01, -1.2D+00, -1.1D+00, r^2= 4.1D+01
   Bfn.  Coefficient  Atom+Function         Bfn.  Coefficient  Atom+Function  
  ----- ------------  ---------------      ----- ------------  ---------------
   234      7.583595  15 C  py              334     -6.716835  20 H  s         
   130      5.853213   8 H  s               430     -5.421282  27 C  s         
   523      5.124813  32 C  s               198      4.945248  12 H  s         
   377      3.558624  23 H  s               597      3.545135  35 H  s         
   276     -3.460125  17 N  s               317     -3.448659  19 C  px        

 Vector   87  Occ=0.000000D+00  E= 1.056580D-01
              MO Center=  4.2D-01,  1.5D+00,  4.9D-01, r^2= 4.2D+01
   Bfn.  Coefficient  Atom+Function         Bfn.  Coefficient  Atom+Function  
  ----- ------------  ---------------      ----- ------------  ---------------
   430     18.827814  27 C  s               344    -11.813282  21 C  s         
    56      7.891456   5 C  s               523      7.869637  32 C  s         
   387     -6.658686  24 C  s               164      5.810658  10 H  s         
    13     -5.767806   2 C  s               300     -4.978041  18 H  s         
   437      4.328989  27 C  px              439      4.029467  27 C  pz        

 Vector   88  Occ=0.000000D+00  E= 1.095971D-01
              MO Center= -1.0D-01, -2.2D+00,  6.0D-01, r^2= 3.6D+01
   Bfn.  Coefficient  Atom+Function         Bfn.  Coefficient  Atom+Function  
  ----- ------------  ---------------      ----- ------------  ---------------
    56     19.716749   5 C  s                13    -17.516516   2 C  s         
    63     -6.953764   5 C  px              300      6.435307  18 H  s         
   318     -6.254886  19 C  py              148     -5.895371   9 C  py        
   523      5.558097  32 C  s               106     -5.289291   7 N  s         
    20     -5.111140   2 C  px              198     -5.093922  12 H  s         

 Vector   89  Occ=0.000000D+00  E= 1.145591D-01
              MO Center=  1.0D-01, -1.0D-01,  4.0D-01, r^2= 4.4D+01
   Bfn.  Coefficient  Atom+Function         Bfn.  Coefficient  Atom+Function  
  ----- ------------  ---------------      ----- ------------  ---------------
    13     17.886580   2 C  s                56    -17.702169   5 C  s         
   523    -11.769626  32 C  s               430      9.580361  27 C  s         
   300      6.765713  18 H  s                63      6.539936   5 C  px        
    64      6.052065   5 C  py               20      5.313790   2 C  px        
   334     -5.089739  20 H  s               597      4.592904  35 H  s         

 Vector   90  Occ=0.000000D+00  E= 1.258054D-01
              MO Center=  5.0D-01,  8.3D-01,  1.0D+00, r^2= 3.6D+01
   Bfn.  Coefficient  Atom+Function         Bfn.  Coefficient  Atom+Function  
  ----- ------------  ---------------      ----- ------------  ---------------
[...]
   114     -6.974381   7 N  py              233     -6.571859  15 C  px        
   367      6.212349  22 H  s               573     -6.102724  34 N  s         
   173     -5.937878  11 C  s               343     -5.864347  21 C  s         
   276      5.325049  17 N  s               319     -5.224866  19 C  pz        

 Vector  175  Occ=0.000000D+00  E= 4.414910D-01
              MO Center=  2.3D-01,  9.7D-01,  2.2D-01, r^2= 2.4D+01
   Bfn.  Coefficient  Atom+Function         Bfn.  Coefficient  Atom+Function  
  ----- ------------  ---------------      ----- ------------  ---------------
   234      8.233758  15 C  py              276     -8.222197  17 N  s         
   174      7.346816  11 C  s                56     -6.449430   5 C  s         
   344      6.294616  21 C  s                12      5.273967   2 C  s         
    13      5.275928   2 C  s               376      5.237268  23 H  s         
   395      4.909943  24 C  py              420     -4.851940  26 H  s         

 Vector  176  Occ=0.000000D+00  E= 4.419512D-01
              MO Center= -1.1D+00, -1.4D+00,  6.8D-02, r^2= 2.9D+01
   Bfn.  Coefficient  Atom+Function         Bfn.  Coefficient  Atom+Function  
  ----- ------------  ---------------      ----- ------------  ---------------
   430     13.131333  27 C  s               480    -10.297245  29 N  s         
    13     -8.690621   2 C  s               344     -6.220795  21 C  s         
   523      6.100707  32 C  s               531     -5.756204  32 C  py        
    36      5.272533   3 H  s               173     -4.487533  11 C  s         
   206      4.140878  13 H  s               164      4.017532  10 H  s         

 Vector  177  Occ=0.000000D+00  E= 4.434853D-01
              MO Center= -7.6D-01, -3.0D-01, -1.6D-01, r^2= 2.8D+01
   Bfn.  Coefficient  Atom+Function         Bfn.  Coefficient  Atom+Function  
  ----- ------------  ---------------      ----- ------------  ---------------
   573     18.826687  34 N  s               523    -13.286878  32 C  s         
   318    -12.153322  19 C  py              387     11.186409  24 C  s         
    56     -6.890264   5 C  s               430     -6.768585  27 C  s         
   344      6.135123  21 C  s               233      5.957837  15 C  px        
   276     -5.965696  17 N  s               234     -5.899885  15 C  py        

 Vector  178  Occ=0.000000D+00  E= 4.484559D-01
              MO Center= -1.8D-01, -2.6D-01,  4.9D-01, r^2= 2.6D+01
   Bfn.  Coefficient  Atom+Function         Bfn.  Coefficient  Atom+Function  
  ----- ------------  ---------------      ----- ------------  ---------------
   148     13.407735   9 C  py              234     10.786745  15 C  py        
   106      8.534173   7 N  s               276     -8.523856  17 N  s         
   284      8.106786  17 N  py              149     -6.810793   9 C  pz        
   430     -6.160481  27 C  s               573     -5.867320  34 N  s         
   174      5.794798  11 C  s               455      5.635008  28 O  s         

 Vector  179  Occ=0.000000D+00  E= 4.529811D-01
              MO Center=  4.1D-01, -4.3D-01, -4.3D-01, r^2= 2.4D+01
   Bfn.  Coefficient  Atom+Function         Bfn.  Coefficient  Atom+Function  
  ----- ------------  ---------------      ----- ------------  ---------------
   174    -17.606094  11 C  s                56     16.922486   5 C  s         
    13    -12.170195   2 C  s               234     -9.593456  15 C  py        
   206      8.802788  13 H  s               173     -8.587456  11 C  s         
   215      7.754331  14 H  s               351      6.676101  21 C  px        
   573      6.697800  34 N  s               318     -6.632392  19 C  py        

 Vector  180  Occ=0.000000D+00  E= 4.564450D-01
              MO Center= -1.2D+00, -1.1D+00,  1.2D-01, r^2= 2.7D+01
   Bfn.  Coefficient  Atom+Function         Bfn.  Coefficient  Atom+Function  
  ----- ------------  ---------------      ----- ------------  ---------------
   573      9.434876  34 N  s               344     -7.351905  21 C  s         
    13     -7.223830   2 C  s               284      6.703555  17 N  py        
   317     -6.664772  19 C  px               45      6.273673   4 H  s         
    56      6.163623   5 C  s               343      5.893659  21 C  s         
   234     -5.008728  15 C  py              531     -4.737722  32 C  py        

 Vector  181  Occ=0.000000D+00  E= 4.617499D-01
              MO Center=  3.8D-01, -7.8D-02, -1.1D-01, r^2= 2.1D+01
   Bfn.  Coefficient  Atom+Function         Bfn.  Coefficient  Atom+Function  
  ----- ------------  ---------------      ----- ------------  ---------------
   318     12.816037  19 C  py              573    -10.291163  34 N  s         
   523     10.087755  32 C  s               149      9.499623   9 C  pz        
   430     -9.232140  27 C  s               480      9.255721  29 N  s         
   173     -8.287695  11 C  s               387     -7.978756  24 C  s         
   333     -6.930051  20 H  s               276      5.728024  17 N  s         

 Vector  182  Occ=0.000000D+00  E= 4.650446D-01
              MO Center= -3.7D-01,  2.7D-01,  1.9D-01, r^2= 2.2D+01
   Bfn.  Coefficient  Atom+Function         Bfn.  Coefficient  Atom+Function  
  ----- ------------  ---------------      ----- ------------  ---------------
   174     11.680428  11 C  s               523     10.209326  32 C  s         
    13     -8.695545   2 C  s               344     -8.612025  21 C  s         
   353      7.720779  21 C  pz              386     -7.150158  24 C  s         
   106     -6.934437   7 N  s                12     -6.009091   2 C  s         
    56      5.251668   5 C  s               410      3.887352  25 H  s         

 Vector  183  Occ=0.000000D+00  E= 4.679665D-01
              MO Center= -7.2D-02, -1.7D+00, -2.3D-01, r^2= 2.2D+01
   Bfn.  Coefficient  Atom+Function         Bfn.  Coefficient  Atom+Function  
  ----- ------------  ---------------      ----- ------------  ---------------
   148     19.973120   9 C  py               56     17.054854   5 C  s         
   344    -11.335355  21 C  s               106     10.899369   7 N  s         
   276    -10.011122  17 N  s               233      7.860175  15 C  px        
   284      7.875826  17 N  py              283     -7.092175  17 N  px        
   174     -6.896753  11 C  s               430      6.819526  27 C  s         

 Vector  184  Occ=0.000000D+00  E= 4.729191D-01
              MO Center=  3.5D-01, -1.3D+00,  1.1D-01, r^2= 2.4D+01
   Bfn.  Coefficient  Atom+Function         Bfn.  Coefficient  Atom+Function  
  ----- ------------  ---------------      ----- ------------  ---------------
    56    -24.923337   5 C  s                13     24.467226   2 C  s         
   318     15.822648  19 C  py              276     13.659167  17 N  s         
   148    -13.173604   9 C  py              352    -10.741321  21 C  py        
   523    -10.731797  32 C  s               284     -9.860636  17 N  py        
    64      9.579985   5 C  py               12      9.058950   2 C  s         

 Vector  185  Occ=0.000000D+00  E= 4.759405D-01
              MO Center=  1.0D-01, -3.6D-01,  6.3D-02, r^2= 2.3D+01
   Bfn.  Coefficient  Atom+Function         Bfn.  Coefficient  Atom+Function  
  ----- ------------  ---------------      ----- ------------  ---------------
    56     15.497964   5 C  s               148    -12.525775   9 C  py        
    13    -11.859469   2 C  s               174    -10.845871  11 C  s         
   114     10.776122   7 N  py              234     10.471795  15 C  py        
   523      9.863396  32 C  s               284     -7.884831  17 N  py        
   197      7.430959  12 H  s                12     -6.344785   2 C  s         

 Vector  186  Occ=0.000000D+00  E= 4.821900D-01
              MO Center= -1.5D-01, -3.5D-01, -1.7D-02, r^2= 2.2D+01
   Bfn.  Coefficient  Atom+Function         Bfn.  Coefficient  Atom+Function  
  ----- ------------  ---------------      ----- ------------  ---------------
    13     14.570587   2 C  s                56     -9.454906   5 C  s         
   234      8.477352  15 C  py               63      6.440205   5 C  px        
    64      6.411703   5 C  py               12      6.324032   2 C  s         
   173     -6.182250  11 C  s                36     -6.001818   3 H  s         
   163      5.845300  10 H  s               215      5.442744  14 H  s         

 Vector  187  Occ=0.000000D+00  E= 4.867172D-01
              MO Center=  3.2D-01, -3.0D-01, -3.5D-01, r^2= 2.3D+01
   Bfn.  Coefficient  Atom+Function         Bfn.  Coefficient  Atom+Function  
  ----- ------------  ---------------      ----- ------------  ---------------
   430     16.378746  27 C  s               317      9.664037  19 C  px        
   310     -6.841114  19 C  s                13      6.789887   2 C  s         
   376      6.113483  23 H  s               215      5.800130  14 H  s         
   344     -5.826858  21 C  s               276     -5.705066  17 N  s         
   455     -5.324891  28 O  s               352     -4.546465  21 C  py        

 Vector  188  Occ=0.000000D+00  E= 4.903026D-01
              MO Center=  2.2D-01, -5.0D-01,  4.4D-02, r^2= 2.7D+01
   Bfn.  Coefficient  Atom+Function         Bfn.  Coefficient  Atom+Function  
  ----- ------------  ---------------      ----- ------------  ---------------
    56     27.019923   5 C  s               523     24.454014  32 C  s         
   387    -18.982960  24 C  s                13    -18.353208   2 C  s         
   344    -18.186626  21 C  s               573    -14.386636  34 N  s         
   174     12.241687  11 C  s               234     11.700792  15 C  py        
   319     11.559680  19 C  pz              114     11.365458   7 N  py        

 Vector  189  Occ=0.000000D+00  E= 4.929381D-01
              MO Center=  1.8D-01, -1.3D+00, -1.4D-01, r^2= 2.4D+01
   Bfn.  Coefficient  Atom+Function         Bfn.  Coefficient  Atom+Function  
  ----- ------------  ---------------      ----- ------------  ---------------
    13     29.045202   2 C  s               174    -15.063893  11 C  s         
   523    -12.877457  32 C  s                64     12.500624   5 C  py        
   148     12.190560   9 C  py               63     11.447262   5 C  px        
    56    -10.086491   5 C  s               284      8.693665  17 N  py        
   318      8.302180  19 C  py              147      7.725421   9 C  px        

 Vector  190  Occ=0.000000D+00  E= 4.962901D-01
              MO Center= -3.1D-01, -7.7D-01,  8.0D-02, r^2= 2.2D+01
   Bfn.  Coefficient  Atom+Function         Bfn.  Coefficient  Atom+Function  
  ----- ------------  ---------------      ----- ------------  ---------------
    56     23.096923   5 C  s               523     12.863810  32 C  s         
   344    -11.378481  21 C  s                13    -10.588012   2 C  s         
   317    -10.542077  19 C  px              387     -9.389517  24 C  s         
    81     -6.859738   6 O  s               386     -6.123377  24 C  s         
   573     -6.133333  34 N  s               113      5.917700   7 N  px        

 Vector  191  Occ=0.000000D+00  E= 5.009224D-01
              MO Center= -7.2D-01,  6.9D-01,  1.1D-01, r^2= 2.4D+01
   Bfn.  Coefficient  Atom+Function         Bfn.  Coefficient  Atom+Function  
  ----- ------------  ---------------      ----- ------------  ---------------
    56    -34.736115   5 C  s                13     33.988970   2 C  s         
   523    -16.292394  32 C  s                63     13.052081   5 C  px        
   318     12.103220  19 C  py              317     10.402144  19 C  px        
    12     10.203008   2 C  s                64      9.943729   5 C  py        
   276      8.624369  17 N  s               114     -7.670964   7 N  py        


 center of mass
 --------------
 x =   0.03075127 y =   0.03907781 z =   0.00100246

 moments of inertia (a.u.)
 ------------------
        9906.191282898235           0.000000000001           0.000000000000
           0.000000000001        2465.525841893766          -0.000000000001
           0.000000000000          -0.000000000001       11399.061854138941

  Mulliken analysis of the total density
  --------------------------------------

    Atom       Charge   Shell Charges
 -----------   ------   -------------------------------------------------------
    1 H    1     0.96   0.76  0.21  0.01  0.03 -0.06
    2 C    6     6.56   2.01  0.66  0.32  0.33  2.06  1.04 -0.03  0.06  0.12
    3 H    1     0.81   0.76  0.07  0.01  0.03 -0.06
    4 H    1     0.83   0.76  0.09  0.01  0.03 -0.06
    5 C    6     4.97   2.01  0.68  0.09 -0.15  1.90  0.30 -0.11  0.24  0.02
    6 O    8     8.71   2.01  0.82  0.99  0.15  2.79  1.82  0.14  0.01 -0.02
    7 N    7     7.60   2.01  0.72  0.86 -0.06  2.46  1.44  0.08  0.05  0.05
    8 H    1     1.00   0.75  0.23 -0.00  0.06 -0.03
    9 C    6     6.42   2.01  0.66  0.16  0.01  2.00  1.45 -0.13  0.14  0.14
   10 H    1     1.12   0.78  0.33 -0.00  0.03 -0.00
   11 C    6     5.61   2.01  0.67  0.19  0.20  2.04  0.45 -0.00  0.07 -0.00
   12 H    1     0.89   0.77  0.15  0.01  0.03 -0.07
   13 H    1     1.02   0.77  0.28  0.00  0.03 -0.06
   14 H    1     0.88   0.77  0.15  0.00  0.03 -0.08
   15 C    6     4.59   2.01  0.68 -0.01  0.03  1.88  0.10 -0.02  0.23 -0.31
   16 O    8     8.84   2.01  0.82  1.02  0.17  2.79  1.87  0.15  0.01 -0.01
   17 N    7     7.66   2.01  0.72  0.91 -0.06  2.45  1.48  0.05  0.05  0.06
   18 H    1     0.98   0.75  0.22 -0.01  0.06 -0.03
   19 C    6     6.22   2.01  0.66  0.17  0.01  2.00  1.15  0.09  0.14 -0.01
   20 H    1     1.13   0.78  0.28 -0.02  0.03  0.05
   21 C    6     5.93   2.01  0.66  0.27  0.04  2.03  0.71 -0.03  0.09  0.14
   22 H    1     0.97   0.78  0.26 -0.02  0.03 -0.08
   23 H    1     0.94   0.78  0.22  0.01  0.03 -0.10
   24 C    6     6.42   2.01  0.66  0.62 -0.00  2.05  0.84  0.05  0.09  0.10
   25 H    1     0.92   0.78  0.20  0.01  0.03 -0.08
   26 H    1     0.87   0.78  0.13 -0.01  0.03 -0.06
   27 C    6     4.64   2.01  0.68  0.04  0.04  1.90 -0.18  0.00  0.24 -0.10
   28 O    8     8.86   2.01  0.81  1.02  0.19  2.81  1.86  0.14  0.02 -0.00
   29 N    7     7.21   2.01  0.72  0.78 -0.16  2.47  1.28  0.09  0.04 -0.02
   30 H    1     0.98   0.75  0.21 -0.01  0.06 -0.02
   31 H    1     0.97   0.76  0.21 -0.01  0.05 -0.04
   32 C    6     4.55   2.01  0.68  0.08  0.05  1.89 -0.22 -0.00  0.23 -0.16
   33 O    8     8.85   2.01  0.82  1.04  0.18  2.79  1.86  0.14  0.01  0.00
   34 N    7     7.22   2.01  0.72  0.84 -0.16  2.47  1.24  0.08  0.04 -0.02
   35 H    1     0.88   0.72  0.19 -0.01  0.06 -0.09
   36 H    1     0.99   0.75  0.22 -0.01  0.05 -0.03

       Multipole analysis of the density wrt the origin
       ------------------------------------------------

     L   x y z        total         open         nuclear
     -   - - -        -----         ----         -------
     0   0 0 0     -0.000000      0.000000    138.000000

     1   1 0 0     -1.934563      0.000000     -0.000000
     1   0 1 0      1.061786      0.000000     -0.000000
     1   0 0 1     -0.116037      0.000000      0.000000

     2   2 0 0    -77.765958      0.000000   1099.894795
     2   1 1 0      3.113803      0.000000     12.378752
     2   1 0 1     -5.944683      0.000000    -17.855805
     2   0 2 0    -91.171624      0.000000   5098.364372
     2   0 1 1     10.781643      0.000000     35.985897
     2   0 0 2    -80.504506      0.000000    292.419790


 Task  times  cpu:     4881.6s     wall:     4965.1s


                                NWChem Input Module
                                -------------------


 Summary of allocated global arrays
-----------------------------------
  No active global arrays


MA_summarize_allocated_blocks: starting scan ...
MA_summarize_allocated_blocks: scan completed: 0 heap blocks, 0 stack blocks
MA usage statistics:

	allocation statistics:
					      heap	     stack
					      ----	     -----
	current number of blocks	         0	         0
	maximum number of blocks	        16	        14
	current total bytes		         0	         0
	maximum total bytes		    129872	  28238872
	maximum total K-bytes		       130	     28239
	maximum total M-bytes		         1	        29


                                     CITATION
                                     --------
                Please cite the following reference when publishing
                           results obtained with NWChem:

          E. Apra, E. J. Bylaska, W. A. de Jong, N. Govind, K. Kowalski,
       T. P. Straatsma, M. Valiev, H. J. J. van Dam, Y. Alexeev, J. Anchell,
       V. Anisimov, F. W. Aquino, R. Atta-Fynn, J. Autschbach, N. P. Bauman,
     J. C. Becca, D. E. Bernholdt, K. Bhaskaran-Nair, S. Bogatko, P. Borowski,
         J. Boschen, J. Brabec, A. Bruner, E. Cauet, Y. Chen, G. N. Chuev,
      C. J. Cramer, J. Daily, M. J. O. Deegan, T. H. Dunning Jr., M. Dupuis,
   K. G. Dyall, G. I. Fann, S. A. Fischer, A. Fonari, H. Fruchtl, L. Gagliardi,
      J. Garza, N. Gawande, S. Ghosh, K. Glaesemann, A. W. Gotz, J. Hammond,
       V. Helms, E. D. Hermes, K. Hirao, S. Hirata, M. Jacquelin, L. Jensen,
   B. G. Johnson, H. Jonsson, R. A. Kendall, M. Klemm, R. Kobayashi, V. Konkov,
      S. Krishnamoorthy, M. Krishnan, Z. Lin, R. D. Lins, R. J. Littlefield,
      A. J. Logsdail, K. Lopata, W. Ma, A. V. Marenich, J. Martin del Campo,
   D. Mejia-Rodriguez, J. E. Moore, J. M. Mullin, T. Nakajima, D. R. Nascimento,
    J. A. Nichols, P. J. Nichols, J. Nieplocha, A. Otero-de-la-Roza, B. Palmer,
    A. Panyala, T. Pirojsirikul, B. Peng, R. Peverati, J. Pittner, L. Pollack,
   R. M. Richard, P. Sadayappan, G. C. Schatz, W. A. Shelton, D. W. Silverstein,
   D. M. A. Smith, T. A. Soares, D. Song, M. Swart, H. L. Taylor, G. S. Thomas,
            V. Tipparaju, D. G. Truhlar, K. Tsemekhman, T. Van Voorhis,
      A. Vazquez-Mayagoitia, P. Verma, O. Villa, A. Vishnu, K. D. Vogiatzis,
        D. Wang, J. H. Weare, M. J. Williamson, T. L. Windus, K. Wolinski,
        A. T. Wong, Q. Wu, C. Yang, Q. Yu, M. Zacharias, Z. Zhang, Y. Zhao,
                                and R. J. Harrison
                        "NWChem: Past, present, and future
                         J. Chem. Phys. 152, 184102 (2020)
                               doi:10.1063/5.0004997

                                      AUTHORS
                                      -------
  E. Apra, E. J. Bylaska, N. Govind, K. Kowalski, M. Valiev, D. Mejia-Rodriguez,
       A. Kunitsa, N. P. Bauman, A. Panyala, W. A. de Jong, T. P. Straatsma,
   H. J. J. van Dam, D. Wang, T. L. Windus, J. Hammond, J. Autschbach, A. Woods,
    K. Bhaskaran-Nair, J. Brabec, K. Lopata, S. A. Fischer, S. Krishnamoorthy,
     M. Jacquelin, W. Ma, M. Klemm, O. Villa, Y. Chen, V. Anisimov, F. Aquino,
     S. Hirata, M. T. Hackler, E. Hermes, L. Jensen, J. E. Moore, J. C. Becca,
      V. Konjkov, T. Risthaus, M. Malagoli, A. Marenich, A. Otero-de-la-Roza,
        J. Mullin, P. Nichols, R. Peverati, J. Pittner, Y. Zhao, P.-D. Fan,
        A. Fonari, M. J. Williamson, R. J. Harrison, J. R. Rehr, M. Dupuis,
     D. Silverstein, D. M. A. Smith, J. Nieplocha, V. Tipparaju, M. Krishnan,
     B. E. Van Kuiken, A. Vazquez-Mayagoitia, M. Swart, Q. Wu, T. Van Voorhis,
     A. A. Auer, M. Nooijen, L. D. Crosby, E. Brown, G. Cisneros, G. I. Fann,
   H. Fruchtl, J. Garza, K. Hirao, R. A. Kendall, J. A. Nichols, K. Tsemekhman,
    K. Wolinski, J. Anchell, D. E. Bernholdt, P. Borowski, T. Clark, D. Clerc,
   H. Dachsel, M. J. O. Deegan, K. Dyall, D. Elwood, E. Glendening, M. Gutowski,
   A. C. Hess, J. Jaffe, B. G. Johnson, J. Ju, R. Kobayashi, R. Kutteh, Z. Lin,
   R. Littlefield, X. Long, B. Meng, T. Nakajima, S. Niu, L. Pollack, M. Rosing,
   K. Glaesemann, G. Sandrone, M. Stave, H. Taylor, G. Thomas, J. H. van Lenthe,
                               A. T. Wong, Z. Zhang.

 Total times  cpu:     4881.7s     wall:     4965.4s
