export TMOUT=5400
export TMPDIR=/tmp
export PTMPDIR=/tmp/ptmp
 argument  1 = ALA_TRP_0.nw
                                         
                                         


             Northwest Computational Chemistry Package (NWChem) 7.2.0
             --------------------------------------------------------


                    Environmental Molecular Sciences Laboratory
                       Pacific Northwest National Laboratory
                                Richland, WA 99352

                              Copyright (c) 1994-2022
                       Pacific Northwest National Laboratory
                            Battelle Memorial Institute

             NWChem is an open-source computational chemistry package
                        distributed under the terms of the
                      Educational Community License (ECL) 2.0
             A copy of the license is included with this distribution
                              in the LICENSE.TXT file

                                  ACKNOWLEDGMENT
                                  --------------

            This software and its documentation were developed at the
            EMSL at Pacific Northwest National Laboratory, a multiprogram
            national laboratory, operated for the U.S. Department of Energy
            by Battelle under Contract Number DE-AC05-76RL01830. Support
            for this work was provided by the Department of Energy Office
            of Biological and Environmental Research, Office of Basic
            Energy Sciences, and the Office of Advanced Scientific Computing.


           Job information
           ---------------

    hostname        = nova18-41
    program         = /opt/rit/el9/20230413/app/linux-rhel9-x86_64_v3/gcc-11.2.1/nwchem-7.2.0-oxtctbuhfuzyfaoziquq6bki22grib3g/bin/nwchem
    date            = Mon Jun 30 09:33:14 2025

    compiled        = Wed_May_17_23:46:39_2023
    source          = /tmp/root/spack-stage/spack-stage-nwchem-7.2.0-oxtctbuhfuzyfaoziquq6bki22grib3g/spack-src
    nwchem branch   = 7.2.0
    nwchem revision = d0d141fd
    ga revision     = 5.8.0
    use scalapack   = T
    input           = ALA_TRP_0.nw
    prefix          = ALA_TRP_0.
    data base       = ./ALA_TRP_0.db
    status          = startup
    nproc           =        8
    time left       =     -1s



           Memory information
           ------------------

    heap     =   26214396 doubles =    200.0 Mbytes
    stack    =   26214401 doubles =    200.0 Mbytes
    global   =   52428800 doubles =    400.0 Mbytes (distinct from heap & stack)
    total    =  104857597 doubles =    800.0 Mbytes
    verify   = yes
    hardfail = no 


           Directory information
           ---------------------

  0 permanent = .
  0 scratch   = .




                                NWChem Input Module
                                -------------------



 Scaling coordinates for geometry "geometry" by  1.889725989
 (inverse scale =  0.529177249)

 C1  symmetry detected

          ------
          auto-z
          ------
  no constraints, skipping    0.0000000000000000     
  no constraints, skipping    0.0000000000000000     


                             Geometry "geometry" -> ""
                             -------------------------

 Output coordinates in angstroms (scale by  1.889725989 to convert to a.u.)

  No.       Tag          Charge          X              Y              Z
 ---- ---------------- ---------- -------------- -------------- --------------
    1 H                    1.0000    -0.41250384     1.41385532     3.54254124
    2 C                    6.0000    -0.84831467     1.79916493     2.62171909
    3 H                    1.0000    -0.06469667     2.22712430     2.00016329
    4 H                    1.0000    -1.58860332     2.56064877     2.85857575
    5 C                    6.0000    -1.51376760     0.66785932     1.87718300
    6 O                    8.0000    -1.48401791    -0.46949112     2.33404723
    7 N                    7.0000    -2.08341635     0.97105891     0.71229660
    8 H                    1.0000    -1.98381700     1.91926739     0.38535981
    9 C                    6.0000    -2.83061143     0.04346893    -0.15460439
   10 H                    1.0000    -3.52375617    -0.50990270     0.47945571
   11 C                    6.0000    -3.66524981     0.88495068    -1.13270266
   12 H                    1.0000    -4.29257811     1.58638124    -0.58093878
   13 H                    1.0000    -3.00850053     1.43502935    -1.80740173
   14 H                    1.0000    -4.30854687     0.23134041    -1.72286493
   15 C                    6.0000    -1.95840594    -1.02430930    -0.87017776
   16 O                    8.0000    -2.25782140    -1.44793048    -1.98277134
   17 N                    7.0000    -0.85689909    -1.42937294    -0.23918243
   18 H                    1.0000    -0.70296649    -1.02794380     0.67525150
   19 C                    6.0000     0.16827229    -2.35161386    -0.74044217
   20 H                    1.0000    -0.30445519    -3.10305010    -1.37511398
   21 C                    6.0000     1.17431396    -1.55707411    -1.59013726
   22 H                    1.0000     1.96217235    -2.22773157    -1.93520062
   23 H                    1.0000     0.65839848    -1.18965189    -2.47760846
   24 C                    6.0000     1.79999129    -0.38284966    -0.89556990
   25 C                    6.0000     2.90451526    -0.43217052    -0.11834197
   26 H                    1.0000     3.48312483    -1.33156578     0.06832388
   27 N                    7.0000     3.15611542     0.81965766     0.40983750
   28 H                    1.0000     3.94168906     1.01763497     1.01334065
   29 C                    6.0000     2.21348578     1.74095741     0.00534012
   30 C                    6.0000     2.02860199     3.10544947     0.27325316
   31 H                    1.0000     2.71791072     3.63370846     0.91344525
   32 C                    6.0000     0.94066687     3.77615250    -0.31403264
   33 H                    1.0000     0.79136233     4.83218368    -0.12895076
   34 C                    6.0000     0.05949466     3.07845723    -1.16006388
   35 H                    1.0000    -0.76109030     3.60334870    -1.62975769
   36 C                    6.0000     0.25768209     1.70802391    -1.42331706
   37 H                    1.0000    -0.40872889     1.18363508    -2.09240059
   38 C                    6.0000     1.33352751     1.00122220    -0.84110319
   39 C                    6.0000     0.88132188    -3.10734356     0.40119126
   40 O                    8.0000     1.84260784    -3.83145586     0.17205227
   41 N                    7.0000     0.45771577    -2.95456582     1.65341881
   42 H                    1.0000     0.93935447    -3.45620187     2.38007102
   43 H                    1.0000    -0.32767206    -2.35660847     1.86332822

      Atomic Mass 
      ----------- 

      H                  1.007825
      C                 12.000000
      O                 15.994910
      N                 14.003070


 Effective nuclear repulsion energy (a.u.)    2077.1100941835

            Nuclear Dipole moment (a.u.) 
            ----------------------------
        X                 Y               Z
 ---------------- ---------------- ----------------
    -0.0000000000     0.0000000000     0.0000000000



                                Z-matrix (autoz)
                                -------- 

 Units are Angstrom for bonds and degrees for angles

      Type          Name      I     J     K     L     M      Value
      ----------- --------  ----- ----- ----- ----- ----- ----------
    1 Stretch                  1     2                       1.08918
    2 Stretch                  2     3                       1.08791
    3 Stretch                  2     4                       1.08811
    4 Stretch                  2     5                       1.50898
    5 Stretch                  5     6                       1.22604
    6 Stretch                  5     7                       1.33169
    7 Stretch                  7     8                       1.00792
    8 Stretch                  7     9                       1.47317
    9 Stretch                  9    10                       1.09028
   10 Stretch                  9    11                       1.53668
   11 Stretch                  9    15                       1.55336
   12 Stretch                 11    12                       1.09087
   13 Stretch                 11    13                       1.09047
   14 Stretch                 11    14                       1.09056
   15 Stretch                 15    16                       1.22759
   16 Stretch                 15    17                       1.33250
   17 Stretch                 17    18                       1.01046
   18 Stretch                 17    19                       1.46723
   19 Stretch                 19    20                       1.09130
   20 Stretch                 19    21                       1.53798
   21 Stretch                 19    39                       1.54366
   22 Stretch                 21    22                       1.09067
   23 Stretch                 21    23                       1.09031
   24 Stretch                 21    24                       1.50090
   25 Stretch                 24    25                       1.35148
   26 Stretch                 24    38                       1.46158
   27 Stretch                 25    26                       1.08561
   28 Stretch                 25    27                       1.38179
   29 Stretch                 27    28                       1.01022
   30 Stretch                 27    29                       1.37875
   31 Stretch                 29    30                       1.40278
   32 Stretch                 29    38                       1.42759
   33 Stretch                 30    31                       1.07891
   34 Stretch                 30    32                       1.40654
   35 Stretch                 32    33                       1.08247
   36 Stretch                 32    34                       1.40677
   37 Stretch                 34    35                       1.08143
   38 Stretch                 34    36                       1.40949
   39 Stretch                 36    37                       1.08017
   40 Stretch                 36    38                       1.41279
   41 Stretch                 39    40                       1.22512
   42 Stretch                 39    41                       1.33074
   43 Stretch                 41    42                       1.00580
   44 Stretch                 41    43                       1.00918
   45 Bend                     1     2     3               109.51000
   46 Bend                     1     2     4               109.61903
   47 Bend                     1     2     5               109.16999
   48 Bend                     2     5     6               120.06109
   49 Bend                     2     5     7               116.71477
   50 Bend                     3     2     4               109.82335
   51 Bend                     3     2     5               109.30970
   52 Bend                     4     2     5               109.39278
   53 Bend                     5     7     8               117.10743
   54 Bend                     5     7     9               126.04023
   55 Bend                     6     5     7               123.19909
   56 Bend                     7     9    10               107.44635
   57 Bend                     7     9    11               107.77261
   58 Bend                     7     9    15               114.77851
   59 Bend                     8     7     9               116.84601
   60 Bend                     9    11    12               110.02987
   61 Bend                     9    11    13               110.05569
   62 Bend                     9    11    14               109.67224
   63 Bend                     9    15    16               121.18259
   64 Bend                     9    15    17               117.06344
   65 Bend                    10     9    11               107.62538
   66 Bend                    10     9    15               106.02059
   67 Bend                    11     9    15               112.84119
   68 Bend                    12    11    13               109.56888
   69 Bend                    12    11    14               108.65495
   70 Bend                    13    11    14               108.83018
   71 Bend                    15    17    18               115.70297
   72 Bend                    15    17    19               127.36452
   73 Bend                    16    15    17               121.72934
   74 Bend                    17    19    20               109.19759
   75 Bend                    17    19    21               108.72783
   76 Bend                    17    19    39               112.19817
   77 Bend                    18    17    19               116.90026
   78 Bend                    19    21    22               109.24699
   79 Bend                    19    21    23               108.31627
   80 Bend                    19    21    24               114.90966
   81 Bend                    19    39    40               120.89618
   82 Bend                    19    39    41               119.51712
   83 Bend                    20    19    21               108.52834
   84 Bend                    20    19    39               107.04371
   85 Bend                    21    19    39               111.06020
   86 Bend                    21    24    25               125.32960
   87 Bend                    21    24    38               128.68671
   88 Bend                    22    21    23               106.94805
   89 Bend                    22    21    24               109.04718
   90 Bend                    23    21    24               108.07659
   91 Bend                    24    25    26               124.38221
   92 Bend                    24    25    27               109.60751
   93 Bend                    24    38    29               108.42519
   94 Bend                    24    38    36               134.54215
   95 Bend                    25    24    38               105.90008
   96 Bend                    25    27    28               123.19478
   97 Bend                    25    27    29               111.63762
   98 Bend                    26    25    27               125.99949
   99 Bend                    27    29    30               133.16085
  100 Bend                    27    29    38               104.42547
  101 Bend                    28    27    29               125.16710
  102 Bend                    29    30    31               120.35647
  103 Bend                    29    30    32               119.07995
  104 Bend                    29    38    36               117.03246
  105 Bend                    30    29    38               122.41368
  106 Bend                    30    32    33               120.03263
  107 Bend                    30    32    34               119.94095
  108 Bend                    31    30    32               120.56089
  109 Bend                    32    34    35               119.72106
  110 Bend                    32    34    36               120.42834
  111 Bend                    33    32    34               120.01792
  112 Bend                    34    36    37               120.06350
  113 Bend                    34    36    38               121.09967
  114 Bend                    35    34    36               119.83429
  115 Bend                    37    36    38               118.82934
  116 Bend                    39    41    42               118.04377
  117 Bend                    39    41    43               120.76293
  118 Bend                    40    39    41               119.57945
  119 Bend                    42    41    43               121.19221
  120 Torsion                  1     2     5     6          -0.87014
  121 Torsion                  1     2     5     7        -179.10748
  122 Torsion                  2     5     7     8           3.47183
  123 Torsion                  2     5     7     9        -177.47648
  124 Torsion                  3     2     5     6         118.89627
  125 Torsion                  3     2     5     7         -59.34107
  126 Torsion                  4     2     5     6        -120.81953
  127 Torsion                  4     2     5     7          60.94313
  128 Torsion                  5     7     9    10          46.73321
  129 Torsion                  5     7     9    11         162.45709
  130 Torsion                  5     7     9    15         -70.89258
  131 Torsion                  6     5     7     8        -174.70500
  132 Torsion                  6     5     7     9           4.34669
  133 Torsion                  7     9    11    12         -54.82637
  134 Torsion                  7     9    11    13          66.01132
  135 Torsion                  7     9    11    14        -174.29170
  136 Torsion                  7     9    15    16        -147.80535
  137 Torsion                  7     9    15    17          30.41999
  138 Torsion                  8     7     9    10        -134.21290
  139 Torsion                  8     7     9    11         -18.48902
  140 Torsion                  8     7     9    15         108.16131
  141 Torsion                  9    15    17    18           2.28073
  142 Torsion                  9    15    17    19        -175.57441
  143 Torsion                 10     9    11    12          60.77978
  144 Torsion                 10     9    11    13        -178.38253
  145 Torsion                 10     9    11    14         -58.68554
  146 Torsion                 10     9    15    16          93.76361
  147 Torsion                 10     9    15    17         -88.01106
  148 Torsion                 11     9    15    16         -23.80271
  149 Torsion                 11     9    15    17         154.42262
  150 Torsion                 12    11     9    15         177.39754
  151 Torsion                 13    11     9    15         -61.76477
  152 Torsion                 14    11     9    15          57.93221
  153 Torsion                 15    17    19    20         -33.80020
  154 Torsion                 15    17    19    21          84.45120
  155 Torsion                 15    17    19    39        -152.30845
  156 Torsion                 16    15    17    18        -179.50433
  157 Torsion                 16    15    17    19           2.64053
  158 Torsion                 17    19    21    22         177.81372
  159 Torsion                 17    19    21    23         -66.02989
  160 Torsion                 17    19    21    24          54.90744
  161 Torsion                 17    19    39    40        -173.66865
  162 Torsion                 17    19    39    41           5.34844
  163 Torsion                 18    17    19    20         148.36694
  164 Torsion                 18    17    19    21         -93.38166
  165 Torsion                 18    17    19    39          29.85869
  166 Torsion                 19    21    24    25          86.47145
  167 Torsion                 19    21    24    38         -89.72422
  168 Torsion                 19    39    41    42        -179.90024
  169 Torsion                 19    39    41    43           0.47351
  170 Torsion                 20    19    21    22         -63.51310
  171 Torsion                 20    19    21    23          52.64329
  172 Torsion                 20    19    21    24         173.58062
  173 Torsion                 20    19    39    40          66.55873
  174 Torsion                 20    19    39    41        -114.42418
  175 Torsion                 21    19    39    40         -51.74922
  176 Torsion                 21    19    39    41         127.26787
  177 Torsion                 21    24    25    26           1.83241
  178 Torsion                 21    24    25    27        -177.03339
  179 Torsion                 21    24    38    29         176.48718
  180 Torsion                 21    24    38    36          -3.68213
  181 Torsion                 22    21    19    39          53.89369
  182 Torsion                 22    21    24    25         -36.54182
  183 Torsion                 22    21    24    38         147.26251
  184 Torsion                 23    21    19    39         170.05008
  185 Torsion                 23    21    24    25        -152.46011
  186 Torsion                 23    21    24    38          31.34422
  187 Torsion                 24    21    19    39         -69.01259
  188 Torsion                 24    25    27    28        -179.24336
  189 Torsion                 24    25    27    29           0.51010
  190 Torsion                 24    38    29    27           0.56805
  191 Torsion                 24    38    29    30        -179.41962
  192 Torsion                 24    38    36    34         179.35331
  193 Torsion                 24    38    36    37          -1.64146
  194 Torsion                 25    24    38    29          -0.28630
  195 Torsion                 25    24    38    36         179.54439
  196 Torsion                 25    27    29    30         179.32513
  197 Torsion                 25    27    29    38          -0.66060
  198 Torsion                 26    25    24    38         178.74548
  199 Torsion                 26    25    27    28           1.91365
  200 Torsion                 26    25    27    29        -178.33289
  201 Torsion                 27    25    24    38          -0.12031
  202 Torsion                 27    29    30    31           0.39834
  203 Torsion                 27    29    30    32         179.80581
  204 Torsion                 27    29    38    36        -179.29648
  205 Torsion                 28    27    29    30          -0.92725
  206 Torsion                 28    27    29    38         179.08703
  207 Torsion                 29    30    32    33        -179.14213
  208 Torsion                 29    30    32    34          -0.20250
  209 Torsion                 29    38    36    34          -0.82703
  210 Torsion                 29    38    36    37         178.17821
  211 Torsion                 30    29    38    36           0.71586
  212 Torsion                 30    32    34    35        -178.44339
  213 Torsion                 30    32    34    36           0.08562
  214 Torsion                 31    30    29    38        -179.61804
  215 Torsion                 31    30    32    33           0.26409
  216 Torsion                 31    30    32    34         179.20372
  217 Torsion                 32    30    29    38          -0.21057
  218 Torsion                 32    34    36    37        -178.54199
  219 Torsion                 32    34    36    38           0.45107
  220 Torsion                 33    32    34    35           0.49640
  221 Torsion                 33    32    34    36         179.02541
  222 Torsion                 35    34    36    37          -0.01464
  223 Torsion                 35    34    36    38         178.97842
  224 Torsion                 40    39    41    42          -0.87007
  225 Torsion                 40    39    41    43         179.50368


            XYZ format geometry
            -------------------
    43
 geometry
 H                    -0.41250384     1.41385532     3.54254124
 C                    -0.84831467     1.79916493     2.62171909
 H                    -0.06469667     2.22712430     2.00016329
 H                    -1.58860332     2.56064877     2.85857575
 C                    -1.51376760     0.66785932     1.87718300
 O                    -1.48401791    -0.46949112     2.33404723
 N                    -2.08341635     0.97105891     0.71229660
 H                    -1.98381700     1.91926739     0.38535981
 C                    -2.83061143     0.04346893    -0.15460439
 H                    -3.52375617    -0.50990270     0.47945571
 C                    -3.66524981     0.88495068    -1.13270266
 H                    -4.29257811     1.58638124    -0.58093878
 H                    -3.00850053     1.43502935    -1.80740173
 H                    -4.30854687     0.23134041    -1.72286493
 C                    -1.95840594    -1.02430930    -0.87017776
 O                    -2.25782140    -1.44793048    -1.98277134
 N                    -0.85689909    -1.42937294    -0.23918243
 H                    -0.70296649    -1.02794380     0.67525150
 C                     0.16827229    -2.35161386    -0.74044217
 H                    -0.30445519    -3.10305010    -1.37511398
 C                     1.17431396    -1.55707411    -1.59013726
 H                     1.96217235    -2.22773157    -1.93520062
 H                     0.65839848    -1.18965189    -2.47760846
 C                     1.79999129    -0.38284966    -0.89556990
 C                     2.90451526    -0.43217052    -0.11834197
 H                     3.48312483    -1.33156578     0.06832388
 N                     3.15611542     0.81965766     0.40983750
 H                     3.94168906     1.01763497     1.01334065
 C                     2.21348578     1.74095741     0.00534012
 C                     2.02860199     3.10544947     0.27325316
 H                     2.71791072     3.63370846     0.91344525
 C                     0.94066687     3.77615250    -0.31403264
 H                     0.79136233     4.83218368    -0.12895076
 C                     0.05949466     3.07845723    -1.16006388
 H                    -0.76109030     3.60334870    -1.62975769
 C                     0.25768209     1.70802391    -1.42331706
 H                    -0.40872889     1.18363508    -2.09240059
 C                     1.33352751     1.00122220    -0.84110319
 C                     0.88132188    -3.10734356     0.40119126
 O                     1.84260784    -3.83145586     0.17205227
 N                     0.45771577    -2.95456582     1.65341881
 H                     0.93935447    -3.45620187     2.38007102
 H                    -0.32767206    -2.35660847     1.86332822

 ==============================================================================
                                internuclear distances
 ------------------------------------------------------------------------------
       center one      |      center two      | atomic units |  angstroms
 ------------------------------------------------------------------------------
    2 C                |   1 H                |     2.05825  |     1.08918
    3 H                |   2 C                |     2.05584  |     1.08791
    4 H                |   2 C                |     2.05623  |     1.08811
    5 C                |   2 C                |     2.85155  |     1.50898
    6 O                |   5 C                |     2.31688  |     1.22604
    7 N                |   5 C                |     2.51652  |     1.33169
    8 H                |   7 N                |     1.90470  |     1.00792
    9 C                |   7 N                |     2.78389  |     1.47317
   10 H                |   9 C                |     2.06032  |     1.09028
   11 C                |   9 C                |     2.90391  |     1.53668
   12 H                |  11 C                |     2.06144  |     1.09087
   13 H                |  11 C                |     2.06069  |     1.09047
   14 H                |  11 C                |     2.06087  |     1.09056
   15 C                |   9 C                |     2.93543  |     1.55336
   16 O                |  15 C                |     2.31980  |     1.22759
   17 N                |  15 C                |     2.51805  |     1.33250
   18 H                |  17 N                |     1.90949  |     1.01046
   19 C                |  17 N                |     2.77266  |     1.46723
   20 H                |  19 C                |     2.06226  |     1.09130
   21 C                |  19 C                |     2.90637  |     1.53798
   22 H                |  21 C                |     2.06108  |     1.09067
   23 H                |  21 C                |     2.06038  |     1.09031
   24 C                |  21 C                |     2.83629  |     1.50090
   25 C                |  24 C                |     2.55392  |     1.35148
   26 H                |  25 C                |     2.05150  |     1.08561
   27 N                |  25 C                |     2.61121  |     1.38179
   28 H                |  27 N                |     1.90903  |     1.01022
   29 C                |  27 N                |     2.60547  |     1.37875
   30 C                |  29 C                |     2.65087  |     1.40278
   31 H                |  30 C                |     2.03885  |     1.07891
   32 C                |  30 C                |     2.65797  |     1.40654
   33 H                |  32 C                |     2.04558  |     1.08247
   34 C                |  32 C                |     2.65842  |     1.40677
   35 H                |  34 C                |     2.04360  |     1.08143
   36 C                |  34 C                |     2.66355  |     1.40949
   37 H                |  36 C                |     2.04122  |     1.08017
   38 C                |  24 C                |     2.76198  |     1.46158
   38 C                |  29 C                |     2.69775  |     1.42759
   38 C                |  36 C                |     2.66979  |     1.41279
   39 C                |  19 C                |     2.91710  |     1.54366
   40 O                |  39 C                |     2.31514  |     1.22512
   41 N                |  39 C                |     2.51473  |     1.33074
   42 H                |  41 N                |     1.90069  |     1.00580
   43 H                |  41 N                |     1.90708  |     1.00918
 ------------------------------------------------------------------------------
                         number of included internuclear distances:         44
 ==============================================================================



 ==============================================================================
                                 internuclear angles
 ------------------------------------------------------------------------------
        center 1       |       center 2       |       center 3       |  degrees
 ------------------------------------------------------------------------------
    1 H                |   2 C                |   3 H                |   109.51
    1 H                |   2 C                |   4 H                |   109.62
    1 H                |   2 C                |   5 C                |   109.17
    3 H                |   2 C                |   4 H                |   109.82
    3 H                |   2 C                |   5 C                |   109.31
    4 H                |   2 C                |   5 C                |   109.39
    2 C                |   5 C                |   6 O                |   120.06
    2 C                |   5 C                |   7 N                |   116.71
    6 O                |   5 C                |   7 N                |   123.20
    5 C                |   7 N                |   8 H                |   117.11
    5 C                |   7 N                |   9 C                |   126.04
    8 H                |   7 N                |   9 C                |   116.85
    7 N                |   9 C                |  10 H                |   107.45
    7 N                |   9 C                |  11 C                |   107.77
    7 N                |   9 C                |  15 C                |   114.78
   10 H                |   9 C                |  11 C                |   107.63
   10 H                |   9 C                |  15 C                |   106.02
   11 C                |   9 C                |  15 C                |   112.84
    9 C                |  11 C                |  12 H                |   110.03
    9 C                |  11 C                |  13 H                |   110.06
    9 C                |  11 C                |  14 H                |   109.67
   12 H                |  11 C                |  13 H                |   109.57
   12 H                |  11 C                |  14 H                |   108.65
   13 H                |  11 C                |  14 H                |   108.83
    9 C                |  15 C                |  16 O                |   121.18
    9 C                |  15 C                |  17 N                |   117.06
   16 O                |  15 C                |  17 N                |   121.73
   15 C                |  17 N                |  18 H                |   115.70
   15 C                |  17 N                |  19 C                |   127.36
   18 H                |  17 N                |  19 C                |   116.90
   17 N                |  19 C                |  20 H                |   109.20
   17 N                |  19 C                |  21 C                |   108.73
   17 N                |  19 C                |  39 C                |   112.20
   20 H                |  19 C                |  21 C                |   108.53
   20 H                |  19 C                |  39 C                |   107.04
   21 C                |  19 C                |  39 C                |   111.06
   19 C                |  21 C                |  22 H                |   109.25
   19 C                |  21 C                |  23 H                |   108.32
   19 C                |  21 C                |  24 C                |   114.91
   22 H                |  21 C                |  23 H                |   106.95
   22 H                |  21 C                |  24 C                |   109.05
   23 H                |  21 C                |  24 C                |   108.08
   21 C                |  24 C                |  25 C                |   125.33
   21 C                |  24 C                |  38 C                |   128.69
   25 C                |  24 C                |  38 C                |   105.90
   24 C                |  25 C                |  26 H                |   124.38
   24 C                |  25 C                |  27 N                |   109.61
   26 H                |  25 C                |  27 N                |   126.00
   25 C                |  27 N                |  28 H                |   123.19
   25 C                |  27 N                |  29 C                |   111.64
   28 H                |  27 N                |  29 C                |   125.17
   27 N                |  29 C                |  30 C                |   133.16
   27 N                |  29 C                |  38 C                |   104.43
   30 C                |  29 C                |  38 C                |   122.41
   29 C                |  30 C                |  31 H                |   120.36
   29 C                |  30 C                |  32 C                |   119.08
   31 H                |  30 C                |  32 C                |   120.56
   30 C                |  32 C                |  33 H                |   120.03
   30 C                |  32 C                |  34 C                |   119.94
   33 H                |  32 C                |  34 C                |   120.02
   32 C                |  34 C                |  35 H                |   119.72
   32 C                |  34 C                |  36 C                |   120.43
   35 H                |  34 C                |  36 C                |   119.83
   34 C                |  36 C                |  37 H                |   120.06
   34 C                |  36 C                |  38 C                |   121.10
   37 H                |  36 C                |  38 C                |   118.83
   24 C                |  38 C                |  29 C                |   108.43
   24 C                |  38 C                |  36 C                |   134.54
   29 C                |  38 C                |  36 C                |   117.03
   19 C                |  39 C                |  40 O                |   120.90
   19 C                |  39 C                |  41 N                |   119.52
   40 O                |  39 C                |  41 N                |   119.58
   39 C                |  41 N                |  42 H                |   118.04
   39 C                |  41 N                |  43 H                |   120.76
   42 H                |  41 N                |  43 H                |   121.19
 ------------------------------------------------------------------------------
                            number of included internuclear angles:         75
 ==============================================================================



  library name resolved from: environment
  library file name is: </opt/rit/el9/20230413/app/linux-rhel9-x86_64_v3/gcc-11.2.1/nwchem-7.2.0-oxtctbuhfuzyfaoziquq6bki22grib3g/share/nwchem/libraries/>
  


 Summary of "ao basis" -> "" (cartesian)
 ------------------------------------------------------------------------------
       Tag                 Description            Shells   Functions and Types
 ---------------- ------------------------------  ------  ---------------------
 *                        aug-cc-pvdz                 on all atoms 


                      Basis "ao basis" -> "ao basis" (cartesian)
                      -----
  H (Hydrogen)
  ------------
            Exponent  Coefficients 
       -------------- ---------------------------------------------------------
  1 S  1.30100000E+01  0.019685
  1 S  1.96200000E+00  0.137977
  1 S  4.44600000E-01  0.478148

  2 S  1.22000000E-01  1.000000

  3 S  2.97400000E-02  1.000000

  4 P  7.27000000E-01  1.000000

  5 P  1.41000000E-01  1.000000

  C (Carbon)
  ----------
            Exponent  Coefficients 
       -------------- ---------------------------------------------------------
  1 S  6.66500000E+03  0.000692
  1 S  1.00000000E+03  0.005329
  1 S  2.28000000E+02  0.027077
  1 S  6.47100000E+01  0.101718
  1 S  2.10600000E+01  0.274740
  1 S  7.49500000E+00  0.448564
  1 S  2.79700000E+00  0.285074
  1 S  5.21500000E-01  0.015204

  2 S  6.66500000E+03 -0.000146
  2 S  1.00000000E+03 -0.001154
  2 S  2.28000000E+02 -0.005725
  2 S  6.47100000E+01 -0.023312
  2 S  2.10600000E+01 -0.063955
  2 S  7.49500000E+00 -0.149981
  2 S  2.79700000E+00 -0.127262
  2 S  5.21500000E-01  0.544529

  3 S  1.59600000E-01  1.000000

  4 S  4.69000000E-02  1.000000

  5 P  9.43900000E+00  0.038109
  5 P  2.00200000E+00  0.209480
  5 P  5.45600000E-01  0.508557

  6 P  1.51700000E-01  1.000000

  7 P  4.04100000E-02  1.000000

  8 D  5.50000000E-01  1.000000

  9 D  1.51000000E-01  1.000000

  O (Oxygen)
  ----------
            Exponent  Coefficients 
       -------------- ---------------------------------------------------------
  1 S  1.17200000E+04  0.000710
  1 S  1.75900000E+03  0.005470
  1 S  4.00800000E+02  0.027837
  1 S  1.13700000E+02  0.104800
  1 S  3.70300000E+01  0.283062
  1 S  1.32700000E+01  0.448719
  1 S  5.02500000E+00  0.270952
  1 S  1.01300000E+00  0.015458

  2 S  1.17200000E+04 -0.000160
  2 S  1.75900000E+03 -0.001263
  2 S  4.00800000E+02 -0.006267
  2 S  1.13700000E+02 -0.025716
  2 S  3.70300000E+01 -0.070924
  2 S  1.32700000E+01 -0.165411
  2 S  5.02500000E+00 -0.116955
  2 S  1.01300000E+00  0.557368

  3 S  3.02300000E-01  1.000000

  4 S  7.89600000E-02  1.000000

  5 P  1.77000000E+01  0.043018
  5 P  3.85400000E+00  0.228913
  5 P  1.04600000E+00  0.508728

  6 P  2.75300000E-01  1.000000

  7 P  6.85600000E-02  1.000000

  8 D  1.18500000E+00  1.000000

  9 D  3.32000000E-01  1.000000

  N (Nitrogen)
  ------------
            Exponent  Coefficients 
       -------------- ---------------------------------------------------------
  1 S  9.04600000E+03  0.000700
  1 S  1.35700000E+03  0.005389
  1 S  3.09300000E+02  0.027406
  1 S  8.77300000E+01  0.103207
  1 S  2.85600000E+01  0.278723
  1 S  1.02100000E+01  0.448540
  1 S  3.83800000E+00  0.278238
  1 S  7.46600000E-01  0.015440

  2 S  9.04600000E+03 -0.000153
  2 S  1.35700000E+03 -0.001208
  2 S  3.09300000E+02 -0.005992
  2 S  8.77300000E+01 -0.024544
  2 S  2.85600000E+01 -0.067459
  2 S  1.02100000E+01 -0.158078
  2 S  3.83800000E+00 -0.121831
  2 S  7.46600000E-01  0.549003

  3 S  2.24800000E-01  1.000000

  4 S  6.12400000E-02  1.000000

  5 P  1.35500000E+01  0.039919
  5 P  2.91700000E+00  0.217169
  5 P  7.97300000E-01  0.510319

  6 P  2.18500000E-01  1.000000

  7 P  5.61100000E-02  1.000000

  8 D  8.17000000E-01  1.000000

  9 D  2.30000000E-01  1.000000



 Summary of "ao basis" -> "ao basis" (cartesian)
 ------------------------------------------------------------------------------
       Tag                 Description            Shells   Functions and Types
 ---------------- ------------------------------  ------  ---------------------
 H                        aug-cc-pvdz                5        9   3s2p
 C                        aug-cc-pvdz                9       25   4s3p2d
 O                        aug-cc-pvdz                9       25   4s3p2d
 N                        aug-cc-pvdz                9       25   4s3p2d


                                 NWChem SCF Module
                                 -----------------



  ao basis        = "ao basis"
  functions       =   755
  atoms           =    43
  closed shells   =    84
  open shells     =     0
  charge          =   0.00
  wavefunction    = RHF 
  input vectors   = atomic
  output vectors  = ./ALA_TRP_0.movecs
  use symmetry    = F
  symmetry adapt  = F


 Summary of "ao basis" -> "ao basis" (cartesian)
 ------------------------------------------------------------------------------
       Tag                 Description            Shells   Functions and Types
 ---------------- ------------------------------  ------  ---------------------
 H                        aug-cc-pvdz                5        9   3s2p
 C                        aug-cc-pvdz                9       25   4s3p2d
 O                        aug-cc-pvdz                9       25   4s3p2d
 N                        aug-cc-pvdz                9       25   4s3p2d



 Forming initial guess at       2.2s


 !! The overlap matrix has  20 vectors deemed linearly dependent with
    eigenvalues:
 2.30D-07 6.56D-07 1.10D-06 1.31D-06 1.45D-06 1.86D-06 1.93D-06 2.42D-06
 3.01D-06 3.22D-06 4.20D-06 4.59D-06 4.90D-06 5.88D-06 6.04D-06 7.34D-06
 7.70D-06 7.99D-06 9.28D-06 9.79D-06


      Superposition of Atomic Density Guess
      -------------------------------------

 Sum of atomic energies:       -1054.17033381

      Non-variational initial energy
      ------------------------------

 Total energy =   -1070.204858
 1-e energy   =   -5560.069349
 2-e energy   =    2412.754396
 HOMO         =      -0.234152
 LUMO         =      -0.032587


 Starting SCF solution at     547.6s



 ----------------------------------------------
         Quadratically convergent ROHF

 Convergence threshold     :          1.000E-04
 Maximum no. of iterations :           30
 Final Fock-matrix accuracy:          1.000E-10
 ----------------------------------------------


              iter       energy          gnorm     gmax       time
             ----- ------------------- --------- --------- --------
                 1    -1059.6739176290  2.57D+00  1.06D-01   1133.0
                 2    -1060.0441500450  9.69D-01  4.98D-02   2257.2
                 3    -1060.1234892431  7.01D-02  3.97D-03   3919.4
                 4    -1060.1241901853  2.36D-03  1.93D-04   6712.2
                 5    -1060.1241912101  7.90D-06  7.76D-07  11144.0


       Final RHF  results 
       ------------------ 

         Total SCF energy =  -1060.124191210107
      One-electron energy =  -5575.963482584850
      Two-electron energy =   2438.729197191275
 Nuclear repulsion energy =   2077.110094183468

        Time for solution =  10610.0s


             Final eigenvalues
             -----------------

              1      
    1  -20.5479
    2  -20.5265
    3  -20.5191
    4  -15.6213
    5  -15.6140
    6  -15.5887
    7  -15.5884
    8  -11.3755
    9  -11.3597
   10  -11.3564
   11  -11.3079
   12  -11.2935
   13  -11.2914
   14  -11.2795
   15  -11.2582
   16  -11.2567
   17  -11.2565
   18  -11.2499
   19  -11.2492
   20  -11.2483
   21  -11.2459
   22  -11.2390
   23  -11.2349
   24   -1.4135
   25   -1.3866
   26   -1.3807
   27   -1.3074
   28   -1.2644
   29   -1.2456
   30   -1.2083
   31   -1.1425
   32   -1.0953
   33   -1.0691
   34   -1.0329
   35   -1.0111
   36   -1.0025
   37   -0.9917
   38   -0.9179
   39   -0.8873
   40   -0.8584
   41   -0.8248
   42   -0.8206
   43   -0.8020
   44   -0.7975
   45   -0.7591
   46   -0.7508
   47   -0.7314
   48   -0.7128
   49   -0.6971
   50   -0.6893
   51   -0.6825
   52   -0.6717
   53   -0.6620
   54   -0.6445
   55   -0.6276
   56   -0.6209
   57   -0.6160
   58   -0.6031
   59   -0.6028
   60   -0.5938
   61   -0.5884
   62   -0.5831
   63   -0.5813
   64   -0.5757
   65   -0.5634
   66   -0.5574
   67   -0.5479
   68   -0.5412
   69   -0.5358
   70   -0.5330
   71   -0.5215
   72   -0.5104
   73   -0.5010
   74   -0.4850
   75   -0.4783
   76   -0.4524
   77   -0.4428
   78   -0.4273
   79   -0.4077
   80   -0.4015
   81   -0.3904
   82   -0.3834
   83   -0.3165
   84   -0.2938
   85    0.0222
   86    0.0287
   87    0.0368
   88    0.0412
   89    0.0467
   90    0.0495
   91    0.0533
   92    0.0545
   93    0.0641
   94    0.0653

                       ROHF Final Molecular Orbital Analysis
                       -------------------------------------

 Vector   24  Occ=2.000000D+00  E=-1.413458D+00
              MO Center= -1.6D+00, -4.4D-02,  1.9D+00, r^2= 1.2D+00
   Bfn.  Coefficient  Atom+Function         Bfn.  Coefficient  Atom+Function  
  ----- ------------  ---------------      ----- ------------  ---------------
    80      0.359024   6 O  s                79      0.347139   6 O  s         
    54      0.239232   5 C  s                12      0.156468   2 C  s         

 Vector   25  Occ=2.000000D+00  E=-1.386611D+00
              MO Center= -1.1D+00, -1.9D+00, -8.5D-01, r^2= 5.0D+00
   Bfn.  Coefficient  Atom+Function         Bfn.  Coefficient  Atom+Function  
  ----- ------------  ---------------      ----- ------------  ---------------
   250      0.310392  16 O  s               249      0.291170  16 O  s         
   224      0.206891  15 C  s               690      0.187273  40 O  s         
   689      0.174467  40 O  s         

 Vector   26  Occ=2.000000D+00  E=-1.380698D+00
              MO Center=  4.9D-01, -2.9D+00, -1.2D-01, r^2= 4.9D+00
   Bfn.  Coefficient  Atom+Function         Bfn.  Coefficient  Atom+Function  
  ----- ------------  ---------------      ----- ------------  ---------------
   690      0.330612  40 O  s               689      0.304169  40 O  s         
   664      0.211551  39 C  s               250     -0.209223  16 O  s         
   249     -0.188164  16 O  s         

 Vector   27  Occ=2.000000D+00  E=-1.307395D+00
              MO Center=  2.8D+00,  7.7D-01,  1.3D-01, r^2= 1.3D+00
   Bfn.  Coefficient  Atom+Function         Bfn.  Coefficient  Atom+Function  
  ----- ------------  ---------------      ----- ------------  ---------------
   445      0.497624  27 N  s               444      0.332336  27 N  s         
   478      0.174356  29 C  s               410      0.161914  25 C  s         

 Vector   28  Occ=2.000000D+00  E=-1.264441D+00
              MO Center= -2.0D+00,  5.0D-01,  7.6D-01, r^2= 2.3D+00
   Bfn.  Coefficient  Atom+Function         Bfn.  Coefficient  Atom+Function  
  ----- ------------  ---------------      ----- ------------  ---------------
   105      0.365516   7 N  s               104      0.331441   7 N  s         
    80     -0.212064   6 O  s                79     -0.173690   6 O  s         
   128      0.150306   8 H  s         

 Vector   29  Occ=2.000000D+00  E=-1.245619D+00
              MO Center= -7.3D-01, -1.6D+00, -1.5D-01, r^2= 3.5D+00
   Bfn.  Coefficient  Atom+Function         Bfn.  Coefficient  Atom+Function  
  ----- ------------  ---------------      ----- ------------  ---------------
   275      0.346157  17 N  s               274      0.302117  17 N  s         
   250     -0.183191  16 O  s               309     -0.176189  19 C  s         
   105     -0.150766   7 N  s         

 Vector   30  Occ=2.000000D+00  E=-1.208278D+00
              MO Center=  3.6D-01, -2.8D+00,  1.1D+00, r^2= 2.6D+00
   Bfn.  Coefficient  Atom+Function         Bfn.  Coefficient  Atom+Function  
  ----- ------------  ---------------      ----- ------------  ---------------
   715      0.379778  41 N  s               714      0.350806  41 N  s         
   275     -0.194172  17 N  s               309     -0.184242  19 C  s         
   690     -0.184385  40 O  s               672     -0.161268  39 C  pz        
   689     -0.155069  40 O  s               747      0.155527  43 H  s         
   738      0.153555  42 H  s               669      0.150751  39 C  pz        

 Vector   31  Occ=2.000000D+00  E=-1.142467D+00
              MO Center=  1.2D+00,  2.4D+00, -5.5D-01, r^2= 2.9D+00
   Bfn.  Coefficient  Atom+Function         Bfn.  Coefficient  Atom+Function  
  ----- ------------  ---------------      ----- ------------  ---------------
   445      0.239234  27 N  s               537     -0.189073  32 C  s         
   571     -0.188554  34 C  s               605     -0.179555  36 C  s         
   503     -0.168118  30 C  s         

 Vector   32  Occ=2.000000D+00  E=-1.095300D+00
              MO Center=  1.3D+00, -2.8D-01, -6.7D-01, r^2= 5.3D+00
   Bfn.  Coefficient  Atom+Function         Bfn.  Coefficient  Atom+Function  
  ----- ------------  ---------------      ----- ------------  ---------------
   385      0.229227  24 C  s               342      0.196373  21 C  s         
   445     -0.157465  27 N  s         

 Vector   33  Occ=2.000000D+00  E=-1.069127D+00
              MO Center= -1.9D+00,  5.8D-01,  2.1D-01, r^2= 6.1D+00
   Bfn.  Coefficient  Atom+Function         Bfn.  Coefficient  Atom+Function  
  ----- ------------  ---------------      ----- ------------  ---------------
   138      0.232390   9 C  s               172      0.191070  11 C  s         
   225      0.169333  15 C  s         

 Vector   34  Occ=2.000000D+00  E=-1.032937D+00
              MO Center=  5.1D-01,  6.0D-02, -5.7D-01, r^2= 8.3D+00
   Bfn.  Coefficient  Atom+Function         Bfn.  Coefficient  Atom+Function  
  ----- ------------  ---------------      ----- ------------  ---------------
   308      0.192460  19 C  s               539     -0.167685  32 C  s         
   342      0.158396  21 C  s         

 Vector   35  Occ=2.000000D+00  E=-1.011120D+00
              MO Center=  1.4D+00,  2.1D+00, -4.7D-01, r^2= 4.2D+00
   Bfn.  Coefficient  Atom+Function         Bfn.  Coefficient  Atom+Function  
  ----- ------------  ---------------      ----- ------------  ---------------
   573      0.295363  34 C  s               505     -0.265775  30 C  s         
   571     -0.234336  34 C  s               478      0.212711  29 C  s         
   445     -0.169702  27 N  s               596     -0.162571  35 H  s         

 Vector   36  Occ=2.000000D+00  E=-1.002472D+00
              MO Center= -1.5D+00,  1.4D+00,  1.6D+00, r^2= 5.1D+00
   Bfn.  Coefficient  Atom+Function         Bfn.  Coefficient  Atom+Function  
  ----- ------------  ---------------      ----- ------------  ---------------
    11      0.314623   2 C  s                55      0.179006   5 C  s         
   172      0.162338  11 C  s         

 Vector   37  Occ=2.000000D+00  E=-9.916902D-01
              MO Center=  1.1D+00,  7.5D-01, -4.8D-01, r^2= 7.7D+00
   Bfn.  Coefficient  Atom+Function         Bfn.  Coefficient  Atom+Function  
  ----- ------------  ---------------      ----- ------------  ---------------
   410      0.176977  25 C  s               605     -0.165453  36 C  s         
   537      0.164288  32 C  s               539     -0.164208  32 C  s         

 Vector   38  Occ=2.000000D+00  E=-9.179490D-01
              MO Center=  3.9D-03, -7.2D-01, -7.3D-01, r^2= 8.5D+00
   Bfn.  Coefficient  Atom+Function         Bfn.  Coefficient  Atom+Function  
  ----- ------------  ---------------      ----- ------------  ---------------
   342      0.225392  21 C  s               139      0.220983   9 C  s         
   316     -0.197021  19 C  pz        

 Vector   39  Occ=2.000000D+00  E=-8.872568D-01
              MO Center= -1.6D+00, -3.9D-01, -3.5D-01, r^2= 9.0D+00
   Bfn.  Coefficient  Atom+Function         Bfn.  Coefficient  Atom+Function  
  ----- ------------  ---------------      ----- ------------  ---------------
   173      0.223764  11 C  s               172      0.206923  11 C  s         
   316     -0.179965  19 C  pz              138     -0.176772   9 C  s         
   139     -0.176453   9 C  s         

 Vector   40  Occ=2.000000D+00  E=-8.584194D-01
              MO Center=  1.6D+00,  1.8D+00, -3.9D-01, r^2= 5.5D+00
   Bfn.  Coefficient  Atom+Function         Bfn.  Coefficient  Atom+Function  
  ----- ------------  ---------------      ----- ------------  ---------------
   573      0.376841  34 C  s               630      0.242107  37 H  s         
   505     -0.197161  30 C  s               482      0.180898  29 C  py        
   503      0.175284  30 C  s               605      0.170338  36 C  s         
   435      0.165505  26 H  s               528      0.165416  31 H  s         
   539      0.162443  32 C  s               650      0.154336  38 C  pz        

 Vector   41  Occ=2.000000D+00  E=-8.247914D-01
              MO Center= -1.7D+00,  4.5D-01,  9.0D-01, r^2= 4.8D+00
   Bfn.  Coefficient  Atom+Function         Bfn.  Coefficient  Atom+Function  
  ----- ------------  ---------------      ----- ------------  ---------------
   109      0.273002   7 N  pz              128     -0.225299   8 H  s         
   139      0.215140   9 C  s                54      0.213147   5 C  s         
   105     -0.198766   7 N  s                62     -0.175545   5 C  pz        
    80     -0.176414   6 O  s               309      0.159308  19 C  s         
   108     -0.151486   7 N  py        

 Vector   42  Occ=2.000000D+00  E=-8.205935D-01
              MO Center=  1.4D+00,  1.9D+00, -4.8D-01, r^2= 5.5D+00
   Bfn.  Coefficient  Atom+Function         Bfn.  Coefficient  Atom+Function  
  ----- ------------  ---------------      ----- ------------  ---------------
   505      0.219673  30 C  s               445     -0.191472  27 N  s         
   537     -0.170720  32 C  s               639     -0.160605  38 C  s         
   609      0.159621  36 C  py              507     -0.155054  30 C  py        
   573     -0.154165  34 C  s         

 Vector   43  Occ=2.000000D+00  E=-8.020375D-01
              MO Center=  1.7D-01, -1.5D+00, -4.8D-03, r^2= 6.0D+00
   Bfn.  Coefficient  Atom+Function         Bfn.  Coefficient  Atom+Function  
  ----- ------------  ---------------      ----- ------------  ---------------
   225      0.272633  15 C  s               279     -0.231659  17 N  pz        
   298     -0.229688  18 H  s               275     -0.189118  17 N  s         
   719      0.178694  41 N  pz              738      0.160212  42 H  s         
   672     -0.155333  39 C  pz              299     -0.150032  18 H  s         

 Vector   44  Occ=2.000000D+00  E=-7.975347D-01
              MO Center= -5.6D-01, -1.5D+00,  5.3D-01, r^2= 6.6D+00
   Bfn.  Coefficient  Atom+Function         Bfn.  Coefficient  Atom+Function  
  ----- ------------  ---------------      ----- ------------  ---------------
   309      0.230887  19 C  s               719     -0.226522  41 N  pz        
   664      0.179184  39 C  s               672      0.170696  39 C  pz        
   277     -0.168382  17 N  px              747     -0.168829  43 H  s         
   128      0.157646   8 H  s               316      0.158035  19 C  pz        
   690     -0.155300  40 O  s         

 Vector   45  Occ=2.000000D+00  E=-7.590688D-01
              MO Center=  9.8D-01,  3.4D-01, -3.3D-01, r^2= 8.2D+00
   Bfn.  Coefficient  Atom+Function         Bfn.  Coefficient  Atom+Function  
  ----- ------------  ---------------      ----- ------------  ---------------
   225      0.194178  15 C  s               643     -0.174783  38 C  py        

 Vector   46  Occ=2.000000D+00  E=-7.507582D-01
              MO Center= -2.9D-01, -1.3D+00,  4.3D-01, r^2= 8.4D+00
   Bfn.  Coefficient  Atom+Function         Bfn.  Coefficient  Atom+Function  
  ----- ------------  ---------------      ----- ------------  ---------------
   747     -0.226392  43 H  s               145      0.207068   9 C  py        
   717      0.203110  41 N  px              669      0.191923  39 C  pz        
   300      0.182449  18 H  s               139     -0.168570   9 C  s         
   666     -0.159162  39 C  s         

 Vector   47  Occ=2.000000D+00  E=-7.313898D-01
              MO Center=  1.8D+00,  7.9D-01, -1.5D-01, r^2= 7.4D+00
   Bfn.  Coefficient  Atom+Function         Bfn.  Coefficient  Atom+Function  
  ----- ------------  ---------------      ----- ------------  ---------------
   468      0.259372  28 H  s               630     -0.233977  37 H  s         
   447      0.231500  27 N  px              449      0.188001  27 N  pz        
   646     -0.158550  38 C  py              484     -0.157285  29 C  px        
   624      0.153395  36 C  dxy             414     -0.151999  25 C  py        
   573     -0.151118  34 C  s         

 Vector   48  Occ=2.000000D+00  E=-7.127797D-01
              MO Center= -1.2D+00, -5.6D-01,  5.7D-01, r^2= 7.5D+00
   Bfn.  Coefficient  Atom+Function         Bfn.  Coefficient  Atom+Function  
  ----- ------------  ---------------      ----- ------------  ---------------
   225      0.306473  15 C  s               145      0.246073   9 C  py        
   139     -0.204914   9 C  s                55      0.180622   5 C  s         
   146      0.177233   9 C  pz              108     -0.168018   7 N  py        
   227      0.167882  15 C  px              277     -0.162098  17 N  px        
   143      0.158721   9 C  pz              738     -0.158542  42 H  s         

 Vector   49  Occ=2.000000D+00  E=-6.970521D-01
              MO Center= -4.4D-01, -9.7D-01,  1.2D+00, r^2= 8.8D+00
   Bfn.  Coefficient  Atom+Function         Bfn.  Coefficient  Atom+Function  
  ----- ------------  ---------------      ----- ------------  ---------------
   738      0.211436  42 H  s                83     -0.173266   6 O  py        
    59     -0.171726   5 C  pz              106     -0.165784   7 N  s         
   739      0.150484  42 H  s         

 Vector   50  Occ=2.000000D+00  E=-6.892862D-01
              MO Center= -1.1D+00, -8.5D-02,  8.6D-01, r^2= 7.8D+00
   Bfn.  Coefficient  Atom+Function         Bfn.  Coefficient  Atom+Function  
  ----- ------------  ---------------      ----- ------------  ---------------
    83      0.268522   6 O  py               80     -0.214188   6 O  s         

 Vector   51  Occ=2.000000D+00  E=-6.824680D-01
              MO Center=  9.6D-01,  9.7D-01, -1.3D-01, r^2= 9.5D+00
   Bfn.  Coefficient  Atom+Function         Bfn.  Coefficient  Atom+Function  
  ----- ------------  ---------------      ----- ------------  ---------------
   448      0.217732  27 N  py              646      0.215883  38 C  py        
   414     -0.194351  25 C  py              572     -0.188007  34 C  s         
   484      0.159654  29 C  px              561      0.153729  33 H  s         

 Vector   52  Occ=2.000000D+00  E=-6.717308D-01
              MO Center= -6.3D-01, -8.7D-01, -1.1D-02, r^2= 9.8D+00
   Bfn.  Coefficient  Atom+Function         Bfn.  Coefficient  Atom+Function  
  ----- ------------  ---------------      ----- ------------  ---------------
   314     -0.149838  19 C  px              315      0.140331  19 C  py        
   250     -0.139078  16 O  s               669      0.139035  39 C  pz        
   141      0.137466   9 C  px              277      0.137697  17 N  px        

 Vector   53  Occ=2.000000D+00  E=-6.619846D-01
              MO Center=  9.5D-01,  2.1D+00, -6.1D-01, r^2= 7.7D+00
   Bfn.  Coefficient  Atom+Function         Bfn.  Coefficient  Atom+Function  
  ----- ------------  ---------------      ----- ------------  ---------------
   595      0.217933  35 H  s               541      0.198970  32 C  py        
   575      0.198717  34 C  py              596      0.188608  35 H  s         
   434      0.165307  26 H  s               506      0.165979  30 C  px        
   573     -0.163839  34 C  s               574     -0.161243  34 C  px        

 Vector   54  Occ=2.000000D+00  E=-6.445253D-01
              MO Center= -2.8D-02, -1.4D+00, -1.6D-01, r^2= 8.5D+00
   Bfn.  Coefficient  Atom+Function         Bfn.  Coefficient  Atom+Function  
  ----- ------------  ---------------      ----- ------------  ---------------
   332      0.208286  20 H  s               311     -0.158586  19 C  px        
   693     -0.153259  40 O  py        

 Vector   55  Occ=2.000000D+00  E=-6.275727D-01
              MO Center= -8.2D-01,  5.3D-01,  1.2D+00, r^2= 8.2D+00
   Bfn.  Coefficient  Atom+Function         Bfn.  Coefficient  Atom+Function  
  ----- ------------  ---------------      ----- ------------  ---------------
   139      0.283684   9 C  s                14      0.202299   2 C  px        
    44     -0.196115   4 H  s                12     -0.189228   2 C  s         
    36      0.186429   3 H  s                35      0.177783   3 H  s         
    57      0.165346   5 C  px               82      0.157529   6 O  px        
    16     -0.154130   2 C  pz              173     -0.153026  11 C  s         

 Vector   56  Occ=2.000000D+00  E=-6.209262D-01
              MO Center= -3.0D-01,  1.8D-01, -4.1D-01, r^2= 1.1D+01
   Bfn.  Coefficient  Atom+Function         Bfn.  Coefficient  Atom+Function  
  ----- ------------  ---------------      ----- ------------  ---------------
   254      0.258116  16 O  pz              630     -0.164849  37 H  s         
   309     -0.157985  19 C  s               250     -0.154241  16 O  s         
   507      0.152262  30 C  py        

 Vector   57  Occ=2.000000D+00  E=-6.159695D-01
              MO Center=  5.1D-01, -2.8D-01, -4.6D-01, r^2= 1.1D+01
   Bfn.  Coefficient  Atom+Function         Bfn.  Coefficient  Atom+Function  
  ----- ------------  ---------------      ----- ------------  ---------------
   254      0.205059  16 O  pz              630      0.204076  37 H  s         
   692     -0.175940  40 O  px              507     -0.157630  30 C  py        

 Vector   58  Occ=2.000000D+00  E=-6.030690D-01
              MO Center=  9.3D-01,  1.3D+00, -2.2D-01, r^2= 9.0D+00
   Bfn.  Coefficient  Atom+Function         Bfn.  Coefficient  Atom+Function  
  ----- ------------  ---------------      ----- ------------  ---------------
   630     -0.205125  37 H  s               528      0.200315  31 H  s         
   527      0.193990  31 H  s               608      0.187543  36 C  px        
   629     -0.181548  37 H  s               226      0.160492  15 C  s         
   506      0.159915  30 C  px              481      0.156492  29 C  px        
   505     -0.151659  30 C  s         

 Vector   59  Occ=2.000000D+00  E=-6.027658D-01
              MO Center=  6.1D-01,  5.3D-01,  4.2D-02, r^2= 1.1D+01
   Bfn.  Coefficient  Atom+Function         Bfn.  Coefficient  Atom+Function  
  ----- ------------  ---------------      ----- ------------  ---------------
   645      0.181222  38 C  px              642      0.172181  38 C  px        
   658     -0.165608  38 C  dxy             692     -0.157753  40 O  px        
   276      0.152060  17 N  s         

 Vector   60  Occ=2.000000D+00  E=-5.937565D-01
              MO Center=  4.4D-02, -5.5D-01,  5.5D-01, r^2= 1.1D+01
   Bfn.  Coefficient  Atom+Function         Bfn.  Coefficient  Atom+Function  
  ----- ------------  ---------------      ----- ------------  ---------------
    58      0.198863   5 C  py              692      0.197315  40 O  px        
    83     -0.171051   6 O  py              666     -0.171877  39 C  s         

 Vector   61  Occ=2.000000D+00  E=-5.883688D-01
              MO Center=  2.9D-01,  1.1D-01, -9.8D-02, r^2= 1.1D+01
   Bfn.  Coefficient  Atom+Function         Bfn.  Coefficient  Atom+Function  
  ----- ------------  ---------------      ----- ------------  ---------------
   449      0.215371  27 N  pz              452      0.171272  27 N  pz        

 Vector   62  Occ=2.000000D+00  E=-5.830698D-01
              MO Center= -9.7D-01,  1.0D+00,  1.5D+00, r^2= 8.4D+00
   Bfn.  Coefficient  Atom+Function         Bfn.  Coefficient  Atom+Function  
  ----- ------------  ---------------      ----- ------------  ---------------
     2      0.292431   1 H  s                 1      0.290968   1 H  s         
    16      0.264694   2 C  pz               15     -0.200837   2 C  py        
    35     -0.173707   3 H  s                13     -0.155936   2 C  s         
   175     -0.156615  11 C  px        

 Vector   63  Occ=2.000000D+00  E=-5.813384D-01
              MO Center= -9.5D-02, -5.4D-01, -4.3D-01, r^2= 9.3D+00
   Bfn.  Coefficient  Atom+Function         Bfn.  Coefficient  Atom+Function  
  ----- ------------  ---------------      ----- ------------  ---------------
   174      0.195333  11 C  s               313      0.188097  19 C  pz        
   278     -0.182602  17 N  py              376     -0.157293  23 H  s         

 Vector   64  Occ=2.000000D+00  E=-5.757400D-01
              MO Center=  1.2D+00, -7.4D-02, -2.5D-01, r^2= 1.1D+01
   Bfn.  Coefficient  Atom+Function         Bfn.  Coefficient  Atom+Function  
  ----- ------------  ---------------      ----- ------------  ---------------
   434      0.207829  26 H  s               413      0.203658  25 C  px        
   391     -0.177524  24 C  px              388     -0.164652  24 C  px        

 Vector   65  Occ=2.000000D+00  E=-5.634339D-01
              MO Center= -4.3D-01, -1.6D+00, -2.5D-01, r^2= 1.0D+01
   Bfn.  Coefficient  Atom+Function         Bfn.  Coefficient  Atom+Function  
  ----- ------------  ---------------      ----- ------------  ---------------
   693      0.216742  40 O  py              667      0.201566  39 C  px        
   285     -0.189026  17 N  pz              718      0.182458  41 N  py        
   174      0.168060  11 C  s               205      0.161035  13 H  s         

 Vector   66  Occ=2.000000D+00  E=-5.573538D-01
              MO Center= -7.8D-01,  5.7D-01, -5.0D-01, r^2= 1.2D+01
   Bfn.  Coefficient  Atom+Function         Bfn.  Coefficient  Atom+Function  
  ----- ------------  ---------------      ----- ------------  ---------------
   176      0.207174  11 C  py              196      0.196361  12 H  s         
   630     -0.193440  37 H  s               562      0.188660  33 H  s         
   197      0.173575  12 H  s               541      0.171955  32 C  py        
   561      0.157501  33 H  s         

 Vector   67  Occ=2.000000D+00  E=-5.478839D-01
              MO Center= -2.0D+00,  7.3D-01,  6.2D-01, r^2= 8.3D+00
   Bfn.  Coefficient  Atom+Function         Bfn.  Coefficient  Atom+Function  
  ----- ------------  ---------------      ----- ------------  ---------------
   215      0.275438  14 H  s               214      0.224074  14 H  s         
    14     -0.221740   2 C  px              139      0.191512   9 C  s         
    44      0.190328   4 H  s                56      0.174313   5 C  s         
   175     -0.171823  11 C  px              176     -0.171225  11 C  py        
    82      0.168175   6 O  px              109     -0.156801   7 N  pz        

 Vector   68  Occ=2.000000D+00  E=-5.411833D-01
              MO Center= -1.6D+00,  5.3D-01,  6.0D-01, r^2= 8.2D+00
   Bfn.  Coefficient  Atom+Function         Bfn.  Coefficient  Atom+Function  
  ----- ------------  ---------------      ----- ------------  ---------------
    16      0.192932   2 C  pz              175      0.190604  11 C  px        
   139      0.183083   9 C  s                35     -0.180619   3 H  s         
    36     -0.173705   3 H  s                84     -0.173876   6 O  pz        
   141     -0.152489   9 C  px        

 Vector   69  Occ=2.000000D+00  E=-5.357512D-01
              MO Center=  3.0D-01,  1.1D+00, -7.1D-01, r^2= 1.1D+01
   Bfn.  Coefficient  Atom+Function         Bfn.  Coefficient  Atom+Function  
  ----- ------------  ---------------      ----- ------------  ---------------
   596      0.273128  35 H  s               562     -0.221230  33 H  s         
   376     -0.203415  23 H  s               609     -0.199121  36 C  py        
   575      0.196497  34 C  py              505      0.183134  30 C  s         
   561     -0.182605  33 H  s               595      0.181531  35 H  s         
   541     -0.177272  32 C  py              375     -0.155296  23 H  s         

 Vector   70  Occ=2.000000D+00  E=-5.329704D-01
              MO Center= -1.6D+00, -3.6D-01, -7.2D-01, r^2= 9.4D+00
   Bfn.  Coefficient  Atom+Function         Bfn.  Coefficient  Atom+Function  
  ----- ------------  ---------------      ----- ------------  ---------------
   197      0.277103  12 H  s               177      0.238434  11 C  pz        
   196      0.210937  12 H  s               347     -0.170915  21 C  pz        
   205     -0.169656  13 H  s         

 Vector   71  Occ=2.000000D+00  E=-5.214857D-01
              MO Center= -5.2D-01, -1.3D-01, -2.0D-01, r^2= 1.1D+01
   Bfn.  Coefficient  Atom+Function         Bfn.  Coefficient  Atom+Function  
  ----- ------------  ---------------      ----- ------------  ---------------
   630      0.250580  37 H  s               332     -0.169754  20 H  s         
   596     -0.163712  35 H  s               162      0.156381  10 H  s         
   573      0.151629  34 C  s         

 Vector   72  Occ=2.000000D+00  E=-5.103675D-01
              MO Center= -1.5D-01,  1.3D-01, -9.0D-01, r^2= 9.4D+00
   Bfn.  Coefficient  Atom+Function         Bfn.  Coefficient  Atom+Function  
  ----- ------------  ---------------      ----- ------------  ---------------
   376      0.253351  23 H  s               596      0.226106  35 H  s         
   173     -0.160956  11 C  s         

 Vector   73  Occ=2.000000D+00  E=-5.009644D-01
              MO Center= -9.9D-02, -9.3D-01, -1.1D+00, r^2= 7.7D+00
   Bfn.  Coefficient  Atom+Function         Bfn.  Coefficient  Atom+Function  
  ----- ------------  ---------------      ----- ------------  ---------------
   345      0.239566  21 C  px              376     -0.240554  23 H  s         
   367      0.194360  22 H  s               375     -0.193618  23 H  s         
   253      0.170780  16 O  py              332      0.150501  20 H  s         

 Vector   74  Occ=2.000000D+00  E=-4.850050D-01
              MO Center=  1.3D+00,  8.8D-01, -7.2D-01, r^2= 6.6D+00
   Bfn.  Coefficient  Atom+Function         Bfn.  Coefficient  Atom+Function  
  ----- ------------  ---------------      ----- ------------  ---------------
   630      0.344157  37 H  s               573      0.258537  34 C  s         
   528      0.250107  31 H  s               389     -0.226181  24 C  py        
   643      0.227080  38 C  py              505     -0.196097  30 C  s         
   346      0.193519  21 C  py              367     -0.178578  22 H  s         
   578      0.174775  34 C  py              624     -0.171307  36 C  dxy       

 Vector   75  Occ=2.000000D+00  E=-4.782921D-01
              MO Center=  1.0D+00,  2.0D+00, -4.6D-01, r^2= 5.9D+00
   Bfn.  Coefficient  Atom+Function         Bfn.  Coefficient  Atom+Function  
  ----- ------------  ---------------      ----- ------------  ---------------
   576      0.199644  34 C  pz              449     -0.175733  27 N  pz        
   452     -0.156471  27 N  pz              542      0.156615  32 C  pz        

 Vector   76  Occ=2.000000D+00  E=-4.523903D-01
              MO Center= -1.7D+00, -2.5D-01,  5.9D-01, r^2= 6.1D+00
   Bfn.  Coefficient  Atom+Function         Bfn.  Coefficient  Atom+Function  
  ----- ------------  ---------------      ----- ------------  ---------------
    82      0.366102   6 O  px               85      0.289568   6 O  px        
   139     -0.281923   9 C  s               252     -0.275848  16 O  px        
   255     -0.215474  16 O  px              107     -0.186665   7 N  px        
   253      0.186505  16 O  py              110     -0.174774   7 N  px        
   109      0.171024   7 N  pz              256      0.152109  16 O  py        

 Vector   77  Occ=2.000000D+00  E=-4.428479D-01
              MO Center= -1.5D+00, -9.6D-02,  1.4D+00, r^2= 4.8D+00
   Bfn.  Coefficient  Atom+Function         Bfn.  Coefficient  Atom+Function  
  ----- ------------  ---------------      ----- ------------  ---------------
    84      0.411083   6 O  pz               87      0.348014   6 O  pz        
    83      0.206217   6 O  py              225     -0.197388  15 C  s         
   107      0.194130   7 N  px               15      0.177902   2 C  py        
   139      0.176690   9 C  s               146     -0.170104   9 C  pz        
   105      0.164104   7 N  s               253     -0.160457  16 O  py        

 Vector   78  Occ=2.000000D+00  E=-4.272636D-01
              MO Center=  8.6D-01, -2.9D+00, -1.3D-02, r^2= 5.2D+00
   Bfn.  Coefficient  Atom+Function         Bfn.  Coefficient  Atom+Function  
  ----- ------------  ---------------      ----- ------------  ---------------
   694      0.475894  40 O  pz              697      0.374192  40 O  pz        
   333     -0.235892  20 H  s               665      0.222452  39 C  s         
   276      0.194066  17 N  s               672     -0.191970  39 C  pz        
   252      0.162882  16 O  px              313      0.150297  19 C  pz        

 Vector   79  Occ=2.000000D+00  E=-4.077418D-01
              MO Center=  7.4D-01, -3.0D+00,  8.0D-01, r^2= 4.1D+00
   Bfn.  Coefficient  Atom+Function         Bfn.  Coefficient  Atom+Function  
  ----- ------------  ---------------      ----- ------------  ---------------
   718     -0.322465  41 N  py              693      0.306694  40 O  py        
   721     -0.279095  41 N  py              717     -0.249840  41 N  px        
   696      0.244149  40 O  py              692      0.226979  40 O  px        
   720     -0.222445  41 N  px              695      0.180086  40 O  px        
   716      0.176371  41 N  s         

 Vector   80  Occ=2.000000D+00  E=-4.015168D-01
              MO Center= -1.4D+00, -6.4D-01, -2.2D-01, r^2= 7.8D+00
   Bfn.  Coefficient  Atom+Function         Bfn.  Coefficient  Atom+Function  
  ----- ------------  ---------------      ----- ------------  ---------------
   106      0.282419   7 N  s               252      0.265880  16 O  px        
   107     -0.228646   7 N  px              110     -0.221933   7 N  px        
   255      0.219002  16 O  px              253     -0.216436  16 O  py        
   145     -0.168868   9 C  py              256     -0.168298  16 O  py        
    82      0.160986   6 O  px              144      0.150716   9 C  px        

 Vector   81  Occ=2.000000D+00  E=-3.903654D-01
              MO Center=  4.0D-01, -4.0D-01, -5.4D-01, r^2= 7.9D+00
   Bfn.  Coefficient  Atom+Function         Bfn.  Coefficient  Atom+Function  
  ----- ------------  ---------------      ----- ------------  ---------------
   276      0.306516  17 N  s               309     -0.256216  19 C  s         
   278     -0.252622  17 N  py              343      0.236627  21 C  s         
   140     -0.231594   9 C  s               281     -0.222973  17 N  py        
    13      0.200279   2 C  s               226     -0.201068  15 C  s         
   300     -0.180677  18 H  s                56      0.174388   5 C  s         

 Vector   82  Occ=2.000000D+00  E=-3.834446D-01
              MO Center=  2.0D-01, -3.1D-01, -5.0D-01, r^2= 8.3D+00
   Bfn.  Coefficient  Atom+Function         Bfn.  Coefficient  Atom+Function  
  ----- ------------  ---------------      ----- ------------  ---------------
   276      0.237349  17 N  s               253      0.191182  16 O  py        
   278     -0.186276  17 N  py              225     -0.179649  15 C  s         
   281     -0.178402  17 N  py              277     -0.150914  17 N  px        

 Vector   83  Occ=2.000000D+00  E=-3.164789D-01
              MO Center=  1.4D+00,  2.0D+00, -4.6D-01, r^2= 4.3D+00
   Bfn.  Coefficient  Atom+Function         Bfn.  Coefficient  Atom+Function  
  ----- ------------  ---------------      ----- ------------  ---------------
   576     -0.228116  34 C  pz              483      0.214132  29 C  pz        
   579     -0.189283  34 C  pz              644      0.184698  38 C  pz        
   574      0.170066  34 C  px              486      0.165204  29 C  pz        
   449     -0.159137  27 N  pz              481     -0.150389  29 C  px        

 Vector   84  Occ=2.000000D+00  E=-2.938321D-01
              MO Center=  1.7D+00,  1.1D+00, -5.0D-01, r^2= 5.5D+00
   Bfn.  Coefficient  Atom+Function         Bfn.  Coefficient  Atom+Function  
  ----- ------------  ---------------      ----- ------------  ---------------
   390      0.222798  24 C  pz              393      0.199158  24 C  pz        
   415      0.189906  25 C  pz              610     -0.175760  36 C  pz        
   309     -0.168353  19 C  s               449     -0.159832  27 N  pz        
   508      0.159166  30 C  pz              542      0.155120  32 C  pz        
   388     -0.151845  24 C  px              418      0.151836  25 C  pz        

 Vector   85  Occ=0.000000D+00  E= 2.220078D-02
              MO Center=  2.2D-02,  3.9D+00,  1.8D+00, r^2= 2.9D+01
   Bfn.  Coefficient  Atom+Function         Bfn.  Coefficient  Atom+Function  
  ----- ------------  ---------------      ----- ------------  ---------------
   300      4.117691  18 H  s               226      3.039424  15 C  s         
   649      2.893164  38 C  py               46     -2.181212   4 H  s         
   563     -2.093916  33 H  s               148      2.037677   9 C  py        
   198     -1.893850  12 H  s               233     -1.896984  15 C  px        
   130      1.695371   8 H  s               529     -1.593417  31 H  s         

 Vector   86  Occ=0.000000D+00  E= 2.868822D-02
              MO Center=  1.1D+00,  2.4D+00,  1.3D+00, r^2= 3.8D+01
   Bfn.  Coefficient  Atom+Function         Bfn.  Coefficient  Atom+Function  
  ----- ------------  ---------------      ----- ------------  ---------------
   573      3.091038  34 C  s               529     -2.380895  31 H  s         
   597      2.375679  35 H  s               488     -2.319967  29 C  py        
   300     -2.141143  18 H  s               446     -2.130261  27 N  s         
   198      2.079723  12 H  s               648      1.908895  38 C  px        
   650      1.856781  38 C  pz              106      1.832620   7 N  s         

 Vector   87  Occ=0.000000D+00  E= 3.682672D-02
              MO Center= -7.6D-01,  2.4D+00,  1.5D+00, r^2= 4.2D+01
   Bfn.  Coefficient  Atom+Function         Bfn.  Coefficient  Atom+Function  
  ----- ------------  ---------------      ----- ------------  ---------------
   300      4.353161  18 H  s               563      3.463588  33 H  s         
   488     -3.418291  29 C  py              233     -3.207252  15 C  px        
   539      3.095746  32 C  s               505      2.776819  30 C  s         
   547     -2.686870  32 C  py               56     -2.064993   5 C  s         
   149      1.980191   9 C  pz              164     -1.963251  10 H  s         

 Vector   88  Occ=0.000000D+00  E= 4.119744D-02
              MO Center= -2.4D-01,  2.3D+00,  5.4D-01, r^2= 4.1D+01
   Bfn.  Coefficient  Atom+Function         Bfn.  Coefficient  Atom+Function  
  ----- ------------  ---------------      ----- ------------  ---------------
   597      3.283911  35 H  s                65      2.950364   5 C  pz        
   149      2.703911   9 C  pz              505     -2.296452  30 C  s         
[...]
  ----- ------------  ---------------      ----- ------------  ---------------
   226     15.841027  15 C  s               140      9.513759   9 C  s         
   666      8.088912  39 C  s                13     -6.920424   2 C  s         
   115      6.843970   7 N  pz              276     -6.642051  17 N  s         
   285      6.522352  17 N  pz              489      6.103088  29 C  pz        
   317      5.560805  19 C  px              234     -5.461879  15 C  py        

 Vector  212  Occ=0.000000D+00  E= 4.489647D-01
              MO Center= -5.2D-01,  4.8D-02, -9.5D-01, r^2= 2.1D+01
   Bfn.  Coefficient  Atom+Function         Bfn.  Coefficient  Atom+Function  
  ----- ------------  ---------------      ----- ------------  ---------------
   276     21.479657  17 N  s               666    -15.959384  39 C  s         
   573     15.821747  34 C  s               226    -15.286802  15 C  s         
   140    -10.823060   9 C  s               641    -10.452350  38 C  s         
   505     -9.520740  30 C  s                13      8.145521   2 C  s         
   615     -7.333056  36 C  py              446      7.009958  27 N  s         

 Vector  213  Occ=0.000000D+00  E= 4.523619D-01
              MO Center= -1.0D+00,  5.6D-01,  4.9D-01, r^2= 2.2D+01
   Bfn.  Coefficient  Atom+Function         Bfn.  Coefficient  Atom+Function  
  ----- ------------  ---------------      ----- ------------  ---------------
   616    -12.132715  36 C  pz              650     11.885878  38 C  pz        
   106     11.612073   7 N  s               573     11.573996  34 C  s         
   446    -11.446681  27 N  s               226     -9.948721  15 C  s         
   648      9.560735  38 C  px              174      8.968690  11 C  s         
   631     -7.913979  37 H  s               488     -7.268982  29 C  py        

 Vector  214  Occ=0.000000D+00  E= 4.549211D-01
              MO Center= -2.3D-01, -7.2D-01, -5.1D-01, r^2= 2.0D+01
   Bfn.  Coefficient  Atom+Function         Bfn.  Coefficient  Atom+Function  
  ----- ------------  ---------------      ----- ------------  ---------------
   300     17.394574  18 H  s               396    -15.558185  24 C  pz        
   666    -14.579522  39 C  s               573     13.314150  34 C  s         
   233     12.122018  15 C  px              106     11.942499   7 N  s         
   174     10.499823  11 C  s               319     10.423792  19 C  pz        
   650     10.207785  38 C  pz              351     -9.449676  21 C  px        

 Vector  215  Occ=0.000000D+00  E= 4.588087D-01
              MO Center= -3.4D-01, -2.4D-01,  7.9D-01, r^2= 2.0D+01
   Bfn.  Coefficient  Atom+Function         Bfn.  Coefficient  Atom+Function  
  ----- ------------  ---------------      ----- ------------  ---------------
   716    -11.285363  41 N  s               666     10.612584  39 C  s         
   285      8.627092  17 N  pz              283      7.192406  17 N  px        
   446      7.067060  27 N  s               387     -6.977953  24 C  s         
   396     -6.873210  24 C  pz              310      5.838744  19 C  s         
   300     -5.040039  18 H  s               412     -5.040254  25 C  s         

 Vector  216  Occ=0.000000D+00  E= 4.646010D-01
              MO Center=  1.9D-01, -4.5D-01,  1.8D-01, r^2= 2.3D+01
   Bfn.  Coefficient  Atom+Function         Bfn.  Coefficient  Atom+Function  
  ----- ------------  ---------------      ----- ------------  ---------------
   233     11.441914  15 C  px              489     10.636030  29 C  pz        
   106      8.498994   7 N  s               148     -8.262392   9 C  py        
   234     -7.738834  15 C  py              487      7.622594  29 C  px        
   226     -7.261824  15 C  s               716     -6.917559  41 N  s         
   446     -6.567768  27 N  s               352      6.278095  21 C  py        

 Vector  217  Occ=0.000000D+00  E= 4.689192D-01
              MO Center=  8.8D-01,  1.5D-01, -1.5D-01, r^2= 1.9D+01
   Bfn.  Coefficient  Atom+Function         Bfn.  Coefficient  Atom+Function  
  ----- ------------  ---------------      ----- ------------  ---------------
   650     18.507111  38 C  pz              573     12.423172  34 C  s         
   283    -12.131384  17 N  px              616    -10.430104  36 C  pz        
   396     -8.688798  24 C  pz              489     -8.433550  29 C  pz        
   394     -8.390340  24 C  px              226     -7.962127  15 C  s         
   387      7.876520  24 C  s               480      7.356372  29 C  s         

 Vector  218  Occ=0.000000D+00  E= 4.742839D-01
              MO Center= -3.2D-01,  3.3D-01,  2.5D-01, r^2= 2.3D+01
   Bfn.  Coefficient  Atom+Function         Bfn.  Coefficient  Atom+Function  
  ----- ------------  ---------------      ----- ------------  ---------------
   300     26.410974  18 H  s               666    -18.090613  39 C  s         
    56    -15.493616   5 C  s               285     10.178335  17 N  pz        
   234      8.083402  15 C  py               13     -7.292461   2 C  s         
   235     -7.106351  15 C  pz               64      6.879176   5 C  py        
   226      6.513311  15 C  s                37     -6.216265   3 H  s         

 Vector  219  Occ=0.000000D+00  E= 4.768814D-01
              MO Center= -2.5D-02,  1.5D-01, -1.7D-01, r^2= 2.2D+01
   Bfn.  Coefficient  Atom+Function         Bfn.  Coefficient  Atom+Function  
  ----- ------------  ---------------      ----- ------------  ---------------
   226     14.585478  15 C  s               539     11.347325  32 C  s         
   505     10.774445  30 C  s               573    -10.164310  34 C  s         
   716     -9.930377  41 N  s               666      9.424106  39 C  s         
   276     -8.752950  17 N  s               174     -8.513082  11 C  s         
   148      8.267838   9 C  py              233     -7.931696  15 C  px        

 Vector  220  Occ=0.000000D+00  E= 4.793988D-01
              MO Center= -8.9D-01,  3.1D-01, -2.3D-01, r^2= 2.1D+01
   Bfn.  Coefficient  Atom+Function         Bfn.  Coefficient  Atom+Function  
  ----- ------------  ---------------      ----- ------------  ---------------
   174     12.691069  11 C  s               226    -11.985273  15 C  s         
   505     10.542164  30 C  s               666      9.885425  39 C  s         
   147      8.024424   9 C  px              573     -7.499274  34 C  s         
   650     -6.913048  38 C  pz               13      6.615595   2 C  s         
   300     -6.465216  18 H  s               140     -6.082161   9 C  s         

 Vector  221  Occ=0.000000D+00  E= 4.827291D-01
              MO Center=  4.4D-01,  7.7D-01,  1.4D-01, r^2= 2.2D+01
   Bfn.  Coefficient  Atom+Function         Bfn.  Coefficient  Atom+Function  
  ----- ------------  ---------------      ----- ------------  ---------------
   300     16.024408  18 H  s               666    -14.577644  39 C  s         
   641     -6.631197  38 C  s               539      6.303465  32 C  s         
    56     -6.200275   5 C  s               487     -6.217486  29 C  px        
   226      6.175613  15 C  s               454      5.729153  27 N  py        
   607     -5.640997  36 C  s               234      5.515941  15 C  py        

 Vector  222  Occ=0.000000D+00  E= 4.839975D-01
              MO Center= -2.4D-01, -3.0D-02, -4.2D-01, r^2= 2.2D+01
   Bfn.  Coefficient  Atom+Function         Bfn.  Coefficient  Atom+Function  
  ----- ------------  ---------------      ----- ------------  ---------------
   174    -15.915097  11 C  s                56     15.589927   5 C  s         
   300    -11.396369  18 H  s               147    -10.607031   9 C  px        
   487    -10.619804  29 C  px              614     -8.384680  36 C  px        
   631     -7.367154  37 H  s               226      6.750636  15 C  s         
   233      6.334084  15 C  px              488      6.343133  29 C  py        

 Vector  223  Occ=0.000000D+00  E= 4.899055D-01
              MO Center= -8.8D-02,  4.3D-02,  1.9D-01, r^2= 2.0D+01
   Bfn.  Coefficient  Atom+Function         Bfn.  Coefficient  Atom+Function  
  ----- ------------  ---------------      ----- ------------  ---------------
   573     16.151310  34 C  s               174     15.405412  11 C  s         
   300    -12.514786  18 H  s               505    -12.210432  30 C  s         
   147     10.761266   9 C  px              666      9.855030  39 C  s         
   616     -8.959001  36 C  pz              285     -8.725575  17 N  pz        
   512      8.462141  30 C  px              650      7.377308  38 C  pz        

 Vector  224  Occ=0.000000D+00  E= 4.925437D-01
              MO Center= -5.2D-01, -3.0D-02, -1.3D-01, r^2= 2.0D+01
   Bfn.  Coefficient  Atom+Function         Bfn.  Coefficient  Atom+Function  
  ----- ------------  ---------------      ----- ------------  ---------------
   539     11.270267  32 C  s               276     -9.243299  17 N  s         
   446     -8.974502  27 N  s               317     -8.812849  19 C  px        
   488     -7.914130  29 C  py               56     -7.722507   5 C  s         
   505      7.602015  30 C  s               395     -7.531459  24 C  py        
   234      7.143242  15 C  py              300      6.965192  18 H  s         

 Vector  225  Occ=0.000000D+00  E= 4.971611D-01
              MO Center= -1.1D+00,  1.7D-01,  3.0D-02, r^2= 2.1D+01
   Bfn.  Coefficient  Atom+Function         Bfn.  Coefficient  Atom+Function  
  ----- ------------  ---------------      ----- ------------  ---------------
   174     16.064508  11 C  s               300    -12.400616  18 H  s         
   149      9.968380   9 C  pz              147      9.398656   9 C  px        
   276      8.767918  17 N  s               573      8.698765  34 C  s         
    12      8.262283   2 C  s               396      7.472816  24 C  pz        
   233     -6.929300  15 C  px              616     -6.952959  36 C  pz        

 Vector  226  Occ=0.000000D+00  E= 4.986764D-01
              MO Center= -3.6D-01,  2.9D-01,  8.7D-02, r^2= 2.1D+01
   Bfn.  Coefficient  Atom+Function         Bfn.  Coefficient  Atom+Function  
  ----- ------------  ---------------      ----- ------------  ---------------
   106     12.302340   7 N  s               616    -10.882784  36 C  pz        
   446     -9.759839  27 N  s               650      9.661233  38 C  pz        
    65      9.224557   5 C  pz               64      7.876254   5 C  py        
   539      7.559467  32 C  s               207      7.519419  13 H  s         
    13     -7.439769   2 C  s               573      7.164110  34 C  s         

 Vector  227  Occ=0.000000D+00  E= 5.009688D-01
              MO Center= -3.4D-01,  1.2D-01,  1.1D-01, r^2= 2.0D+01
   Bfn.  Coefficient  Atom+Function         Bfn.  Coefficient  Atom+Function  
  ----- ------------  ---------------      ----- ------------  ---------------
   395     16.233564  24 C  py              233     10.403061  15 C  px        
   505      9.612424  30 C  s               367      9.470421  22 H  s         
   344     -9.277777  21 C  s               650      8.555382  38 C  pz        
   148     -8.248222   9 C  py              649     -8.206904  38 C  py        
   387     -7.814741  24 C  s                13     -7.318230   2 C  s         


 center of mass
 --------------
 x =   0.04273337 y =  -0.06179569 z =  -0.01437816

 moments of inertia (a.u.)
 ------------------
        6543.668844147888           0.000000000000           0.000000000000
           0.000000000000        5892.571180735089          -0.000000000001
           0.000000000000          -0.000000000001        8789.007856628148

  Mulliken analysis of the total density
  --------------------------------------

    Atom       Charge   Shell Charges
 -----------   ------   -------------------------------------------------------
    1 H    1     0.97   0.77  0.24  0.00  0.03 -0.08
    2 C    6     6.03   2.01  0.66  0.17  0.09  2.07  0.87 -0.01  0.06  0.10
    3 H    1     1.06   0.76  0.36  0.02  0.03 -0.11
    4 H    1     0.83   0.77  0.10 -0.00  0.03 -0.07
    5 C    6     5.46   2.01  0.68  0.14  0.08  1.89  0.39  0.02  0.24  0.01
    6 O    8     8.91   2.01  0.81  1.02  0.20  2.80  1.88  0.18  0.02 -0.00
    7 N    7     7.19   2.01  0.72  0.77 -0.24  2.45  1.44 -0.03  0.05  0.03
    8 H    1     0.93   0.76  0.15 -0.00  0.05 -0.04
    9 C    6     6.55   2.01  0.66  0.03  0.10  1.99  1.58 -0.11  0.14  0.16
   10 H    1     1.08   0.78  0.23  0.04  0.03 -0.00
   11 C    6     5.75   2.01  0.66  0.39  0.14  2.04  0.46 -0.05  0.07  0.03
   12 H    1     0.93   0.77  0.24 -0.01  0.03 -0.10
   13 H    1     0.90   0.77  0.12  0.06  0.03 -0.08
   14 H    1     0.90   0.76  0.19 -0.00  0.03 -0.09
   15 C    6     4.91   2.01  0.68  0.13  0.01  1.89  0.16  0.13  0.24 -0.33
   16 O    8     8.92   2.01  0.82  1.04  0.22  2.79  1.86  0.17  0.01 -0.00
   17 N    7     7.03   2.01  0.72  0.82 -0.22  2.46  1.39 -0.25  0.06  0.04
   18 H    1     1.00   0.75  0.37 -0.09  0.06 -0.10
   19 C    6     6.08   2.01  0.66  0.02 -0.01  1.99  1.32 -0.04  0.14 -0.00
   20 H    1     1.16   0.77  0.36 -0.01  0.03  0.00
   21 C    6     5.46   2.01  0.66  0.05 -0.04  2.05  0.73 -0.07  0.10 -0.02
   22 H    1     1.00   0.78  0.23  0.01  0.03 -0.05
   23 H    1     0.99   0.78  0.27 -0.03  0.03 -0.06
   24 C    6     6.19   2.01  0.65  0.17 -0.13  2.04  1.07  0.07  0.12  0.18
   25 C    6     4.78   2.01  0.67 -0.02 -0.13  1.99  0.34  0.01  0.12 -0.19
   26 H    1     1.40   0.76  0.62 -0.01  0.03 -0.01
   27 N    7     8.11   2.01  0.72  1.18 -0.05  2.43  1.54  0.04  0.06  0.17
   28 H    1     1.07   0.77  0.25 -0.00  0.05 -0.00
   29 C    6     5.72   2.01  0.66  0.16 -0.03  2.00  0.46  0.32  0.15 -0.02
   30 C    6     5.27   2.01  0.66  0.13 -0.43  2.02  0.78  0.19  0.09 -0.16
   31 H    1     1.48   0.78  0.68 -0.00  0.03 -0.00
   32 C    6     5.51   2.01  0.66  0.18 -0.45  1.99  0.92  0.30  0.09 -0.19
   33 H    1     1.52   0.78  0.70 -0.01  0.03  0.02
   34 C    6     5.33   2.01  0.66  0.17 -0.37  2.01  0.77  0.26  0.09 -0.25
   35 H    1     1.57   0.78  0.77 -0.02  0.03  0.01
   36 C    6     5.34   2.01  0.66  0.17 -0.19  1.99  0.73  0.10  0.09 -0.23
   37 H    1     1.78   0.79  0.99 -0.04  0.03  0.01
   38 C    6     6.23   2.01  0.66  0.27 -0.16  2.02  1.31 -0.07  0.12  0.06
   39 C    6     4.63   2.01  0.68  0.12 -0.00  1.89 -0.18  0.01  0.24 -0.12
   40 O    8     8.85   2.01  0.82  1.04  0.19  2.79  1.85  0.15  0.01 -0.00
   41 N    7     7.28   2.01  0.72  0.82 -0.11  2.46  1.26  0.10  0.04 -0.02
   42 H    1     1.00   0.76  0.22 -0.00  0.05 -0.03
   43 H    1     0.92   0.74  0.20 -0.00  0.06 -0.08

       Multipole analysis of the density wrt the origin
       ------------------------------------------------

     L   x y z        total         open         nuclear
     -   - - -        -----         ----         -------
     0   0 0 0      0.000000      0.000000    168.000000

     1   1 0 0      0.013332      0.000000     -0.000000
     1   0 1 0      2.547269      0.000000      0.000000
     1   0 0 1      1.481196      0.000000      0.000000

     2   2 0 0    -95.651595      0.000000   2225.010311
     2   1 1 0      0.083212      0.000000    -27.099369
     2   1 0 1      3.094783      0.000000     20.492189
     2   0 2 0   -107.663050      0.000000   2556.295438
     2   0 1 1     -0.226116      0.000000     12.333107
     2   0 0 2   -105.498038      0.000000   1021.666925


 Task  times  cpu:    11155.3s     wall:    11295.9s


                                NWChem Input Module
                                -------------------


 Summary of allocated global arrays
-----------------------------------
  No active global arrays


MA_summarize_allocated_blocks: starting scan ...
MA_summarize_allocated_blocks: scan completed: 0 heap blocks, 0 stack blocks
MA usage statistics:

	allocation statistics:
					      heap	     stack
					      ----	     -----
	current number of blocks	         0	         0
	maximum number of blocks	        16	        14
	current total bytes		         0	         0
	maximum total bytes		    162032	  33964456
	maximum total K-bytes		       163	     33965
	maximum total M-bytes		         1	        34


                                     CITATION
                                     --------
                Please cite the following reference when publishing
                           results obtained with NWChem:

          E. Apra, E. J. Bylaska, W. A. de Jong, N. Govind, K. Kowalski,
       T. P. Straatsma, M. Valiev, H. J. J. van Dam, Y. Alexeev, J. Anchell,
       V. Anisimov, F. W. Aquino, R. Atta-Fynn, J. Autschbach, N. P. Bauman,
     J. C. Becca, D. E. Bernholdt, K. Bhaskaran-Nair, S. Bogatko, P. Borowski,
         J. Boschen, J. Brabec, A. Bruner, E. Cauet, Y. Chen, G. N. Chuev,
      C. J. Cramer, J. Daily, M. J. O. Deegan, T. H. Dunning Jr., M. Dupuis,
   K. G. Dyall, G. I. Fann, S. A. Fischer, A. Fonari, H. Fruchtl, L. Gagliardi,
      J. Garza, N. Gawande, S. Ghosh, K. Glaesemann, A. W. Gotz, J. Hammond,
       V. Helms, E. D. Hermes, K. Hirao, S. Hirata, M. Jacquelin, L. Jensen,
   B. G. Johnson, H. Jonsson, R. A. Kendall, M. Klemm, R. Kobayashi, V. Konkov,
      S. Krishnamoorthy, M. Krishnan, Z. Lin, R. D. Lins, R. J. Littlefield,
      A. J. Logsdail, K. Lopata, W. Ma, A. V. Marenich, J. Martin del Campo,
   D. Mejia-Rodriguez, J. E. Moore, J. M. Mullin, T. Nakajima, D. R. Nascimento,
    J. A. Nichols, P. J. Nichols, J. Nieplocha, A. Otero-de-la-Roza, B. Palmer,
    A. Panyala, T. Pirojsirikul, B. Peng, R. Peverati, J. Pittner, L. Pollack,
   R. M. Richard, P. Sadayappan, G. C. Schatz, W. A. Shelton, D. W. Silverstein,
   D. M. A. Smith, T. A. Soares, D. Song, M. Swart, H. L. Taylor, G. S. Thomas,
            V. Tipparaju, D. G. Truhlar, K. Tsemekhman, T. Van Voorhis,
      A. Vazquez-Mayagoitia, P. Verma, O. Villa, A. Vishnu, K. D. Vogiatzis,
        D. Wang, J. H. Weare, M. J. Williamson, T. L. Windus, K. Wolinski,
        A. T. Wong, Q. Wu, C. Yang, Q. Yu, M. Zacharias, Z. Zhang, Y. Zhao,
                                and R. J. Harrison
                        "NWChem: Past, present, and future
                         J. Chem. Phys. 152, 184102 (2020)
                               doi:10.1063/5.0004997

                                      AUTHORS
                                      -------
  E. Apra, E. J. Bylaska, N. Govind, K. Kowalski, M. Valiev, D. Mejia-Rodriguez,
       A. Kunitsa, N. P. Bauman, A. Panyala, W. A. de Jong, T. P. Straatsma,
   H. J. J. van Dam, D. Wang, T. L. Windus, J. Hammond, J. Autschbach, A. Woods,
    K. Bhaskaran-Nair, J. Brabec, K. Lopata, S. A. Fischer, S. Krishnamoorthy,
     M. Jacquelin, W. Ma, M. Klemm, O. Villa, Y. Chen, V. Anisimov, F. Aquino,
     S. Hirata, M. T. Hackler, E. Hermes, L. Jensen, J. E. Moore, J. C. Becca,
      V. Konjkov, T. Risthaus, M. Malagoli, A. Marenich, A. Otero-de-la-Roza,
        J. Mullin, P. Nichols, R. Peverati, J. Pittner, Y. Zhao, P.-D. Fan,
        A. Fonari, M. J. Williamson, R. J. Harrison, J. R. Rehr, M. Dupuis,
     D. Silverstein, D. M. A. Smith, J. Nieplocha, V. Tipparaju, M. Krishnan,
     B. E. Van Kuiken, A. Vazquez-Mayagoitia, M. Swart, Q. Wu, T. Van Voorhis,
     A. A. Auer, M. Nooijen, L. D. Crosby, E. Brown, G. Cisneros, G. I. Fann,
   H. Fruchtl, J. Garza, K. Hirao, R. A. Kendall, J. A. Nichols, K. Tsemekhman,
    K. Wolinski, J. Anchell, D. E. Bernholdt, P. Borowski, T. Clark, D. Clerc,
   H. Dachsel, M. J. O. Deegan, K. Dyall, D. Elwood, E. Glendening, M. Gutowski,
   A. C. Hess, J. Jaffe, B. G. Johnson, J. Ju, R. Kobayashi, R. Kutteh, Z. Lin,
   R. Littlefield, X. Long, B. Meng, T. Nakajima, S. Niu, L. Pollack, M. Rosing,
   K. Glaesemann, G. Sandrone, M. Stave, H. Taylor, G. Thomas, J. H. van Lenthe,
                               A. T. Wong, Z. Zhang.

 Total times  cpu:    11155.3s     wall:    11296.6s
