export TMOUT=5400
export TMPDIR=/tmp
export PTMPDIR=/tmp/ptmp
 argument  1 = ALA_LEU_3.nw
                                         
                                         


             Northwest Computational Chemistry Package (NWChem) 7.2.0
             --------------------------------------------------------


                    Environmental Molecular Sciences Laboratory
                       Pacific Northwest National Laboratory
                                Richland, WA 99352

                              Copyright (c) 1994-2022
                       Pacific Northwest National Laboratory
                            Battelle Memorial Institute

             NWChem is an open-source computational chemistry package
                        distributed under the terms of the
                      Educational Community License (ECL) 2.0
             A copy of the license is included with this distribution
                              in the LICENSE.TXT file

                                  ACKNOWLEDGMENT
                                  --------------

            This software and its documentation were developed at the
            EMSL at Pacific Northwest National Laboratory, a multiprogram
            national laboratory, operated for the U.S. Department of Energy
            by Battelle under Contract Number DE-AC05-76RL01830. Support
            for this work was provided by the Department of Energy Office
            of Biological and Environmental Research, Office of Basic
            Energy Sciences, and the Office of Advanced Scientific Computing.


           Job information
           ---------------

    hostname        = nova18-22
    program         = /opt/rit/el9/20230413/app/linux-rhel9-x86_64_v3/gcc-11.2.1/nwchem-7.2.0-oxtctbuhfuzyfaoziquq6bki22grib3g/bin/nwchem
    date            = Fri Jun 27 16:53:52 2025

    compiled        = Wed_May_17_23:46:39_2023
    source          = /tmp/root/spack-stage/spack-stage-nwchem-7.2.0-oxtctbuhfuzyfaoziquq6bki22grib3g/spack-src
    nwchem branch   = 7.2.0
    nwchem revision = d0d141fd
    ga revision     = 5.8.0
    use scalapack   = T
    input           = ALA_LEU_3.nw
    prefix          = ALA_LEU_3.
    data base       = ./ALA_LEU_3.db
    status          = startup
    nproc           =        8
    time left       =     -1s



           Memory information
           ------------------

    heap     =   26214396 doubles =    200.0 Mbytes
    stack    =   26214401 doubles =    200.0 Mbytes
    global   =   52428800 doubles =    400.0 Mbytes (distinct from heap & stack)
    total    =  104857597 doubles =    800.0 Mbytes
    verify   = yes
    hardfail = no 


           Directory information
           ---------------------

  0 permanent = .
  0 scratch   = .




                                NWChem Input Module
                                -------------------



 Scaling coordinates for geometry "geometry" by  1.889725989
 (inverse scale =  0.529177249)

 C1  symmetry detected

          ------
          auto-z
          ------
  no constraints, skipping    0.0000000000000000     
  no constraints, skipping    0.0000000000000000     


                             Geometry "geometry" -> ""
                             -------------------------

 Output coordinates in angstroms (scale by  1.889725989 to convert to a.u.)

  No.       Tag          Charge          X              Y              Z
 ---- ---------------- ---------- -------------- -------------- --------------
    1 H                    1.0000     0.56641205    -4.66541204     1.43070214
    2 C                    6.0000     0.51614788    -4.74662109     0.34622411
    3 H                    1.0000    -0.21635750    -5.49848429     0.06209283
    4 H                    1.0000     1.49536989    -5.02329340    -0.04283078
    5 C                    6.0000     0.11745721    -3.41031989    -0.23410843
    6 O                    8.0000     0.87030906    -2.81792528    -0.99839157
    7 N                    7.0000    -1.06862159    -2.92514150     0.13104086
    8 H                    1.0000    -1.61653888    -3.43944196     0.80057628
    9 C                    6.0000    -1.54484816    -1.60845331    -0.28918699
   10 H                    1.0000    -1.54996440    -1.57931241    -1.37954318
   11 C                    6.0000    -2.98388939    -1.41580294     0.20284166
   12 H                    1.0000    -3.01237234    -1.44795813     1.29310253
   13 H                    1.0000    -3.35711742    -0.44581001    -0.12954148
   14 H                    1.0000    -3.62571629    -2.19995682    -0.20077068
   15 C                    6.0000    -0.60624260    -0.49809267     0.22140468
   16 O                    8.0000    -0.33663780    -0.41597724     1.41710711
   17 N                    7.0000    -0.11221407     0.34276399    -0.69693398
   18 H                    1.0000    -0.37535120     0.18070970    -1.65501918
   19 C                    6.0000     0.91084068     1.37819640    -0.45455883
   20 H                    1.0000     1.15285829     1.80618866    -1.42688342
   21 C                    6.0000     0.34584344     2.53146346     0.40736125
   22 H                    1.0000     0.21659790     2.16565417     1.42703284
   23 H                    1.0000     1.08961278     3.32847550     0.44442836
   24 C                    6.0000    -0.98903356     3.13814982    -0.06423608
   25 H                    1.0000    -1.76187728     2.36804902    -0.07238147
   26 C                    6.0000    -1.42789101     4.23790610     0.90367623
   27 H                    1.0000    -1.53288960     3.82003333     1.90505910
   28 H                    1.0000    -0.68628573     5.03666518     0.92442572
   29 H                    1.0000    -2.38898541     4.64453398     0.59200440
   30 C                    6.0000    -0.88934774     3.74993546    -1.46431253
   31 H                    1.0000    -0.10084574     4.50203195    -1.48591042
   32 H                    1.0000    -0.67185109     2.97501223    -2.19723149
   33 H                    1.0000    -1.83794910     4.21786692    -1.72922118
   34 C                    6.0000     2.26858535     0.84931722     0.07087262
   35 O                    8.0000     3.12052449     1.62640085     0.48195865
   36 N                    7.0000     2.52671486    -0.45264892     0.03482650
   37 H                    1.0000     3.41469157    -0.76870252     0.38507426
   38 H                    1.0000     1.83810651    -1.10572200    -0.30895846

      Atomic Mass 
      ----------- 

      H                  1.007825
      C                 12.000000
      O                 15.994910
      N                 14.003070


 Effective nuclear repulsion energy (a.u.)    1326.2597302388

            Nuclear Dipole moment (a.u.) 
            ----------------------------
        X                 Y               Z
 ---------------- ---------------- ----------------
    -0.0000000000    -0.0000000000     0.0000000000



                                Z-matrix (autoz)
                                -------- 

 Units are Angstrom for bonds and degrees for angles

      Type          Name      I     J     K     L     M      Value
      ----------- --------  ----- ----- ----- ----- ----- ----------
    1 Stretch                  1     2                       1.08868
    2 Stretch                  2     3                       1.08747
    3 Stretch                  2     4                       1.08940
    4 Stretch                  2     5                       1.51044
    5 Stretch                  5     6                       1.22550
    6 Stretch                  5     7                       1.33248
    7 Stretch                  7     8                       1.00648
    8 Stretch                  7     9                       1.46187
    9 Stretch                  9    10                       1.09076
   10 Stretch                  9    11                       1.53299
   11 Stretch                  9    15                       1.54097
   12 Stretch                 11    12                       1.09111
   13 Stretch                 11    13                       1.09118
   14 Stretch                 11    14                       1.09075
   15 Stretch                 15    16                       1.22847
   16 Stretch                 15    17                       1.33957
   17 Stretch                 17    18                       1.00669
   18 Stretch                 17    19                       1.47564
   19 Stretch                 19    20                       1.08957
   20 Stretch                 19    21                       1.54666
   21 Stretch                 19    34                       1.54896
   22 Stretch                 21    22                       1.09099
   23 Stretch                 21    23                       1.09078
   24 Stretch                 21    24                       1.54025
   25 Stretch                 24    25                       1.09106
   26 Stretch                 24    26                       1.52935
   27 Stretch                 24    30                       1.53115
   28 Stretch                 26    27                       1.09014
   29 Stretch                 26    28                       1.09015
   30 Stretch                 26    29                       1.08912
   31 Stretch                 30    31                       1.08989
   32 Stretch                 30    32                       1.08857
   33 Stretch                 30    33                       1.09040
   34 Stretch                 34    35                       1.22419
   35 Stretch                 34    36                       1.32780
   36 Stretch                 36    37                       1.00552
   37 Stretch                 36    38                       1.00939
   38 Bend                     1     2     3               110.05627
   39 Bend                     1     2     4               109.46285
   40 Bend                     1     2     5               109.20351
   41 Bend                     2     5     6               120.33933
   42 Bend                     2     5     7               116.85932
   43 Bend                     3     2     4               109.66765
   44 Bend                     3     2     5               109.48087
   45 Bend                     4     2     5               108.94952
   46 Bend                     5     7     8               118.73854
   47 Bend                     5     7     9               122.62606
   48 Bend                     6     5     7               122.80065
   49 Bend                     7     9    10               108.23681
   50 Bend                     7     9    11               109.07036
   51 Bend                     7     9    15               110.81359
   52 Bend                     8     7     9               118.30247
   53 Bend                     9    11    12               109.96911
   54 Bend                     9    11    13               109.57416
   55 Bend                     9    11    14               110.07528
   56 Bend                     9    15    16               120.28806
   57 Bend                     9    15    17               116.72968
   58 Bend                    10     9    11               108.24509
   59 Bend                    10     9    15               108.35049
   60 Bend                    11     9    15               112.01643
   61 Bend                    12    11    13               108.76228
   62 Bend                    12    11    14               109.46293
   63 Bend                    13    11    14               108.97097
   64 Bend                    15    17    18               117.06499
   65 Bend                    15    17    19               125.69956
   66 Bend                    16    15    17               122.98136
   67 Bend                    17    19    20               106.44217
   68 Bend                    17    19    21               111.19129
   69 Bend                    17    19    34               115.07755
   70 Bend                    18    17    19               116.77543
   71 Bend                    19    21    22               108.30706
   72 Bend                    19    21    23               108.34167
   73 Bend                    19    21    24               116.08268
   74 Bend                    19    34    35               120.47632
   75 Bend                    19    34    36               119.73554
   76 Bend                    20    19    21               106.59204
   77 Bend                    20    19    34               104.01250
   78 Bend                    21    19    34               112.69129
   79 Bend                    21    24    25               109.76496
   80 Bend                    21    24    26               109.76479
   81 Bend                    21    24    30               112.39120
   82 Bend                    22    21    23               107.09860
   83 Bend                    22    21    24               108.39515
   84 Bend                    23    21    24               108.27327
   85 Bend                    24    26    27               109.47251
   86 Bend                    24    26    28               110.10397
   87 Bend                    24    26    29               109.91283
   88 Bend                    24    30    31               109.93445
   89 Bend                    24    30    32               110.13429
   90 Bend                    24    30    33               109.69262
   91 Bend                    25    24    26               108.00035
   92 Bend                    25    24    30               108.74218
   93 Bend                    26    24    30               108.06350
   94 Bend                    27    26    28               109.20195
   95 Bend                    27    26    29               108.72266
   96 Bend                    28    26    29               109.40231
   97 Bend                    31    30    32               109.47221
   98 Bend                    31    30    33               109.17410
   99 Bend                    32    30    33               108.40525
  100 Bend                    34    36    37               118.06205
  101 Bend                    34    36    38               120.73262
  102 Bend                    35    34    36               119.75216
  103 Bend                    37    36    38               121.17981
  104 Torsion                  1     2     5     6         118.64263
  105 Torsion                  1     2     5     7         -61.06133
  106 Torsion                  2     5     7     8           2.93622
  107 Torsion                  2     5     7     9         176.19319
  108 Torsion                  3     2     5     6        -120.79924
  109 Torsion                  3     2     5     7          59.49679
  110 Torsion                  4     2     5     6          -0.87119
  111 Torsion                  4     2     5     7         179.42485
  112 Torsion                  5     7     9    10          57.58743
  113 Torsion                  5     7     9    11         175.14817
  114 Torsion                  5     7     9    15         -61.08974
  115 Torsion                  6     5     7     8        -176.75982
  116 Torsion                  6     5     7     9          -3.50285
  117 Torsion                  7     9    11    12          62.01242
  118 Torsion                  7     9    11    13        -178.48848
  119 Torsion                  7     9    11    14         -58.66719
  120 Torsion                  7     9    15    16         -54.36244
  121 Torsion                  7     9    15    17         125.30402
  122 Torsion                  8     7     9    10        -129.12764
  123 Torsion                  8     7     9    11         -11.56690
  124 Torsion                  8     7     9    15         112.19520
  125 Torsion                  9    15    17    18          -1.03539
  126 Torsion                  9    15    17    19        -172.96971
  127 Torsion                 10     9    11    12         179.56794
  128 Torsion                 10     9    11    13         -60.93296
  129 Torsion                 10     9    11    14          58.88833
  130 Torsion                 10     9    15    16        -172.97080
  131 Torsion                 10     9    15    17           6.69567
  132 Torsion                 11     9    15    16          67.69341
  133 Torsion                 11     9    15    17        -112.64012
  134 Torsion                 12    11     9    15         -61.03433
  135 Torsion                 13    11     9    15          58.46477
  136 Torsion                 14    11     9    15         178.28606
  137 Torsion                 15    17    19    20         174.34983
  138 Torsion                 15    17    19    21         -69.94504
  139 Torsion                 15    17    19    34          59.71498
  140 Torsion                 16    15    17    18         178.62127
  141 Torsion                 16    15    17    19           6.68695
  142 Torsion                 17    19    21    22          71.73431
  143 Torsion                 17    19    21    23        -172.41969
  144 Torsion                 17    19    21    24         -50.40917
  145 Torsion                 17    19    34    35        -169.72403
  146 Torsion                 17    19    34    36          12.46298
  147 Torsion                 18    17    19    20           2.39470
  148 Torsion                 18    17    19    21         118.09983
  149 Torsion                 18    17    19    34        -112.24015
  150 Torsion                 19    21    24    25          60.17530
  151 Torsion                 19    21    24    26         178.73284
  152 Torsion                 19    21    24    30         -60.97644
  153 Torsion                 19    34    36    37        -179.80920
  154 Torsion                 19    34    36    38          -1.62538
  155 Torsion                 20    19    21    22        -172.65307
  156 Torsion                 20    19    21    23         -56.80707
  157 Torsion                 20    19    21    24          65.20345
  158 Torsion                 20    19    34    35          74.24396
  159 Torsion                 20    19    34    36        -103.56903
  160 Torsion                 21    19    34    35         -40.80254
  161 Torsion                 21    19    34    36         141.38447
  162 Torsion                 21    24    26    27         -58.65896
  163 Torsion                 21    24    26    28          61.40102
  164 Torsion                 21    24    26    29        -178.01233
  165 Torsion                 21    24    30    31         -56.55866
  166 Torsion                 21    24    30    32          64.14799
  167 Torsion                 21    24    30    33        -176.61687
  168 Torsion                 22    21    19    34         -59.17255
  169 Torsion                 22    21    24    25         -61.92163
  170 Torsion                 22    21    24    26          56.63591
  171 Torsion                 22    21    24    30         176.92663
  172 Torsion                 23    21    19    34          56.67345
  173 Torsion                 23    21    24    25        -177.77800
  174 Torsion                 23    21    24    26         -59.22046
  175 Torsion                 23    21    24    30          61.07026
  176 Torsion                 24    21    19    34         178.68397
  177 Torsion                 25    24    26    27          60.98304
  178 Torsion                 25    24    26    28        -178.95698
  179 Torsion                 25    24    26    29         -58.37033
  180 Torsion                 25    24    30    31        -178.29466
  181 Torsion                 25    24    30    32         -57.58802
  182 Torsion                 25    24    30    33          61.64713
  183 Torsion                 26    24    30    31          64.71079
  184 Torsion                 26    24    30    32        -174.58256
  185 Torsion                 26    24    30    33         -55.34742
  186 Torsion                 27    26    24    30         178.45625
  187 Torsion                 28    26    24    30         -61.48377
  188 Torsion                 29    26    24    30          59.10288
  189 Torsion                 35    34    36    37           2.36183
  190 Torsion                 35    34    36    38        -179.45435


            XYZ format geometry
            -------------------
    38
 geometry
 H                     0.56641205    -4.66541204     1.43070214
 C                     0.51614788    -4.74662109     0.34622411
 H                    -0.21635750    -5.49848429     0.06209283
 H                     1.49536989    -5.02329340    -0.04283078
 C                     0.11745721    -3.41031989    -0.23410843
 O                     0.87030906    -2.81792528    -0.99839157
 N                    -1.06862159    -2.92514150     0.13104086
 H                    -1.61653888    -3.43944196     0.80057628
 C                    -1.54484816    -1.60845331    -0.28918699
 H                    -1.54996440    -1.57931241    -1.37954318
 C                    -2.98388939    -1.41580294     0.20284166
 H                    -3.01237234    -1.44795813     1.29310253
 H                    -3.35711742    -0.44581001    -0.12954148
 H                    -3.62571629    -2.19995682    -0.20077068
 C                    -0.60624260    -0.49809267     0.22140468
 O                    -0.33663780    -0.41597724     1.41710711
 N                    -0.11221407     0.34276399    -0.69693398
 H                    -0.37535120     0.18070970    -1.65501918
 C                     0.91084068     1.37819640    -0.45455883
 H                     1.15285829     1.80618866    -1.42688342
 C                     0.34584344     2.53146346     0.40736125
 H                     0.21659790     2.16565417     1.42703284
 H                     1.08961278     3.32847550     0.44442836
 C                    -0.98903356     3.13814982    -0.06423608
 H                    -1.76187728     2.36804902    -0.07238147
 C                    -1.42789101     4.23790610     0.90367623
 H                    -1.53288960     3.82003333     1.90505910
 H                    -0.68628573     5.03666518     0.92442572
 H                    -2.38898541     4.64453398     0.59200440
 C                    -0.88934774     3.74993546    -1.46431253
 H                    -0.10084574     4.50203195    -1.48591042
 H                    -0.67185109     2.97501223    -2.19723149
 H                    -1.83794910     4.21786692    -1.72922118
 C                     2.26858535     0.84931722     0.07087262
 O                     3.12052449     1.62640085     0.48195865
 N                     2.52671486    -0.45264892     0.03482650
 H                     3.41469157    -0.76870252     0.38507426
 H                     1.83810651    -1.10572200    -0.30895846

 ==============================================================================
                                internuclear distances
 ------------------------------------------------------------------------------
       center one      |      center two      | atomic units |  angstroms
 ------------------------------------------------------------------------------
    2 C                |   1 H                |     2.05730  |     1.08868
    3 H                |   2 C                |     2.05502  |     1.08747
    4 H                |   2 C                |     2.05866  |     1.08940
    5 C                |   2 C                |     2.85433  |     1.51044
    6 O                |   5 C                |     2.31586  |     1.22550
    7 N                |   5 C                |     2.51803  |     1.33248
    8 H                |   7 N                |     1.90197  |     1.00648
    9 C                |   7 N                |     2.76253  |     1.46187
   10 H                |   9 C                |     2.06123  |     1.09076
   11 C                |   9 C                |     2.89692  |     1.53299
   12 H                |  11 C                |     2.06189  |     1.09111
   13 H                |  11 C                |     2.06202  |     1.09118
   14 H                |  11 C                |     2.06122  |     1.09075
   15 C                |   9 C                |     2.91201  |     1.54097
   16 O                |  15 C                |     2.32147  |     1.22847
   17 N                |  15 C                |     2.53142  |     1.33957
   18 H                |  17 N                |     1.90237  |     1.00669
   19 C                |  17 N                |     2.78855  |     1.47564
   20 H                |  19 C                |     2.05899  |     1.08957
   21 C                |  19 C                |     2.92276  |     1.54666
   22 H                |  21 C                |     2.06167  |     1.09099
   23 H                |  21 C                |     2.06127  |     1.09078
   24 C                |  21 C                |     2.91065  |     1.54025
   25 H                |  24 C                |     2.06180  |     1.09106
   26 C                |  24 C                |     2.89005  |     1.52935
   27 H                |  26 C                |     2.06007  |     1.09014
   28 H                |  26 C                |     2.06008  |     1.09015
   29 H                |  26 C                |     2.05814  |     1.08912
   30 C                |  24 C                |     2.89346  |     1.53115
   31 H                |  30 C                |     2.05959  |     1.08989
   32 H                |  30 C                |     2.05710  |     1.08857
   33 H                |  30 C                |     2.06056  |     1.09040
   34 C                |  19 C                |     2.92710  |     1.54896
   35 O                |  34 C                |     2.31339  |     1.22419
   36 N                |  34 C                |     2.50917  |     1.32780
   37 H                |  36 N                |     1.90015  |     1.00552
   38 H                |  36 N                |     1.90748  |     1.00939
 ------------------------------------------------------------------------------
                         number of included internuclear distances:         37
 ==============================================================================



 ==============================================================================
                                 internuclear angles
 ------------------------------------------------------------------------------
        center 1       |       center 2       |       center 3       |  degrees
 ------------------------------------------------------------------------------
    1 H                |   2 C                |   3 H                |   110.06
    1 H                |   2 C                |   4 H                |   109.46
    1 H                |   2 C                |   5 C                |   109.20
    3 H                |   2 C                |   4 H                |   109.67
    3 H                |   2 C                |   5 C                |   109.48
    4 H                |   2 C                |   5 C                |   108.95
    2 C                |   5 C                |   6 O                |   120.34
    2 C                |   5 C                |   7 N                |   116.86
    6 O                |   5 C                |   7 N                |   122.80
    5 C                |   7 N                |   8 H                |   118.74
    5 C                |   7 N                |   9 C                |   122.63
    8 H                |   7 N                |   9 C                |   118.30
    7 N                |   9 C                |  10 H                |   108.24
    7 N                |   9 C                |  11 C                |   109.07
    7 N                |   9 C                |  15 C                |   110.81
   10 H                |   9 C                |  11 C                |   108.25
   10 H                |   9 C                |  15 C                |   108.35
   11 C                |   9 C                |  15 C                |   112.02
    9 C                |  11 C                |  12 H                |   109.97
    9 C                |  11 C                |  13 H                |   109.57
    9 C                |  11 C                |  14 H                |   110.08
   12 H                |  11 C                |  13 H                |   108.76
   12 H                |  11 C                |  14 H                |   109.46
   13 H                |  11 C                |  14 H                |   108.97
    9 C                |  15 C                |  16 O                |   120.29
    9 C                |  15 C                |  17 N                |   116.73
   16 O                |  15 C                |  17 N                |   122.98
   15 C                |  17 N                |  18 H                |   117.06
   15 C                |  17 N                |  19 C                |   125.70
   18 H                |  17 N                |  19 C                |   116.78
   17 N                |  19 C                |  20 H                |   106.44
   17 N                |  19 C                |  21 C                |   111.19
   17 N                |  19 C                |  34 C                |   115.08
   20 H                |  19 C                |  21 C                |   106.59
   20 H                |  19 C                |  34 C                |   104.01
   21 C                |  19 C                |  34 C                |   112.69
   19 C                |  21 C                |  22 H                |   108.31
   19 C                |  21 C                |  23 H                |   108.34
   19 C                |  21 C                |  24 C                |   116.08
   22 H                |  21 C                |  23 H                |   107.10
   22 H                |  21 C                |  24 C                |   108.40
   23 H                |  21 C                |  24 C                |   108.27
   21 C                |  24 C                |  25 H                |   109.76
   21 C                |  24 C                |  26 C                |   109.76
   21 C                |  24 C                |  30 C                |   112.39
   25 H                |  24 C                |  26 C                |   108.00
   25 H                |  24 C                |  30 C                |   108.74
   26 C                |  24 C                |  30 C                |   108.06
   24 C                |  26 C                |  27 H                |   109.47
   24 C                |  26 C                |  28 H                |   110.10
   24 C                |  26 C                |  29 H                |   109.91
   27 H                |  26 C                |  28 H                |   109.20
   27 H                |  26 C                |  29 H                |   108.72
   28 H                |  26 C                |  29 H                |   109.40
   24 C                |  30 C                |  31 H                |   109.93
   24 C                |  30 C                |  32 H                |   110.13
   24 C                |  30 C                |  33 H                |   109.69
   31 H                |  30 C                |  32 H                |   109.47
   31 H                |  30 C                |  33 H                |   109.17
   32 H                |  30 C                |  33 H                |   108.41
   19 C                |  34 C                |  35 O                |   120.48
   19 C                |  34 C                |  36 N                |   119.74
   35 O                |  34 C                |  36 N                |   119.75
   34 C                |  36 N                |  37 H                |   118.06
   34 C                |  36 N                |  38 H                |   120.73
   37 H                |  36 N                |  38 H                |   121.18
 ------------------------------------------------------------------------------
                            number of included internuclear angles:         66
 ==============================================================================



  library name resolved from: environment
  library file name is: </opt/rit/el9/20230413/app/linux-rhel9-x86_64_v3/gcc-11.2.1/nwchem-7.2.0-oxtctbuhfuzyfaoziquq6bki22grib3g/share/nwchem/libraries/>
  


 Summary of "ao basis" -> "" (cartesian)
 ------------------------------------------------------------------------------
       Tag                 Description            Shells   Functions and Types
 ---------------- ------------------------------  ------  ---------------------
 *                        aug-cc-pvdz                 on all atoms 


                      Basis "ao basis" -> "ao basis" (cartesian)
                      -----
  H (Hydrogen)
  ------------
            Exponent  Coefficients 
       -------------- ---------------------------------------------------------
  1 S  1.30100000E+01  0.019685
  1 S  1.96200000E+00  0.137977
  1 S  4.44600000E-01  0.478148

  2 S  1.22000000E-01  1.000000

  3 S  2.97400000E-02  1.000000

  4 P  7.27000000E-01  1.000000

  5 P  1.41000000E-01  1.000000

  C (Carbon)
  ----------
            Exponent  Coefficients 
       -------------- ---------------------------------------------------------
  1 S  6.66500000E+03  0.000692
  1 S  1.00000000E+03  0.005329
  1 S  2.28000000E+02  0.027077
  1 S  6.47100000E+01  0.101718
  1 S  2.10600000E+01  0.274740
  1 S  7.49500000E+00  0.448564
  1 S  2.79700000E+00  0.285074
  1 S  5.21500000E-01  0.015204

  2 S  6.66500000E+03 -0.000146
  2 S  1.00000000E+03 -0.001154
  2 S  2.28000000E+02 -0.005725
  2 S  6.47100000E+01 -0.023312
  2 S  2.10600000E+01 -0.063955
  2 S  7.49500000E+00 -0.149981
  2 S  2.79700000E+00 -0.127262
  2 S  5.21500000E-01  0.544529

  3 S  1.59600000E-01  1.000000

  4 S  4.69000000E-02  1.000000

  5 P  9.43900000E+00  0.038109
  5 P  2.00200000E+00  0.209480
  5 P  5.45600000E-01  0.508557

  6 P  1.51700000E-01  1.000000

  7 P  4.04100000E-02  1.000000

  8 D  5.50000000E-01  1.000000

  9 D  1.51000000E-01  1.000000

  O (Oxygen)
  ----------
            Exponent  Coefficients 
       -------------- ---------------------------------------------------------
  1 S  1.17200000E+04  0.000710
  1 S  1.75900000E+03  0.005470
  1 S  4.00800000E+02  0.027837
  1 S  1.13700000E+02  0.104800
  1 S  3.70300000E+01  0.283062
  1 S  1.32700000E+01  0.448719
  1 S  5.02500000E+00  0.270952
  1 S  1.01300000E+00  0.015458

  2 S  1.17200000E+04 -0.000160
  2 S  1.75900000E+03 -0.001263
  2 S  4.00800000E+02 -0.006267
  2 S  1.13700000E+02 -0.025716
  2 S  3.70300000E+01 -0.070924
  2 S  1.32700000E+01 -0.165411
  2 S  5.02500000E+00 -0.116955
  2 S  1.01300000E+00  0.557368

  3 S  3.02300000E-01  1.000000

  4 S  7.89600000E-02  1.000000

  5 P  1.77000000E+01  0.043018
  5 P  3.85400000E+00  0.228913
  5 P  1.04600000E+00  0.508728

  6 P  2.75300000E-01  1.000000

  7 P  6.85600000E-02  1.000000

  8 D  1.18500000E+00  1.000000

  9 D  3.32000000E-01  1.000000

  N (Nitrogen)
  ------------
            Exponent  Coefficients 
       -------------- ---------------------------------------------------------
  1 S  9.04600000E+03  0.000700
  1 S  1.35700000E+03  0.005389
  1 S  3.09300000E+02  0.027406
  1 S  8.77300000E+01  0.103207
  1 S  2.85600000E+01  0.278723
  1 S  1.02100000E+01  0.448540
  1 S  3.83800000E+00  0.278238
  1 S  7.46600000E-01  0.015440

  2 S  9.04600000E+03 -0.000153
  2 S  1.35700000E+03 -0.001208
  2 S  3.09300000E+02 -0.005992
  2 S  8.77300000E+01 -0.024544
  2 S  2.85600000E+01 -0.067459
  2 S  1.02100000E+01 -0.158078
  2 S  3.83800000E+00 -0.121831
  2 S  7.46600000E-01  0.549003

  3 S  2.24800000E-01  1.000000

  4 S  6.12400000E-02  1.000000

  5 P  1.35500000E+01  0.039919
  5 P  2.91700000E+00  0.217169
  5 P  7.97300000E-01  0.510319

  6 P  2.18500000E-01  1.000000

  7 P  5.61100000E-02  1.000000

  8 D  8.17000000E-01  1.000000

  9 D  2.30000000E-01  1.000000



 Summary of "ao basis" -> "ao basis" (cartesian)
 ------------------------------------------------------------------------------
       Tag                 Description            Shells   Functions and Types
 ---------------- ------------------------------  ------  ---------------------
 H                        aug-cc-pvdz                5        9   3s2p
 C                        aug-cc-pvdz                9       25   4s3p2d
 O                        aug-cc-pvdz                9       25   4s3p2d
 N                        aug-cc-pvdz                9       25   4s3p2d


                                 NWChem SCF Module
                                 -----------------



  ao basis        = "ao basis"
  functions       =   614
  atoms           =    38
  closed shells   =    66
  open shells     =     0
  charge          =   0.00
  wavefunction    = RHF 
  input vectors   = atomic
  output vectors  = ./ALA_LEU_3.movecs
  use symmetry    = F
  symmetry adapt  = F


 Summary of "ao basis" -> "ao basis" (cartesian)
 ------------------------------------------------------------------------------
       Tag                 Description            Shells   Functions and Types
 ---------------- ------------------------------  ------  ---------------------
 H                        aug-cc-pvdz                5        9   3s2p
 C                        aug-cc-pvdz                9       25   4s3p2d
 O                        aug-cc-pvdz                9       25   4s3p2d
 N                        aug-cc-pvdz                9       25   4s3p2d



 Forming initial guess at       1.2s


 !! The overlap matrix has   5 vectors deemed linearly dependent with
    eigenvalues:
 2.50D-06 2.95D-06 4.70D-06 6.63D-06 8.31D-06


      Superposition of Atomic Density Guess
      -------------------------------------

 Sum of atomic energies:        -812.03184720

      Non-variational initial energy
      ------------------------------

 Total energy =    -823.478625
 1-e energy   =   -3736.373609
 2-e energy   =    1586.635254
 HOMO         =      -0.310594
 LUMO         =       0.011525


 Starting SCF solution at     290.4s



 ----------------------------------------------
         Quadratically convergent ROHF

 Convergence threshold     :          1.000E-04
 Maximum no. of iterations :           30
 Final Fock-matrix accuracy:          1.000E-10
 ----------------------------------------------


              iter       energy          gnorm     gmax       time
             ----- ------------------- --------- --------- --------
                 1     -816.5040028400  2.45D+00  1.63D-01    606.8
                 2     -816.8289457565  8.53D-01  4.40D-02   1280.5
                 3     -816.8921343407  6.45D-02  3.86D-03   2220.0
                 4     -816.8927490204  1.85D-03  1.07D-04   3807.4
                 5     -816.8927494835  4.41D-06  3.22D-07   5639.8


       Final RHF  results 
       ------------------ 

         Total SCF energy =   -816.892749483533
      One-electron energy =  -3750.016941532795
      Two-electron energy =   1606.864461810438
 Nuclear repulsion energy =   1326.259730238824

        Time for solution =   5353.4s


             Final eigenvalues
             -----------------

              1      
    1  -20.5456
    2  -20.5344
    3  -20.5032
    4  -15.6176
    5  -15.6086
    6  -15.5665
    7  -11.3744
    8  -11.3661
    9  -11.3416
   10  -11.3133
   11  -11.2945
   12  -11.2593
   13  -11.2557
   14  -11.2303
   15  -11.2205
   16  -11.2198
   17  -11.2140
   18   -1.4099
   19   -1.3913
   20   -1.3660
   21   -1.2651
   22   -1.2513
   23   -1.1932
   24   -1.0961
   25   -1.0761
   26   -1.0166
   27   -1.0062
   28   -0.9301
   29   -0.9138
   30   -0.8850
   31   -0.8322
   32   -0.8094
   33   -0.7793
   34   -0.7537
   35   -0.7399
   36   -0.7235
   37   -0.6998
   38   -0.6883
   39   -0.6682
   40   -0.6492
   41   -0.6329
   42   -0.6215
   43   -0.6150
   44   -0.6007
   45   -0.5982
   46   -0.5931
   47   -0.5876
   48   -0.5793
   49   -0.5621
   50   -0.5605
   51   -0.5510
   52   -0.5466
   53   -0.5397
   54   -0.5310
   55   -0.5276
   56   -0.5123
   57   -0.5003
   58   -0.4668
   59   -0.4597
   60   -0.4558
   61   -0.4453
   62   -0.4433
   63   -0.4228
   64   -0.4092
   65   -0.3900
   66   -0.3823
   67    0.0210
   68    0.0298
   69    0.0375
   70    0.0403
   71    0.0489
   72    0.0494
   73    0.0548
   74    0.0577
   75    0.0627
   76    0.0671

                       ROHF Final Molecular Orbital Analysis
                       -------------------------------------

 Vector   18  Occ=2.000000D+00  E=-1.409891D+00
              MO Center=  3.2D-01, -2.7D+00, -5.0D-01, r^2= 1.8D+00
   Bfn.  Coefficient  Atom+Function         Bfn.  Coefficient  Atom+Function  
  ----- ------------  ---------------      ----- ------------  ---------------
    80      0.336116   6 O  s                79      0.328243   6 O  s         
    54      0.232185   5 C  s                12      0.198853   2 C  s         

 Vector   19  Occ=2.000000D+00  E=-1.391264D+00
              MO Center= -2.2D-01, -6.1D-01,  6.4D-01, r^2= 2.1D+00
   Bfn.  Coefficient  Atom+Function         Bfn.  Coefficient  Atom+Function  
  ----- ------------  ---------------      ----- ------------  ---------------
   250      0.353135  16 O  s               249      0.327264  16 O  s         
   224      0.232677  15 C  s         

 Vector   20  Occ=2.000000D+00  E=-1.365954D+00
              MO Center=  2.7D+00,  1.2D+00,  3.3D-01, r^2= 1.2D+00
   Bfn.  Coefficient  Atom+Function         Bfn.  Coefficient  Atom+Function  
  ----- ------------  ---------------      ----- ------------  ---------------
   549      0.378219  35 O  s               548      0.349654  35 O  s         
   523      0.245011  34 C  s         

 Vector   21  Occ=2.000000D+00  E=-1.265112D+00
              MO Center= -7.6D-01, -2.8D+00, -3.8D-02, r^2= 1.7D+00
   Bfn.  Coefficient  Atom+Function         Bfn.  Coefficient  Atom+Function  
  ----- ------------  ---------------      ----- ------------  ---------------
   105      0.424572   7 N  s               104      0.343244   7 N  s         
    80     -0.217398   6 O  s                79     -0.181994   6 O  s         
    57     -0.170265   5 C  px              139     -0.158727   9 C  s         
   128      0.156868   8 H  s         

 Vector   22  Occ=2.000000D+00  E=-1.251267D+00
              MO Center=  8.9D-03,  2.5D-01, -3.2D-01, r^2= 2.0D+00
   Bfn.  Coefficient  Atom+Function         Bfn.  Coefficient  Atom+Function  
  ----- ------------  ---------------      ----- ------------  ---------------
   275      0.360532  17 N  s               274      0.341650  17 N  s         
   250     -0.223933  16 O  s               229     -0.178784  15 C  pz        
   249     -0.177279  16 O  s               309     -0.170009  19 C  s         
   298      0.158692  18 H  s         

 Vector   23  Occ=2.000000D+00  E=-1.193248D+00
              MO Center=  2.4D+00, -5.1D-02,  6.1D-02, r^2= 1.5D+00
   Bfn.  Coefficient  Atom+Function         Bfn.  Coefficient  Atom+Function  
  ----- ------------  ---------------      ----- ------------  ---------------
   574      0.392861  36 N  s               573      0.369491  36 N  s         
   309     -0.226975  19 C  s               527     -0.206008  34 C  py        
   549     -0.204529  35 O  s               548     -0.173740  35 O  s         
   606      0.164056  38 H  s               597      0.159261  37 H  s         

 Vector   24  Occ=2.000000D+00  E=-1.096121D+00
              MO Center= -5.8D-01,  2.3D+00, -8.1D-02, r^2= 5.6D+00
   Bfn.  Coefficient  Atom+Function         Bfn.  Coefficient  Atom+Function  
  ----- ------------  ---------------      ----- ------------  ---------------
   343      0.398603  21 C  s               385      0.228354  24 C  s         
   386     -0.193121  24 C  s               342      0.188526  21 C  s         

 Vector   25  Occ=2.000000D+00  E=-1.076088D+00
              MO Center= -1.3D+00, -1.2D+00, -3.1D-02, r^2= 8.1D+00
   Bfn.  Coefficient  Atom+Function         Bfn.  Coefficient  Atom+Function  
  ----- ------------  ---------------      ----- ------------  ---------------
   138      0.222521   9 C  s               172      0.199723  11 C  s         
   343      0.172826  21 C  s               144     -0.152675   9 C  px        

 Vector   26  Occ=2.000000D+00  E=-1.016580D+00
              MO Center=  2.4D-01,  1.3D-01, -1.1D-01, r^2= 1.2D+01
   Bfn.  Coefficient  Atom+Function         Bfn.  Coefficient  Atom+Function  
  ----- ------------  ---------------      ----- ------------  ---------------
   308      0.228517  19 C  s                11     -0.185738   2 C  s         

 Vector   27  Occ=2.000000D+00  E=-1.006177D+00
              MO Center= -4.8D-01, -2.4D+00,  1.2D-01, r^2= 1.0D+01
   Bfn.  Coefficient  Atom+Function         Bfn.  Coefficient  Atom+Function  
  ----- ------------  ---------------      ----- ------------  ---------------
    11      0.265338   2 C  s               172      0.191652  11 C  s         
   144     -0.188294   9 C  px              174      0.160557  11 C  s         

 Vector   28  Occ=2.000000D+00  E=-9.301159D-01
              MO Center= -1.0D+00,  3.8D+00, -5.0D-01, r^2= 3.2D+00
   Bfn.  Coefficient  Atom+Function         Bfn.  Coefficient  Atom+Function  
  ----- ------------  ---------------      ----- ------------  ---------------
   393      0.396578  24 C  pz              471     -0.298293  30 C  s         
   473     -0.279252  30 C  s               419      0.235413  26 C  s         
   421      0.232204  26 C  s               479      0.167082  30 C  pz        
   504     -0.161408  32 H  s               407      0.159831  24 C  dyz       

 Vector   29  Occ=2.000000D+00  E=-9.137937D-01
              MO Center= -1.3D+00,  5.9D-02,  1.7D-01, r^2= 8.8D+00
   Bfn.  Coefficient  Atom+Function         Bfn.  Coefficient  Atom+Function  
  ----- ------------  ---------------      ----- ------------  ---------------
   139      0.298411   9 C  s               144      0.287959   9 C  px        
   172     -0.203794  11 C  s               231      0.201271  15 C  py        
   342      0.170139  21 C  s               225     -0.166454  15 C  s         
   145      0.161082   9 C  py              138      0.152261   9 C  s         

 Vector   30  Occ=2.000000D+00  E=-8.849932D-01
              MO Center= -2.4D-01,  8.8D-01,  8.9D-02, r^2= 9.7D+00
   Bfn.  Coefficient  Atom+Function         Bfn.  Coefficient  Atom+Function  
  ----- ------------  ---------------      ----- ------------  ---------------
   342      0.183881  21 C  s               314     -0.182270  19 C  px        
   309     -0.165959  19 C  s               472     -0.161774  30 C  s         

 Vector   31  Occ=2.000000D+00  E=-8.321884D-01
              MO Center= -2.9D-01, -1.9D+00, -5.9D-02, r^2= 6.4D+00
   Bfn.  Coefficient  Atom+Function         Bfn.  Coefficient  Atom+Function  
  ----- ------------  ---------------      ----- ------------  ---------------
   107      0.266276   7 N  px              309      0.205749  19 C  s         
    54      0.183220   5 C  s               139      0.180322   9 C  s         
   128     -0.178285   8 H  s               314      0.152932  19 C  px        

 Vector   32  Occ=2.000000D+00  E=-8.093626D-01
              MO Center= -1.2D-01, -1.0D+00, -2.0D-01, r^2= 5.8D+00
   Bfn.  Coefficient  Atom+Function         Bfn.  Coefficient  Atom+Function  
  ----- ------------  ---------------      ----- ------------  ---------------
   279      0.235741  17 N  pz              309      0.220590  19 C  s         
   128      0.217460   8 H  s               298     -0.183968  18 H  s         
   107     -0.181747   7 N  px              105      0.163013   7 N  s         

 Vector   33  Occ=2.000000D+00  E=-7.792785D-01
              MO Center=  5.7D-01,  1.7D+00, -4.3D-02, r^2= 8.3D+00
   Bfn.  Coefficient  Atom+Function         Bfn.  Coefficient  Atom+Function  
  ----- ------------  ---------------      ----- ------------  ---------------
   386      0.376163  24 C  s               420     -0.292240  26 C  s         
   577      0.255106  36 N  py              472     -0.201958  30 C  s         
   385      0.192405  24 C  s               343     -0.174053  21 C  s         
   409      0.163136  25 H  s               523      0.160954  34 C  s         

 Vector   34  Occ=2.000000D+00  E=-7.537278D-01
              MO Center=  2.6D-01,  1.5D+00, -1.3D-01, r^2= 6.7D+00
   Bfn.  Coefficient  Atom+Function         Bfn.  Coefficient  Atom+Function  
  ----- ------------  ---------------      ----- ------------  ---------------
   343      0.411755  21 C  s               386     -0.390535  24 C  s         
   298      0.197218  18 H  s               577      0.194176  36 N  py        
   279     -0.184970  17 N  pz              420      0.185263  26 C  s         
   409     -0.164136  25 H  s               385     -0.154328  24 C  s         

 Vector   35  Occ=2.000000D+00  E=-7.399246D-01
              MO Center= -6.2D-01, -1.0D+00, -9.9D-02, r^2= 5.4D+00
   Bfn.  Coefficient  Atom+Function         Bfn.  Coefficient  Atom+Function  
  ----- ------------  ---------------      ----- ------------  ---------------
   225     -0.308962  15 C  s               145      0.290964   9 C  py        
   142      0.199232   9 C  py               55     -0.196267   5 C  s         
   109      0.189482   7 N  pz              163     -0.175755  10 H  s         
   279     -0.170721  17 N  pz              228     -0.164198  15 C  py        

 Vector   36  Occ=2.000000D+00  E=-7.235423D-01
              MO Center=  1.4D+00, -5.1D-01, -8.9D-02, r^2= 5.5D+00
   Bfn.  Coefficient  Atom+Function         Bfn.  Coefficient  Atom+Function  
  ----- ------------  ---------------      ----- ------------  ---------------
   576      0.267150  36 N  px              606     -0.249129  38 H  s         
   314     -0.210330  19 C  px              597      0.202068  37 H  s         
   607     -0.198619  38 H  s               525     -0.176921  34 C  s         
   343     -0.154951  21 C  s         

 Vector   37  Occ=2.000000D+00  E=-6.997857D-01
              MO Center= -6.6D-01, -2.3D+00, -6.3D-03, r^2= 5.9D+00
   Bfn.  Coefficient  Atom+Function         Bfn.  Coefficient  Atom+Function  
  ----- ------------  ---------------      ----- ------------  ---------------
   139      0.290390   9 C  s               231      0.210455  15 C  py        
   162      0.192034  10 H  s               108     -0.187829   7 N  py        
   143     -0.184123   9 C  pz              145      0.174415   9 C  py        
    58     -0.172616   5 C  py               18      0.151996   2 C  py        

 Vector   38  Occ=2.000000D+00  E=-6.882570D-01
              MO Center=  5.7D-01, -2.0D+00, -3.2D-01, r^2= 7.2D+00
   Bfn.  Coefficient  Atom+Function         Bfn.  Coefficient  Atom+Function  
  ----- ------------  ---------------      ----- ------------  ---------------
    80     -0.217923   6 O  s                57      0.212607   5 C  px        
    84      0.197512   6 O  pz               83     -0.187972   6 O  py        
    13     -0.172996   2 C  s               576     -0.172617  36 N  px        
    18      0.158619   2 C  py              525      0.155207  34 C  s         
   343      0.151578  21 C  s         

 Vector   39  Occ=2.000000D+00  E=-6.681853D-01
              MO Center=  6.3D-01, -2.6D-01, -1.7D-01, r^2= 7.9D+00
   Bfn.  Coefficient  Atom+Function         Bfn.  Coefficient  Atom+Function  
  ----- ------------  ---------------      ----- ------------  ---------------
   139      0.336900   9 C  s               225     -0.250741  15 C  s         
   145      0.238066   9 C  py              278      0.188945  17 N  py        
   311     -0.187629  19 C  px              527     -0.183289  34 C  py        
   597     -0.158864  37 H  s         

 Vector   40  Occ=2.000000D+00  E=-6.492271D-01
              MO Center=  3.6D-02,  1.4D+00,  6.3D-02, r^2= 8.8D+00
   Bfn.  Coefficient  Atom+Function         Bfn.  Coefficient  Atom+Function  
  ----- ------------  ---------------      ----- ------------  ---------------
   225      0.282056  15 C  s               139     -0.183597   9 C  s         
   313     -0.176271  19 C  pz              254     -0.163504  16 O  pz        
   346      0.162693  21 C  py              391      0.157558  24 C  px        

 Vector   41  Occ=2.000000D+00  E=-6.328681D-01
              MO Center= -6.4D-03, -2.5D+00,  1.3D-01, r^2= 9.9D+00
   Bfn.  Coefficient  Atom+Function         Bfn.  Coefficient  Atom+Function  
  ----- ------------  ---------------      ----- ------------  ---------------
   139      0.231080   9 C  s                16      0.203133   2 C  pz        
    35     -0.197029   3 H  s                 1      0.186986   1 H  s         
    59      0.181009   5 C  pz              225     -0.169942  15 C  s         
    15      0.152388   2 C  py        

 Vector   42  Occ=2.000000D+00  E=-6.215059D-01
              MO Center=  4.8D-01,  1.2D+00, -1.6D-01, r^2= 8.9D+00
   Bfn.  Coefficient  Atom+Function         Bfn.  Coefficient  Atom+Function  
  ----- ------------  ---------------      ----- ------------  ---------------
   312      0.190971  19 C  py              277     -0.169876  17 N  px        
   309      0.162213  19 C  s               315      0.153102  19 C  py        

 Vector   43  Occ=2.000000D+00  E=-6.149859D-01
              MO Center= -9.3D-01, -3.1D-01,  5.1D-01, r^2= 8.6D+00
   Bfn.  Coefficient  Atom+Function         Bfn.  Coefficient  Atom+Function  
  ----- ------------  ---------------      ----- ------------  ---------------
   254      0.329376  16 O  pz              229     -0.227517  15 C  pz        
   250      0.218008  16 O  s               214     -0.166927  14 H  s         
   257      0.167145  16 O  pz              215     -0.160879  14 H  s         

 Vector   44  Occ=2.000000D+00  E=-6.007022D-01
              MO Center= -3.8D-01, -2.0D+00, -1.0D-01, r^2= 9.2D+00
   Bfn.  Coefficient  Atom+Function         Bfn.  Coefficient  Atom+Function  
  ----- ------------  ---------------      ----- ------------  ---------------
   139      0.261656   9 C  s                82     -0.244275   6 O  px        
    58      0.230694   5 C  py              145      0.168959   9 C  py        
    84      0.168069   6 O  pz              225     -0.156469  15 C  s         
    59     -0.155479   5 C  pz              206      0.151431  13 H  s         

 Vector   45  Occ=2.000000D+00  E=-5.981723D-01
              MO Center=  5.4D-01,  1.1D+00,  1.0D-01, r^2= 9.9D+00
   Bfn.  Coefficient  Atom+Function         Bfn.  Coefficient  Atom+Function  
  ----- ------------  ---------------      ----- ------------  ---------------
   551      0.224138  35 O  px              549      0.182475  35 O  s         
   527     -0.168957  34 C  py        

 Vector   46  Occ=2.000000D+00  E=-5.930696D-01
              MO Center= -7.1D-01,  1.7D+00,  7.8D-02, r^2= 1.0D+01
   Bfn.  Coefficient  Atom+Function         Bfn.  Coefficient  Atom+Function  
  ----- ------------  ---------------      ----- ------------  ---------------
   343      0.262914  21 C  s               225     -0.217157  15 C  s         
   315     -0.195205  19 C  py              145      0.190709   9 C  py        
   444      0.190484  27 H  s               139      0.189269   9 C  s         
   443      0.169099  27 H  s               424      0.165833  26 C  pz        
   309     -0.158515  19 C  s               461     -0.152191  29 H  s         

 Vector   47  Occ=2.000000D+00  E=-5.875623D-01
              MO Center= -2.8D-01, -3.1D+00,  1.2D-01, r^2= 9.4D+00
   Bfn.  Coefficient  Atom+Function         Bfn.  Coefficient  Atom+Function  
  ----- ------------  ---------------      ----- ------------  ---------------
    44      0.274451   4 H  s                14      0.261893   2 C  px        
    45      0.261480   4 H  s               205      0.208286  13 H  s         
   206      0.197392  13 H  s               176      0.190833  11 C  py        
    16     -0.188038   2 C  pz              525      0.170938  34 C  s         
   139      0.169187   9 C  s                 1     -0.159616   1 H  s         

 Vector   48  Occ=2.000000D+00  E=-5.792906D-01
              MO Center=  1.8D-01,  1.1D-01,  7.9D-02, r^2= 1.2D+01
   Bfn.  Coefficient  Atom+Function         Bfn.  Coefficient  Atom+Function  
  ----- ------------  ---------------      ----- ------------  ---------------
   343     -0.198989  21 C  s               139      0.194038   9 C  s         
   144      0.182452   9 C  px              309      0.173302  19 C  s         
   528      0.166169  34 C  pz              225     -0.156845  15 C  s         

 Vector   49  Occ=2.000000D+00  E=-5.621334D-01
              MO Center=  9.5D-01,  6.6D-01, -6.7D-02, r^2= 1.2D+01
   Bfn.  Coefficient  Atom+Function         Bfn.  Coefficient  Atom+Function  
  ----- ------------  ---------------      ----- ------------  ---------------
   526      0.243975  34 C  px              553     -0.204765  35 O  pz        
   552     -0.188434  35 O  py              578     -0.167795  36 N  pz        
   505     -0.156253  32 H  s         

 Vector   50  Occ=2.000000D+00  E=-5.605072D-01
              MO Center= -1.5D+00, -9.4D-01,  4.0D-02, r^2= 1.1D+01
   Bfn.  Coefficient  Atom+Function         Bfn.  Coefficient  Atom+Function  
  ----- ------------  ---------------      ----- ------------  ---------------
   206      0.306175  13 H  s               176      0.274688  11 C  py        
   214     -0.243246  14 H  s                12      0.232575   2 C  s         
    55     -0.233054   5 C  s               205      0.200579  13 H  s         
   215     -0.190742  14 H  s                73      0.166332   5 C  dxy       
    44     -0.161191   4 H  s               173     -0.160201  11 C  s         

 Vector   51  Occ=2.000000D+00  E=-5.510150D-01
              MO Center= -9.7D-01, -1.3D+00,  1.2D-01, r^2= 9.6D+00
   Bfn.  Coefficient  Atom+Function         Bfn.  Coefficient  Atom+Function  
  ----- ------------  ---------------      ----- ------------  ---------------
   177      0.246700  11 C  pz              196      0.234686  12 H  s         
   197      0.215210  12 H  s               108     -0.180025   7 N  py        
   525      0.174347  34 C  s               163      0.171030  10 H  s         
   206     -0.169901  13 H  s         

 Vector   52  Occ=2.000000D+00  E=-5.465689D-01
              MO Center= -8.7D-01, -7.6D-01, -1.7D-01, r^2= 1.2D+01
   Bfn.  Coefficient  Atom+Function         Bfn.  Coefficient  Atom+Function  
  ----- ------------  ---------------      ----- ------------  ---------------
   141      0.227320   9 C  px              175     -0.214924  11 C  px        
   309      0.186698  19 C  s               178     -0.168986  11 C  px        
   475      0.160493  30 C  py              144      0.152293   9 C  px        
   495      0.150022  31 H  s         

 Vector   53  Occ=2.000000D+00  E=-5.396680D-01
              MO Center= -3.1D-01,  2.8D+00, -5.2D-02, r^2= 9.7D+00
   Bfn.  Coefficient  Atom+Function         Bfn.  Coefficient  Atom+Function  
  ----- ------------  ---------------      ----- ------------  ---------------
   452      0.246201  28 H  s               495     -0.221377  31 H  s         
   453      0.206164  28 H  s               423      0.200501  26 C  py        
   475     -0.182038  30 C  py              496     -0.181797  31 H  s         
   422      0.174598  26 C  px              474     -0.153881  30 C  px        

 Vector   54  Occ=2.000000D+00  E=-5.310411D-01
              MO Center= -2.7D-01,  2.4D+00, -1.1D-01, r^2= 1.1D+01
   Bfn.  Coefficient  Atom+Function         Bfn.  Coefficient  Atom+Function  
  ----- ------------  ---------------      ----- ------------  ---------------
   462      0.276631  29 H  s               422     -0.246767  26 C  px        
   514     -0.246763  33 H  s               461      0.233246  29 H  s         
   474      0.210355  30 C  px              513     -0.194839  33 H  s         
   473      0.165118  30 C  s                56      0.152965   5 C  s         
   421     -0.152093  26 C  s               405     -0.151224  24 C  dxz       

 Vector   55  Occ=2.000000D+00  E=-5.275952D-01
              MO Center= -1.5D-01, -7.6D-01,  1.5D-02, r^2= 1.2D+01
   Bfn.  Coefficient  Atom+Function         Bfn.  Coefficient  Atom+Function  
  ----- ------------  ---------------      ----- ------------  ---------------
    84      0.184019   6 O  pz              163      0.159565  10 H  s         
   197      0.157358  12 H  s               514     -0.156291  33 H  s         

 Vector   56  Occ=2.000000D+00  E=-5.123050D-01
              MO Center= -4.1D-01,  8.2D-01,  2.2D-01, r^2= 9.1D+00
   Bfn.  Coefficient  Atom+Function         Bfn.  Coefficient  Atom+Function  
  ----- ------------  ---------------      ----- ------------  ---------------
   375     -0.210500  23 H  s               252      0.193145  16 O  px        
   346     -0.192043  21 C  py              367      0.182190  22 H  s         
   178      0.156149  11 C  px              255      0.152113  16 O  px        

 Vector   57  Occ=2.000000D+00  E=-5.003319D-01
              MO Center=  2.1D-02,  2.2D+00,  1.7D-01, r^2= 6.9D+00
   Bfn.  Coefficient  Atom+Function         Bfn.  Coefficient  Atom+Function  
  ----- ------------  ---------------      ----- ------------  ---------------
   367      0.259011  22 H  s               444     -0.233916  27 H  s         
   347      0.216559  21 C  pz              424     -0.209917  26 C  pz        
   313     -0.205309  19 C  pz              333      0.195000  20 H  s         
   514     -0.193803  33 H  s               443     -0.190799  27 H  s         
   505      0.191020  32 H  s               276     -0.176796  17 N  s         

 Vector   58  Occ=2.000000D+00  E=-4.667718D-01
              MO Center= -6.9D-01,  3.1D+00, -2.8D-02, r^2= 4.1D+00
   Bfn.  Coefficient  Atom+Function         Bfn.  Coefficient  Atom+Function  
  ----- ------------  ---------------      ----- ------------  ---------------
   343      0.325211  21 C  s               389     -0.306858  24 C  py        
   410      0.302902  25 H  s               409      0.266923  25 H  s         
   309     -0.240299  19 C  s               367     -0.228191  22 H  s         
   344     -0.215804  21 C  s               423      0.212669  26 C  py        
   479     -0.181857  30 C  pz              475      0.179789  30 C  py        

 Vector   59  Occ=2.000000D+00  E=-4.597330D-01
              MO Center= -5.8D-01,  3.0D+00,  1.9D-02, r^2= 4.3D+00
   Bfn.  Coefficient  Atom+Function         Bfn.  Coefficient  Atom+Function  
  ----- ------------  ---------------      ----- ------------  ---------------
   388     -0.310634  24 C  px              345      0.285276  21 C  px        
   514     -0.226702  33 H  s               422      0.169692  26 C  px        
   410      0.168553  25 H  s               462     -0.159259  29 H  s         
   409      0.155863  25 H  s               461     -0.152847  29 H  s         

 Vector   60  Occ=2.000000D+00  E=-4.558012D-01
              MO Center= -5.9D-01,  2.8D+00,  1.1D-02, r^2= 5.2D+00
   Bfn.  Coefficient  Atom+Function         Bfn.  Coefficient  Atom+Function  
  ----- ------------  ---------------      ----- ------------  ---------------
   390      0.296176  24 C  pz              476     -0.257440  30 C  pz        
   343     -0.237051  21 C  s               420      0.221155  26 C  s         
   424     -0.215049  26 C  pz              479     -0.184143  30 C  pz        
   426     -0.178270  26 C  py              427     -0.173582  26 C  pz        
   309      0.163212  19 C  s               505      0.163965  32 H  s         

 Vector   61  Occ=2.000000D+00  E=-4.452861D-01
              MO Center= -8.5D-02, -1.3D+00,  2.7D-01, r^2= 5.5D+00
   Bfn.  Coefficient  Atom+Function         Bfn.  Coefficient  Atom+Function  
  ----- ------------  ---------------      ----- ------------  ---------------
   252      0.271895  16 O  px              109      0.243070   7 N  pz        
   253      0.243447  16 O  py              255      0.211067  16 O  px        
    84     -0.206098   6 O  pz              112      0.198540   7 N  pz        
   256      0.185271  16 O  py              343      0.183518  21 C  s         
    87     -0.160393   6 O  pz               83     -0.156686   6 O  py        

 Vector   62  Occ=2.000000D+00  E=-4.433273D-01
              MO Center=  5.2D-01, -2.9D+00, -5.7D-01, r^2= 3.3D+00
   Bfn.  Coefficient  Atom+Function         Bfn.  Coefficient  Atom+Function  
  ----- ------------  ---------------      ----- ------------  ---------------
    83      0.393158   6 O  py               82     -0.340260   6 O  px        
    86      0.313382   6 O  py              525      0.305627  34 C  s         
    85     -0.281433   6 O  px               13     -0.242208   2 C  s         
    15      0.194682   2 C  py               18      0.191503   2 C  py        
   105     -0.160262   7 N  s         

 Vector   63  Occ=2.000000D+00  E=-4.227746D-01
              MO Center=  8.2D-01,  8.4D-01,  2.8D-01, r^2= 5.9D+00
   Bfn.  Coefficient  Atom+Function         Bfn.  Coefficient  Atom+Function  
  ----- ------------  ---------------      ----- ------------  ---------------
   367     -0.314919  22 H  s               253      0.287335  16 O  py        
   309      0.268185  19 C  s               333     -0.264876  20 H  s         
   552     -0.258980  35 O  py              256      0.230961  16 O  py        
   555     -0.203327  35 O  py              551      0.197402  35 O  px        
   277      0.175711  17 N  px              525      0.176396  34 C  s         

 Vector   64  Occ=2.000000D+00  E=-4.092251D-01
              MO Center= -3.7D-01, -1.6D+00,  1.8D-01, r^2= 4.9D+00
   Bfn.  Coefficient  Atom+Function         Bfn.  Coefficient  Atom+Function  
  ----- ------------  ---------------      ----- ------------  ---------------
   109      0.254052   7 N  pz              252     -0.245376  16 O  px        
   234      0.229616  15 C  py              112      0.226559   7 N  pz        
   174      0.214947  11 C  s               253     -0.204512  16 O  py        
   255     -0.199069  16 O  px               84     -0.180309   6 O  pz        
   256     -0.175094  16 O  py              231      0.170675  15 C  py        

 Vector   65  Occ=2.000000D+00  E=-3.899955D-01
              MO Center=  2.2D+00,  7.1D-01,  1.6D-01, r^2= 3.6D+00
   Bfn.  Coefficient  Atom+Function         Bfn.  Coefficient  Atom+Function  
  ----- ------------  ---------------      ----- ------------  ---------------
   551      0.302821  35 O  px              578      0.286374  36 N  pz        
   581      0.243504  36 N  pz              554      0.235755  35 O  px        
   386      0.216072  24 C  s               553     -0.203253  35 O  pz        
   552     -0.194058  35 O  py              343     -0.184737  21 C  s         
   318     -0.164695  19 C  py              277     -0.163827  17 N  px        

 Vector   66  Occ=2.000000D+00  E=-3.823383D-01
              MO Center=  1.8D+00,  6.1D-01,  2.0D-01, r^2= 4.3D+00
   Bfn.  Coefficient  Atom+Function         Bfn.  Coefficient  Atom+Function  
  ----- ------------  ---------------      ----- ------------  ---------------
   553      0.306498  35 O  pz              578     -0.288446  36 N  pz        
   581     -0.246238  36 N  pz              556      0.237780  35 O  pz        
   552     -0.197886  35 O  py              277     -0.191453  17 N  px        
   252      0.182610  16 O  px              280     -0.177840  17 N  px        
   343     -0.160021  21 C  s               555     -0.159527  35 O  py        

 Vector   67  Occ=0.000000D+00  E= 2.096359D-02
              MO Center= -3.2D+00, -3.2D+00, -6.8D-01, r^2= 2.3D+01
   Bfn.  Coefficient  Atom+Function         Bfn.  Coefficient  Atom+Function  
  ----- ------------  ---------------      ----- ------------  ---------------
    56      3.682812   5 C  s               233     -3.605906  15 C  px        
   525      2.856282  34 C  s               216     -2.539664  14 H  s         
   106     -2.483749   7 N  s               234     -1.809918  15 C  py        
   310      1.766377  19 C  s               181     -1.648078  11 C  px        
   173      1.526002  11 C  s               317     -1.524007  19 C  px        

 Vector   68  Occ=0.000000D+00  E= 2.984283D-02
              MO Center= -2.0D+00, -1.3D+00, -1.1D+00, r^2= 3.7D+01
   Bfn.  Coefficient  Atom+Function         Bfn.  Coefficient  Atom+Function  
  ----- ------------  ---------------      ----- ------------  ---------------
   207     -2.857586  13 H  s                56      2.710058   5 C  s         
   525      2.490276  34 C  s                64      2.365124   5 C  py        
   506     -2.308473  32 H  s               411      2.224082  25 H  s         
    12     -2.080225   2 C  s               147     -2.029266   9 C  px        
   164     -2.004096  10 H  s               317     -1.849364  19 C  px        

 Vector   69  Occ=0.000000D+00  E= 3.753545D-02
              MO Center= -1.6D+00, -1.8D+00, -6.2D-01, r^2= 3.6D+01
   Bfn.  Coefficient  Atom+Function         Bfn.  Coefficient  Atom+Function  
  ----- ------------  ---------------      ----- ------------  ---------------
   147      3.704485   9 C  px              164     -3.604271  10 H  s         
   149     -2.884195   9 C  pz              174      2.455489  11 C  s         
   233      1.934821  15 C  px              173     -1.860996  11 C  s         
   276     -1.786390  17 N  s               421      1.766282  26 C  s         
   216      1.756178  14 H  s                12      1.728306   2 C  s         

 Vector   70  Occ=0.000000D+00  E= 4.031888D-02
              MO Center= -1.8D+00,  1.9D-01,  1.8D-01, r^2= 4.7D+01
   Bfn.  Coefficient  Atom+Function         Bfn.  Coefficient  Atom+Function  
  ----- ------------  ---------------      ----- ------------  ---------------
   525     -3.606183  34 C  s                64      3.520167   5 C  py        
   164     -2.935882  10 H  s               174     -2.655413  11 C  s         
   216     -2.659353  14 H  s               421      2.625216  26 C  s         
   473     -2.463829  30 C  s               411     -2.418682  25 H  s         
   463      2.357732  29 H  s               147     -2.291535   9 C  px        

 Vector   71  Occ=0.000000D+00  E= 4.892754D-02
              MO Center= -1.2D+00, -1.5D+00,  4.4D-01, r^2= 4.4D+01
   Bfn.  Coefficient  Atom+Function         Bfn.  Coefficient  Atom+Function  
  ----- ------------  ---------------      ----- ------------  ---------------
   421      3.475708  26 C  s                37      3.315019   3 H  s         
   352     -2.650720  21 C  py              395     -2.634062  24 C  py        
   198     -2.534491  12 H  s               525     -2.489360  34 C  s         
     3     -2.341516   1 H  s               234     -2.285272  15 C  py        
   463      2.247515  29 H  s               351      1.956010  21 C  px        

 Vector   72  Occ=0.000000D+00  E= 4.944587D-02
              MO Center= -1.4D-01, -7.0D-01, -7.2D-01, r^2= 4.7D+01
   Bfn.  Coefficient  Atom+Function         Bfn.  Coefficient  Atom+Function  
  ----- ------------  ---------------      ----- ------------  ---------------
    46      3.093891   4 H  s               130     -2.947662   8 H  s         
   207      2.491263  13 H  s               473      2.451650  30 C  s         
   106     -2.300789   7 N  s                56      2.175150   5 C  s         
   395      1.830866  24 C  py              472      1.770967  30 C  s         
    63     -1.748455   5 C  px              276     -1.323823  17 N  s         

 Vector   73  Occ=0.000000D+00  E= 5.482534D-02
              MO Center= -4.7D-01,  2.0D+00,  7.1D-02, r^2= 4.3D+01
   Bfn.  Coefficient  Atom+Function         Bfn.  Coefficient  Atom+Function  
  ----- ------------  ---------------      ----- ------------  ---------------
   473      4.959540  30 C  s               515      3.254298  33 H  s         
   396      2.888291  24 C  pz              334     -2.587134  20 H  s         
   317      2.485463  19 C  px              207      2.196640  13 H  s         
   276      2.166822  17 N  s               216     -2.078546  14 H  s         
   482      2.013203  30 C  pz              344     -1.966428  21 C  s         

 Vector   74  Occ=0.000000D+00  E= 5.770426D-02
              MO Center= -1.6D+00,  1.1D+00, -2.2D-01, r^2= 4.3D+01
   Bfn.  Coefficient  Atom+Function         Bfn.  Coefficient  Atom+Function  
  ----- ------------  ---------------      ----- ------------  ---------------
   164      3.756978  10 H  s               216     -3.743365  14 H  s         
    56     -2.916208   5 C  s               396     -2.871385  24 C  pz        
   411      2.673958  25 H  s               515     -2.516195  33 H  s         
   445      2.378232  27 H  s               497     -2.358888  31 H  s         
   473     -2.302048  30 C  s               149      1.968233   9 C  pz        

 Vector   75  Occ=0.000000D+00  E= 6.266039D-02
              MO Center= -4.5D-01, -1.1D+00,  1.8D-01, r^2= 4.3D+01
   Bfn.  Coefficient  Atom+Function         Bfn.  Coefficient  Atom+Function  
  ----- ------------  ---------------      ----- ------------  ---------------
   164      4.170425  10 H  s                 3      3.365187   1 H  s         
   334     -2.894900  20 H  s               198     -2.563099  12 H  s         
   454      2.319700  28 H  s                37     -2.231751   3 H  s         
    56     -2.178121   5 C  s               319     -2.143068  19 C  pz        
   149      2.060813   9 C  pz              106      2.024019   7 N  s         

 Vector   76  Occ=0.000000D+00  E= 6.705865D-02
              MO Center=  3.4D-01,  1.6D-01,  1.8D-01, r^2= 5.0D+01
   Bfn.  Coefficient  Atom+Function         Bfn.  Coefficient  Atom+Function  
  ----- ------------  ---------------      ----- ------------  ---------------
   525      5.068927  34 C  s               310      3.875183  19 C  s         
   207      3.304836  13 H  s                56      3.252625   5 C  s         
   411     -2.929463  25 H  s               130     -2.907029   8 H  s         
   575     -2.694495  36 N  s               463     -2.616528  29 H  s         
    13     -2.594225   2 C  s               344      2.598664  21 C  s         

 Vector   77  Occ=0.000000D+00  E= 7.082457D-02
              MO Center= -4.5D-01, -7.3D-01, -4.6D-01, r^2= 4.7D+01
   Bfn.  Coefficient  Atom+Function         Bfn.  Coefficient  Atom+Function  
  ----- ------------  ---------------      ----- ------------  ---------------
   233     -4.790225  15 C  px              207      4.614829  13 H  s         
   198     -4.316765  12 H  s               234     -4.143284  15 C  py        
   334      4.084798  20 H  s                46     -3.936812   4 H  s         
   164     -3.678736  10 H  s               515     -3.044369  33 H  s         
    56     -2.863529   5 C  s               114     -2.862631   7 N  py        

 Vector   78  Occ=0.000000D+00  E= 7.385991D-02
              MO Center= -2.7D-01,  1.4D+00,  7.5D-01, r^2= 4.5D+01
   Bfn.  Coefficient  Atom+Function         Bfn.  Coefficient  Atom+Function  
  ----- ------------  ---------------      ----- ------------  ---------------
   473      5.973507  30 C  s               463      5.012067  29 H  s         
   344     -4.280139  21 C  s                56      4.240192   5 C  s         
   515     -2.755090  33 H  s               318      2.707872  19 C  py        
   351      2.701921  21 C  px               37     -2.686903   3 H  s         
   377     -2.597667  23 H  s               387     -2.582818  24 C  s         

 Vector   79  Occ=0.000000D+00  E= 7.743873D-02
              MO Center= -1.4D+00,  1.4D+00, -6.8D-01, r^2= 4.2D+01
   Bfn.  Coefficient  Atom+Function         Bfn.  Coefficient  Atom+Function  
  ----- ------------  ---------------      ----- ------------  ---------------
   164      5.880603  10 H  s               497      4.843530  31 H  s         
   506     -4.794598  32 H  s               216     -4.664628  14 H  s         
   411      4.058677  25 H  s               317     -3.737605  19 C  px        
   395      3.548194  24 C  py              352     -3.047102  21 C  py        
   300     -2.869074  18 H  s               445     -2.753410  27 H  s         

 Vector   80  Occ=0.000000D+00  E= 7.919463D-02
              MO Center= -5.8D-01,  1.9D+00,  1.1D-01, r^2= 4.4D+01
   Bfn.  Coefficient  Atom+Function         Bfn.  Coefficient  Atom+Function  
  ----- ------------  ---------------      ----- ------------  ---------------
   454      5.270805  28 H  s               300      5.029857  18 H  s         
   276      4.994747  17 N  s               174     -4.674893  11 C  s         
   164     -4.564001  10 H  s               317      4.068382  19 C  px        
   497     -3.850323  31 H  s               351     -3.633339  21 C  px        
   525     -3.492865  34 C  s               130      3.449765   8 H  s         

 Vector   81  Occ=0.000000D+00  E= 8.885830D-02
              MO Center= -8.7D-01, -7.5D-01,  8.1D-01, r^2= 4.6D+01
   Bfn.  Coefficient  Atom+Function         Bfn.  Coefficient  Atom+Function  
  ----- ------------  ---------------      ----- ------------  ---------------
   473      6.017957  30 C  s               198      4.698565  12 H  s         
   130     -4.566084   8 H  s               411     -4.239434  25 H  s         
   377     -4.057336  23 H  s               344     -4.019386  21 C  s         
    37      3.835434   3 H  s               454      3.745496  28 H  s         
    46     -3.337035   4 H  s               395     -3.031564  24 C  py        

 Vector   82  Occ=0.000000D+00  E= 9.162146D-02
              MO Center=  1.7D-01,  2.2D+00, -9.1D-01, r^2= 3.8D+01
   Bfn.  Coefficient  Atom+Function         Bfn.  Coefficient  Atom+Function  
  ----- ------------  ---------------      ----- ------------  ---------------
   515     -6.054075  33 H  s               506      5.656227  32 H  s         
   334     -4.577470  20 H  s               421     -4.370967  26 C  s         
   497      4.239855  31 H  s               234      4.126916  15 C  py        
   377     -3.017444  23 H  s               368     -2.898752  22 H  s         
   276     -2.860297  17 N  s               174      2.835788  11 C  s         

 Vector   83  Occ=0.000000D+00  E= 9.618479D-02
              MO Center=  7.3D-02,  2.0D+00, -9.5D-02, r^2= 4.3D+01
   Bfn.  Coefficient  Atom+Function         Bfn.  Coefficient  Atom+Function  
  ----- ------------  ---------------      ----- ------------  ---------------
   377      8.035215  23 H  s               608     -6.104782  38 H  s         
   207     -6.025357  13 H  s               352     -5.357330  21 C  py        
   463      5.313660  29 H  s               506      4.988591  32 H  s         
   411      4.722204  25 H  s               445     -4.057293  27 H  s         
   515     -3.389762  33 H  s               198      3.092240  12 H  s         

 Vector   84  Occ=0.000000D+00  E= 1.023990D-01
              MO Center= -9.4D-01,  8.9D-01, -1.7D+00, r^2= 3.6D+01
   Bfn.  Coefficient  Atom+Function         Bfn.  Coefficient  Atom+Function  
  ----- ------------  ---------------      ----- ------------  ---------------
   300      9.933593  18 H  s                56      9.452891   5 C  s         
   506     -8.891965  32 H  s               525      7.055979  34 C  s         
[...]
   395      8.641970  24 C  py              276     -7.428591  17 N  s         
   148      6.789552   9 C  py              343     -6.626060  21 C  s         
   351     -5.848550  21 C  px              421     -5.815514  26 C  s         

 Vector  174  Occ=0.000000D+00  E= 4.429255D-01
              MO Center=  3.7D-01, -1.1D-01,  3.1D-01, r^2= 2.3D+01
   Bfn.  Coefficient  Atom+Function         Bfn.  Coefficient  Atom+Function  
  ----- ------------  ---------------      ----- ------------  ---------------
   234     14.778934  15 C  py              276    -11.746424  17 N  s         
   174      9.298628  11 C  s                12      8.208282   2 C  s         
   147      7.386378   9 C  px              395      7.195178  24 C  py        
    45     -6.453356   4 H  s                13      6.271212   2 C  s         
   106      6.189370   7 N  s               344      5.986446  21 C  s         

 Vector  175  Occ=0.000000D+00  E= 4.469726D-01
              MO Center= -3.5D-01,  4.3D-01,  1.2D-01, r^2= 2.3D+01
   Bfn.  Coefficient  Atom+Function         Bfn.  Coefficient  Atom+Function  
  ----- ------------  ---------------      ----- ------------  ---------------
    56     18.137295   5 C  s               344    -17.648075  21 C  s         
   317    -15.427680  19 C  px              387    -14.287983  24 C  s         
   174    -13.558865  11 C  s                13    -12.563071   2 C  s         
   525     11.067424  34 C  s               351     10.383749  21 C  px        
   276      8.382763  17 N  s               147     -7.472677   9 C  px        

 Vector  176  Occ=0.000000D+00  E= 4.536808D-01
              MO Center=  1.3D-01, -5.9D-02,  3.5D-01, r^2= 2.3D+01
   Bfn.  Coefficient  Atom+Function         Bfn.  Coefficient  Atom+Function  
  ----- ------------  ---------------      ----- ------------  ---------------
   174     13.498886  11 C  s               473     11.732145  30 C  s         
   235     -9.613975  15 C  pz              421     -9.076634  26 C  s         
   285      9.022048  17 N  pz              396      8.710406  24 C  pz        
   147      8.249269   9 C  px              284      6.977105  17 N  py        
   317     -6.764736  19 C  px               56     -6.441405   5 C  s         

 Vector  177  Occ=0.000000D+00  E= 4.622947D-01
              MO Center=  5.5D-02, -1.1D-01, -3.1D-01, r^2= 2.3D+01
   Bfn.  Coefficient  Atom+Function         Bfn.  Coefficient  Atom+Function  
  ----- ------------  ---------------      ----- ------------  ---------------
   525     11.254924  34 C  s               575    -10.198250  36 N  s         
   472      8.378896  30 C  s               284      7.242245  17 N  py        
   505     -5.825409  32 H  s               496     -5.692352  31 H  s         
   333     -5.221699  20 H  s                12     -4.874475   2 C  s         
    55      4.880898   5 C  s               411      4.682166  25 H  s         

 Vector  178  Occ=0.000000D+00  E= 4.652247D-01
              MO Center= -1.9D-01,  1.1D+00,  3.4D-02, r^2= 1.9D+01
   Bfn.  Coefficient  Atom+Function         Bfn.  Coefficient  Atom+Function  
  ----- ------------  ---------------      ----- ------------  ---------------
   233     15.994441  15 C  px              473     -9.929373  30 C  s         
   472     -9.464786  30 C  s               533      8.492405  34 C  py        
   317     -8.282204  19 C  px              514      6.592836  33 H  s         
   276     -6.548902  17 N  s               174      6.372176  11 C  s         
   367     -6.267241  22 H  s               352      6.185622  21 C  py        

 Vector  179  Occ=0.000000D+00  E= 4.671150D-01
              MO Center= -7.8D-01,  5.6D-01,  3.0D-01, r^2= 2.1D+01
   Bfn.  Coefficient  Atom+Function         Bfn.  Coefficient  Atom+Function  
  ----- ------------  ---------------      ----- ------------  ---------------
   421     15.560691  26 C  s               396    -10.837144  24 C  pz        
   173    -10.299572  11 C  s               351     -9.529805  21 C  px        
   234      8.619394  15 C  py              233     -7.750616  15 C  px        
   394      7.198340  24 C  px              420      7.078696  26 C  s         
   473     -7.041149  30 C  s               444     -6.951898  27 H  s         

 Vector  180  Occ=0.000000D+00  E= 4.726207D-01
              MO Center= -6.2D-01,  8.6D-01,  4.8D-01, r^2= 2.2D+01
   Bfn.  Coefficient  Atom+Function         Bfn.  Coefficient  Atom+Function  
  ----- ------------  ---------------      ----- ------------  ---------------
   174     18.223988  11 C  s               525     16.707520  34 C  s         
   276    -15.617618  17 N  s               421    -15.376365  26 C  s         
   235    -10.249705  15 C  pz              575    -10.273531  36 N  s         
   147      8.675486   9 C  px              317     -8.317803  19 C  px        
   533     -7.026436  34 C  py              149      6.796470   9 C  pz        

 Vector  181  Occ=0.000000D+00  E= 4.745818D-01
              MO Center= -4.0D-01,  3.5D-01, -8.0D-02, r^2= 2.1D+01
   Bfn.  Coefficient  Atom+Function         Bfn.  Coefficient  Atom+Function  
  ----- ------------  ---------------      ----- ------------  ---------------
   421     10.371890  26 C  s               147     -8.208595   9 C  px        
    13      7.907126   2 C  s               285     -7.942813  17 N  pz        
   317      7.525225  19 C  px              525     -7.376663  34 C  s         
   351     -7.287000  21 C  px              473     -7.109018  30 C  s         
   174     -6.425113  11 C  s                12     -6.384155   2 C  s         

 Vector  182  Occ=0.000000D+00  E= 4.779346D-01
              MO Center= -2.7D-01, -8.1D-02,  2.2D-01, r^2= 2.0D+01
   Bfn.  Coefficient  Atom+Function         Bfn.  Coefficient  Atom+Function  
  ----- ------------  ---------------      ----- ------------  ---------------
   284    -10.719544  17 N  py               56     10.253507   5 C  s         
   174     -8.190890  11 C  s               234     -8.145225  15 C  py        
   276     -7.681808  17 N  s               283     -7.139734  17 N  px        
    13     -6.628245   2 C  s               147     -6.208923   9 C  px        
   226     -6.056421  15 C  s               411      5.817688  25 H  s         

 Vector  183  Occ=0.000000D+00  E= 4.802674D-01
              MO Center= -6.5D-01,  2.2D+00, -5.3D-01, r^2= 2.2D+01
   Bfn.  Coefficient  Atom+Function         Bfn.  Coefficient  Atom+Function  
  ----- ------------  ---------------      ----- ------------  ---------------
   473     21.725563  30 C  s               234    -12.671798  15 C  py        
   174    -11.301527  11 C  s               396     10.139491  24 C  pz        
   496     -8.956508  31 H  s               525     -7.969894  34 C  s         
   421     -7.717868  26 C  s                13     -7.432705   2 C  s         
   514     -7.448403  33 H  s               318     -6.525228  19 C  py        

 Vector  184  Occ=0.000000D+00  E= 4.810128D-01
              MO Center=  1.1D-01, -2.4D-01,  2.8D-01, r^2= 2.2D+01
   Bfn.  Coefficient  Atom+Function         Bfn.  Coefficient  Atom+Function  
  ----- ------------  ---------------      ----- ------------  ---------------
   525     31.993808  34 C  s                56     26.221078   5 C  s         
   575    -15.025632  36 N  s                13    -13.391600   2 C  s         
   310     12.881230  19 C  s               317    -11.442994  19 C  px        
   106     -9.886827   7 N  s               233     -9.215278  15 C  px        
    81     -7.700612   6 O  s               411     -7.132014  25 H  s         

 Vector  185  Occ=0.000000D+00  E= 4.845643D-01
              MO Center= -4.5D-01,  2.5D+00,  1.1D-01, r^2= 1.9D+01
   Bfn.  Coefficient  Atom+Function         Bfn.  Coefficient  Atom+Function  
  ----- ------------  ---------------      ----- ------------  ---------------
   421     16.888183  26 C  s               473    -12.867915  30 C  s         
   174    -10.867311  11 C  s               284     -7.249872  17 N  py        
   395     -7.150898  24 C  py              453     -5.724599  28 H  s         
   394      5.414875  24 C  px              396     -5.329492  24 C  pz        
   482     -5.334873  30 C  pz              234     -5.281468  15 C  py        

 Vector  186  Occ=0.000000D+00  E= 4.888209D-01
              MO Center= -8.8D-01,  3.8D-01, -6.7D-02, r^2= 2.1D+01
   Bfn.  Coefficient  Atom+Function         Bfn.  Coefficient  Atom+Function  
  ----- ------------  ---------------      ----- ------------  ---------------
   234      8.488923  15 C  py              421     -8.205066  26 C  s         
   473      7.311841  30 C  s               395      7.223443  24 C  py        
   396      6.832778  24 C  pz              317      5.512336  19 C  px        
   352     -4.629358  21 C  py               13      4.334698   2 C  s         
   394     -4.168159  24 C  px              525     -4.121975  34 C  s         

 Vector  187  Occ=0.000000D+00  E= 4.951324D-01
              MO Center= -8.6D-01,  4.5D-01,  4.3D-01, r^2= 2.1D+01
   Bfn.  Coefficient  Atom+Function         Bfn.  Coefficient  Atom+Function  
  ----- ------------  ---------------      ----- ------------  ---------------
   174     26.547055  11 C  s                56    -16.853710   5 C  s         
   421     16.426266  26 C  s               344    -12.951763  21 C  s         
   525     10.540732  34 C  s               147      9.223984   9 C  px        
    12      9.146655   2 C  s               113      8.898575   7 N  px        
   276     -8.428705  17 N  s               233      8.275088  15 C  px        

 Vector  188  Occ=0.000000D+00  E= 4.953513D-01
              MO Center= -1.2D+00,  4.0D-01,  2.0D-01, r^2= 2.0D+01
   Bfn.  Coefficient  Atom+Function         Bfn.  Coefficient  Atom+Function  
  ----- ------------  ---------------      ----- ------------  ---------------
   421    -19.679243  26 C  s               344     18.311379  21 C  s         
   395     16.918657  24 C  py              473    -10.900311  30 C  s         
   233     -9.659713  15 C  px              386     -9.325551  24 C  s         
   234      8.720147  15 C  py              410      6.805471  25 H  s         
   444      6.626218  27 H  s               387      6.542351  24 C  s         

 Vector  189  Occ=0.000000D+00  E= 4.977075D-01
              MO Center= -7.8D-01,  5.4D-01, -3.8D-01, r^2= 2.1D+01
   Bfn.  Coefficient  Atom+Function         Bfn.  Coefficient  Atom+Function  
  ----- ------------  ---------------      ----- ------------  ---------------
   525     13.650876  34 C  s               174     13.330000  11 C  s         
   276    -11.034452  17 N  s               147      8.356617   9 C  px        
   317     -7.367653  19 C  px              333     -6.219421  20 H  s         
   575     -5.629271  36 N  s               197     -5.298607  12 H  s         
   480     -5.198091  30 C  px              114      5.163878   7 N  py        

 Vector  190  Occ=0.000000D+00  E= 5.024109D-01
              MO Center= -5.6D-01, -1.2D+00, -3.7D-02, r^2= 2.2D+01
   Bfn.  Coefficient  Atom+Function         Bfn.  Coefficient  Atom+Function  
  ----- ------------  ---------------      ----- ------------  ---------------
    13     18.812378   2 C  s                56    -18.429584   5 C  s         
   421     13.176123  26 C  s               173     13.086998  11 C  s         
   234     10.897714  15 C  py              525     -9.682590  34 C  s         
    12     -9.279991   2 C  s               215     -8.944926  14 H  s         
   114      8.772255   7 N  py              174      8.434861  11 C  s         


 center of mass
 --------------
 x =   0.09982271 y =  -0.06841210 z =   0.01046761

 moments of inertia (a.u.)
 ------------------
        6221.255302675105           0.000000000001           0.000000000000
           0.000000000001        2654.603811037645           0.000000000000
           0.000000000000           0.000000000000        7934.596038086414

  Mulliken analysis of the total density
  --------------------------------------

    Atom       Charge   Shell Charges
 -----------   ------   -------------------------------------------------------
    1 H    1     0.84   0.76  0.11  0.00  0.03 -0.06
    2 C    6     6.37   2.01  0.66  0.28  0.15  2.07  1.03  0.00  0.06  0.11
    3 H    1     0.82   0.76  0.08  0.00  0.03 -0.06
    4 H    1     0.97   0.76  0.23  0.01  0.03 -0.05
    5 C    6     5.07   2.01  0.68  0.07 -0.09  1.89  0.31 -0.05  0.24  0.01
    6 O    8     8.78   2.01  0.82  1.00  0.15  2.80  1.86  0.15  0.01 -0.01
    7 N    7     7.63   2.01  0.72  0.83 -0.09  2.45  1.44  0.18  0.05  0.04
    8 H    1     0.96   0.77  0.21 -0.03  0.05 -0.04
    9 C    6     6.58   2.01  0.66  0.21 -0.04  2.00  1.39  0.01  0.14  0.21
   10 H    1     1.23   0.79  0.38  0.01  0.03  0.02
   11 C    6     5.71   2.01  0.66  0.18  0.25  2.04  0.55 -0.04  0.07 -0.00
   12 H    1     0.90   0.77  0.15  0.03  0.03 -0.08
   13 H    1     0.99   0.77  0.26  0.01  0.03 -0.08
   14 H    1     0.96   0.77  0.24  0.01  0.03 -0.09
   15 C    6     4.09   2.01  0.68 -0.14  0.01  1.89  0.11 -0.19  0.23 -0.51
   16 O    8     8.93   2.01  0.82  1.06  0.20  2.78  1.87  0.18  0.01  0.01
   17 N    7     7.34   2.01  0.72  0.81 -0.27  2.44  1.46  0.04  0.05  0.08
   18 H    1     1.12   0.77  0.33 -0.02  0.05 -0.01
   19 C    6     6.23   2.01  0.66 -0.04  0.12  1.98  1.25  0.13  0.14 -0.01
   20 H    1     1.25   0.79  0.47 -0.00  0.03 -0.03
   21 C    6     6.38   2.01  0.67  0.80  0.15  2.04  0.39  0.02  0.09  0.22
   22 H    1     0.90   0.78  0.22 -0.01  0.03 -0.12
   23 H    1     0.83   0.78  0.12  0.01  0.03 -0.11
   24 C    6     6.62   2.01  0.66 -0.06  0.26  2.02  1.52 -0.22  0.12  0.32
   25 H    1     1.15   0.80  0.35  0.04  0.03 -0.07
   26 C    6     5.62   2.01  0.66  0.24  0.19  2.04  0.54 -0.08  0.07 -0.06
   27 H    1     0.97   0.78  0.25  0.01  0.03 -0.10
   28 H    1     0.91   0.78  0.17  0.02  0.03 -0.08
   29 H    1     0.99   0.78  0.26  0.01  0.03 -0.08
   30 C    6     5.57   2.01  0.66  0.30  0.08  2.04  0.53 -0.10  0.07 -0.02
   31 H    1     0.90   0.78  0.17  0.01  0.03 -0.09
   32 H    1     1.02   0.78  0.27  0.01  0.03 -0.08
   33 H    1     0.97   0.78  0.26  0.00  0.03 -0.10
   34 C    6     4.52   2.01  0.68  0.12  0.02  1.89 -0.23 -0.02  0.24 -0.17
   35 O    8     8.83   2.01  0.82  1.04  0.19  2.79  1.84  0.14  0.01 -0.00
   36 N    7     7.13   2.01  0.72  0.82 -0.24  2.47  1.22  0.10  0.04 -0.02
   37 H    1     1.01   0.76  0.23 -0.00  0.05 -0.03
   38 H    1     0.91   0.74  0.28 -0.04  0.06 -0.13

       Multipole analysis of the density wrt the origin
       ------------------------------------------------

     L   x y z        total         open         nuclear
     -   - - -        -----         ----         -------
     0   0 0 0     -0.000000      0.000000    132.000000

     1   1 0 0     -2.452083      0.000000     -0.000000
     1   0 1 0     -1.860280      0.000000     -0.000000
     1   0 0 1     -0.873727      0.000000      0.000000

     2   2 0 0    -82.344377      0.000000   1224.923052
     2   1 1 0     -2.321224      0.000000    -37.051550
     2   1 0 1     -0.138978      0.000000     -1.069399
     2   0 2 0    -67.262444      0.000000   3289.799644
     2   0 1 1     -7.204514      0.000000    -23.118758
     2   0 0 2    -81.291899      0.000000    285.746205


 Task  times  cpu:     5645.5s     wall:     5815.5s


                                NWChem Input Module
                                -------------------


 Summary of allocated global arrays
-----------------------------------
  No active global arrays


MA_summarize_allocated_blocks: starting scan ...
MA_summarize_allocated_blocks: scan completed: 0 heap blocks, 0 stack blocks
MA usage statistics:

	allocation statistics:
					      heap	     stack
					      ----	     -----
	current number of blocks	         0	         0
	maximum number of blocks	        16	        14
	current total bytes		         0	         0
	maximum total bytes		    131240	  28332200
	maximum total K-bytes		       132	     28333
	maximum total M-bytes		         1	        29


                                     CITATION
                                     --------
                Please cite the following reference when publishing
                           results obtained with NWChem:

          E. Apra, E. J. Bylaska, W. A. de Jong, N. Govind, K. Kowalski,
       T. P. Straatsma, M. Valiev, H. J. J. van Dam, Y. Alexeev, J. Anchell,
       V. Anisimov, F. W. Aquino, R. Atta-Fynn, J. Autschbach, N. P. Bauman,
     J. C. Becca, D. E. Bernholdt, K. Bhaskaran-Nair, S. Bogatko, P. Borowski,
         J. Boschen, J. Brabec, A. Bruner, E. Cauet, Y. Chen, G. N. Chuev,
      C. J. Cramer, J. Daily, M. J. O. Deegan, T. H. Dunning Jr., M. Dupuis,
   K. G. Dyall, G. I. Fann, S. A. Fischer, A. Fonari, H. Fruchtl, L. Gagliardi,
      J. Garza, N. Gawande, S. Ghosh, K. Glaesemann, A. W. Gotz, J. Hammond,
       V. Helms, E. D. Hermes, K. Hirao, S. Hirata, M. Jacquelin, L. Jensen,
   B. G. Johnson, H. Jonsson, R. A. Kendall, M. Klemm, R. Kobayashi, V. Konkov,
      S. Krishnamoorthy, M. Krishnan, Z. Lin, R. D. Lins, R. J. Littlefield,
      A. J. Logsdail, K. Lopata, W. Ma, A. V. Marenich, J. Martin del Campo,
   D. Mejia-Rodriguez, J. E. Moore, J. M. Mullin, T. Nakajima, D. R. Nascimento,
    J. A. Nichols, P. J. Nichols, J. Nieplocha, A. Otero-de-la-Roza, B. Palmer,
    A. Panyala, T. Pirojsirikul, B. Peng, R. Peverati, J. Pittner, L. Pollack,
   R. M. Richard, P. Sadayappan, G. C. Schatz, W. A. Shelton, D. W. Silverstein,
   D. M. A. Smith, T. A. Soares, D. Song, M. Swart, H. L. Taylor, G. S. Thomas,
            V. Tipparaju, D. G. Truhlar, K. Tsemekhman, T. Van Voorhis,
      A. Vazquez-Mayagoitia, P. Verma, O. Villa, A. Vishnu, K. D. Vogiatzis,
        D. Wang, J. H. Weare, M. J. Williamson, T. L. Windus, K. Wolinski,
        A. T. Wong, Q. Wu, C. Yang, Q. Yu, M. Zacharias, Z. Zhang, Y. Zhao,
                                and R. J. Harrison
                        "NWChem: Past, present, and future
                         J. Chem. Phys. 152, 184102 (2020)
                               doi:10.1063/5.0004997

                                      AUTHORS
                                      -------
  E. Apra, E. J. Bylaska, N. Govind, K. Kowalski, M. Valiev, D. Mejia-Rodriguez,
       A. Kunitsa, N. P. Bauman, A. Panyala, W. A. de Jong, T. P. Straatsma,
   H. J. J. van Dam, D. Wang, T. L. Windus, J. Hammond, J. Autschbach, A. Woods,
    K. Bhaskaran-Nair, J. Brabec, K. Lopata, S. A. Fischer, S. Krishnamoorthy,
     M. Jacquelin, W. Ma, M. Klemm, O. Villa, Y. Chen, V. Anisimov, F. Aquino,
     S. Hirata, M. T. Hackler, E. Hermes, L. Jensen, J. E. Moore, J. C. Becca,
      V. Konjkov, T. Risthaus, M. Malagoli, A. Marenich, A. Otero-de-la-Roza,
        J. Mullin, P. Nichols, R. Peverati, J. Pittner, Y. Zhao, P.-D. Fan,
        A. Fonari, M. J. Williamson, R. J. Harrison, J. R. Rehr, M. Dupuis,
     D. Silverstein, D. M. A. Smith, J. Nieplocha, V. Tipparaju, M. Krishnan,
     B. E. Van Kuiken, A. Vazquez-Mayagoitia, M. Swart, Q. Wu, T. Van Voorhis,
     A. A. Auer, M. Nooijen, L. D. Crosby, E. Brown, G. Cisneros, G. I. Fann,
   H. Fruchtl, J. Garza, K. Hirao, R. A. Kendall, J. A. Nichols, K. Tsemekhman,
    K. Wolinski, J. Anchell, D. E. Bernholdt, P. Borowski, T. Clark, D. Clerc,
   H. Dachsel, M. J. O. Deegan, K. Dyall, D. Elwood, E. Glendening, M. Gutowski,
   A. C. Hess, J. Jaffe, B. G. Johnson, J. Ju, R. Kobayashi, R. Kutteh, Z. Lin,
   R. Littlefield, X. Long, B. Meng, T. Nakajima, S. Niu, L. Pollack, M. Rosing,
   K. Glaesemann, G. Sandrone, M. Stave, H. Taylor, G. Thomas, J. H. van Lenthe,
                               A. T. Wong, Z. Zhang.

 Total times  cpu:     5645.5s     wall:     5816.0s
