export TMOUT=5400
export TMPDIR=/tmp
export PTMPDIR=/tmp/ptmp
 argument  1 = ALA_PHE_4.nw
                                         
                                         


             Northwest Computational Chemistry Package (NWChem) 7.2.0
             --------------------------------------------------------


                    Environmental Molecular Sciences Laboratory
                       Pacific Northwest National Laboratory
                                Richland, WA 99352

                              Copyright (c) 1994-2022
                       Pacific Northwest National Laboratory
                            Battelle Memorial Institute

             NWChem is an open-source computational chemistry package
                        distributed under the terms of the
                      Educational Community License (ECL) 2.0
             A copy of the license is included with this distribution
                              in the LICENSE.TXT file

                                  ACKNOWLEDGMENT
                                  --------------

            This software and its documentation were developed at the
            EMSL at Pacific Northwest National Laboratory, a multiprogram
            national laboratory, operated for the U.S. Department of Energy
            by Battelle under Contract Number DE-AC05-76RL01830. Support
            for this work was provided by the Department of Energy Office
            of Biological and Environmental Research, Office of Basic
            Energy Sciences, and the Office of Advanced Scientific Computing.


           Job information
           ---------------

    hostname        = nova18-45
    program         = /opt/rit/el9/20230413/app/linux-rhel9-x86_64_v3/gcc-11.2.1/nwchem-7.2.0-oxtctbuhfuzyfaoziquq6bki22grib3g/bin/nwchem
    date            = Fri Jun 27 21:12:11 2025

    compiled        = Wed_May_17_23:46:39_2023
    source          = /tmp/root/spack-stage/spack-stage-nwchem-7.2.0-oxtctbuhfuzyfaoziquq6bki22grib3g/spack-src
    nwchem branch   = 7.2.0
    nwchem revision = d0d141fd
    ga revision     = 5.8.0
    use scalapack   = T
    input           = ALA_PHE_4.nw
    prefix          = ALA_PHE_4.
    data base       = ./ALA_PHE_4.db
    status          = startup
    nproc           =        8
    time left       =     -1s



           Memory information
           ------------------

    heap     =   26214394 doubles =    200.0 Mbytes
    stack    =   26214399 doubles =    200.0 Mbytes
    global   =   52428800 doubles =    400.0 Mbytes (distinct from heap & stack)
    total    =  104857593 doubles =    800.0 Mbytes
    verify   = yes
    hardfail = no 


           Directory information
           ---------------------

  0 permanent = .
  0 scratch   = .




                                NWChem Input Module
                                -------------------



 Scaling coordinates for geometry "geometry" by  1.889725989
 (inverse scale =  0.529177249)

 C1  symmetry detected

          ------
          auto-z
          ------
  no constraints, skipping    0.0000000000000000     
  no constraints, skipping    0.0000000000000000     


                             Geometry "geometry" -> ""
                             -------------------------

 Output coordinates in angstroms (scale by  1.889725989 to convert to a.u.)

  No.       Tag          Charge          X              Y              Z
 ---- ---------------- ---------- -------------- -------------- --------------
    1 H                    1.0000    -2.06157171     3.86171487     2.18488609
    2 C                    6.0000    -2.61466998     3.61240801     1.28078688
    3 H                    1.0000    -2.92512710     4.52217668     0.77167653
    4 H                    1.0000    -3.49395263     3.02448526     1.54257661
    5 C                    6.0000    -1.73540213     2.79746964     0.36218768
    6 O                    8.0000    -2.06278472     1.66343047     0.03905333
    7 N                    7.0000    -0.60939595     3.37148696    -0.05603139
    8 H                    1.0000    -0.40298589     4.30320158     0.26525317
    9 C                    6.0000     0.36858698     2.72972026    -0.93878498
   10 H                    1.0000    -0.17477123     2.21127513    -1.73043990
   11 C                    6.0000     1.21117431     3.83217743    -1.59781744
   12 H                    1.0000     0.56474907     4.52076438    -2.14292882
   13 H                    1.0000     1.76941334     4.38302095    -0.83814541
   14 H                    1.0000     1.91846191     3.38415557    -2.29657109
   15 C                    6.0000     1.21860360     1.66354473    -0.20474923
   16 O                    8.0000     2.42093257     1.83080532    -0.02078744
   17 N                    7.0000     0.59008018     0.56783838     0.23279493
   18 H                    1.0000    -0.41073703     0.51455323     0.07942086
   19 C                    6.0000     1.21434812    -0.49249385     1.04421536
   20 H                    1.0000     1.73199427    -0.01259884     1.87484177
   21 C                    6.0000     0.10463903    -1.38106136     1.63635851
   22 H                    1.0000     0.55545034    -2.05421129     2.36723287
   23 H                    1.0000    -0.59718382    -0.74955142     2.18200023
   24 C                    6.0000    -0.66370956    -2.21727734     0.62495143
   25 C                    6.0000    -0.15713274    -3.46330109     0.20507439
   26 H                    1.0000     0.77638267    -3.83176424     0.60750437
   27 C                    6.0000    -0.85929807    -4.23166398    -0.74076033
   28 H                    1.0000    -0.46384589    -5.18593388    -1.06059236
   29 C                    6.0000    -2.07545727    -3.76278256    -1.26533638
   30 H                    1.0000    -2.61609929    -4.35449897    -1.99050113
   31 C                    6.0000    -2.59129155    -2.52641285    -0.83997310
   32 H                    1.0000    -3.53056582    -2.16675422    -1.23589800
   33 C                    6.0000    -1.88970359    -1.75825603     0.10507157
   34 H                    1.0000    -2.30032704    -0.81486185     0.43503036
   35 C                    6.0000     2.28033478    -1.34326279     0.31620803
   36 O                    8.0000     2.89613585    -2.21401189     0.92108657
   37 N                    7.0000     2.51893501    -1.14430906    -0.97328309
   38 H                    1.0000     3.22344893    -1.70716799    -1.41855152
   39 H                    1.0000     2.03953109    -0.40775933    -1.46057189

      Atomic Mass 
      ----------- 

      H                  1.007825
      C                 12.000000
      O                 15.994910
      N                 14.003070


 Effective nuclear repulsion energy (a.u.)    1599.6224439394

            Nuclear Dipole moment (a.u.) 
            ----------------------------
        X                 Y               Z
 ---------------- ---------------- ----------------
    -0.0000000000    -0.0000000000    -0.0000000000



                                Z-matrix (autoz)
                                -------- 

 Units are Angstrom for bonds and degrees for angles

      Type          Name      I     J     K     L     M      Value
      ----------- --------  ----- ----- ----- ----- ----- ----------
    1 Stretch                  1     2                       1.08879
    2 Stretch                  2     3                       1.08778
    3 Stretch                  2     4                       1.08964
    4 Stretch                  2     5                       1.51032
    5 Stretch                  5     6                       1.22378
    6 Stretch                  5     7                       1.33127
    7 Stretch                  7     8                       1.00694
    8 Stretch                  7     9                       1.46546
    9 Stretch                  9    10                       1.09121
   10 Stretch                  9    11                       1.53613
   11 Stretch                  9    15                       1.54857
   12 Stretch                 11    12                       1.09049
   13 Stretch                 11    13                       1.09186
   14 Stretch                 11    14                       1.09052
   15 Stretch                 15    16                       1.22777
   16 Stretch                 15    17                       1.33681
   17 Stretch                 17    18                       1.01390
   18 Stretch                 17    19                       1.47391
   19 Stretch                 19    20                       1.09004
   20 Stretch                 19    21                       1.54001
   21 Stretch                 19    35                       1.54600
   22 Stretch                 21    22                       1.09112
   23 Stretch                 21    23                       1.09045
   24 Stretch                 21    24                       1.52071
   25 Stretch                 24    25                       1.40907
   26 Stretch                 24    33                       1.40856
   27 Stretch                 25    26                       1.08128
   28 Stretch                 25    27                       1.40642
   29 Stretch                 27    28                       1.08134
   30 Stretch                 27    29                       1.40502
   31 Stretch                 29    30                       1.08087
   32 Stretch                 29    31                       1.40557
   33 Stretch                 31    32                       1.08090
   34 Stretch                 31    33                       1.40549
   35 Stretch                 33    34                       1.08050
   36 Stretch                 35    36                       1.22609
   37 Stretch                 35    37                       1.32639
   38 Stretch                 37    38                       1.00569
   39 Stretch                 37    39                       1.00488
   40 Bend                     1     2     3               110.00580
   41 Bend                     1     2     4               109.50984
   42 Bend                     1     2     5               109.44212
   43 Bend                     2     5     6               120.32256
   44 Bend                     2     5     7               116.79654
   45 Bend                     3     2     4               109.47521
   46 Bend                     3     2     5               109.43730
   47 Bend                     4     2     5               108.95189
   48 Bend                     5     7     8               118.17155
   49 Bend                     5     7     9               124.39302
   50 Bend                     6     5     7               122.87982
   51 Bend                     7     9    10               108.22639
   52 Bend                     7     9    11               108.07069
   53 Bend                     7     9    15               112.47587
   54 Bend                     8     7     9               117.42674
   55 Bend                     9    11    12               110.02862
   56 Bend                     9    11    13               110.12178
   57 Bend                     9    11    14               109.62129
   58 Bend                     9    15    16               120.98143
   59 Bend                     9    15    17               117.47653
   60 Bend                    10     9    11               107.62940
   61 Bend                    10     9    15               106.86385
   62 Bend                    11     9    15               113.35322
   63 Bend                    12    11    13               109.40870
   64 Bend                    12    11    14               108.88011
   65 Bend                    13    11    14               108.75207
   66 Bend                    15    17    18               117.23642
   67 Bend                    15    17    19               124.79923
   68 Bend                    16    15    17               121.53673
   69 Bend                    17    19    20               107.69327
   70 Bend                    17    19    21               108.75748
   71 Bend                    17    19    35               115.38428
   72 Bend                    18    17    19               117.61635
   73 Bend                    19    21    22               108.40918
   74 Bend                    19    21    23               108.78537
   75 Bend                    19    21    24               115.19031
   76 Bend                    19    35    36               120.31872
   77 Bend                    19    35    37               119.95292
   78 Bend                    20    19    21               107.65096
   79 Bend                    20    19    35               105.88226
   80 Bend                    21    19    35               111.12449
   81 Bend                    21    24    25               120.18500
   82 Bend                    21    24    33               120.40095
   83 Bend                    22    21    23               106.73973
   84 Bend                    22    21    24               108.36159
   85 Bend                    23    21    24               109.03007
   86 Bend                    24    25    26               120.05377
   87 Bend                    24    25    27               120.26595
   88 Bend                    24    33    31               120.30106
   89 Bend                    24    33    34               120.17178
   90 Bend                    25    24    33               119.41318
   91 Bend                    25    27    28               119.89773
   92 Bend                    25    27    29               120.06072
   93 Bend                    26    25    27               119.68004
   94 Bend                    27    29    30               120.04983
   95 Bend                    27    29    31               119.88237
   96 Bend                    28    27    29               120.04104
   97 Bend                    29    31    32               120.04912
   98 Bend                    29    31    33               120.06877
   99 Bend                    30    29    31               120.06689
  100 Bend                    31    33    34               119.52616
  101 Bend                    32    31    33               119.88156
  102 Bend                    35    37    38               118.19670
  103 Bend                    35    37    39               119.70651
  104 Bend                    36    35    37               119.72215
  105 Bend                    38    37    39               121.98732
  106 Torsion                  1     2     5     6         119.37624
  107 Torsion                  1     2     5     7         -60.25619
  108 Torsion                  2     5     7     8           0.54173
  109 Torsion                  2     5     7     9         179.43924
  110 Torsion                  3     2     5     6        -120.00700
  111 Torsion                  3     2     5     7          60.36056
  112 Torsion                  4     2     5     6          -0.33788
  113 Torsion                  4     2     5     7        -179.97032
  114 Torsion                  5     7     9    10          42.83210
  115 Torsion                  5     7     9    11         159.11756
  116 Torsion                  5     7     9    15         -74.99237
  117 Torsion                  6     5     7     8        -179.08047
  118 Torsion                  6     5     7     9          -0.18296
  119 Torsion                  7     9    11    12         -57.70157
  120 Torsion                  7     9    11    13          62.97860
  121 Torsion                  7     9    11    14        -177.41150
  122 Torsion                  7     9    15    16        -112.78657
  123 Torsion                  7     9    15    17          66.38791
  124 Torsion                  8     7     9    10        -138.26285
  125 Torsion                  8     7     9    11         -21.97739
  126 Torsion                  8     7     9    15         103.91268
  127 Torsion                  9    15    17    18          -1.66257
  128 Torsion                  9    15    17    19        -174.70713
  129 Torsion                 10     9    11    12          58.97163
  130 Torsion                 10     9    11    13         179.65180
  131 Torsion                 10     9    11    14         -60.73830
  132 Torsion                 10     9    15    16         128.58639
  133 Torsion                 10     9    15    17         -52.23913
  134 Torsion                 11     9    15    16          10.18855
  135 Torsion                 11     9    15    17        -170.63698
  136 Torsion                 12    11     9    15         176.92580
  137 Torsion                 13    11     9    15         -62.39404
  138 Torsion                 14    11     9    15          57.21586
  139 Torsion                 15    17    19    20          49.49116
  140 Torsion                 15    17    19    21         165.88003
  141 Torsion                 15    17    19    35         -68.49876
  142 Torsion                 16    15    17    18         177.50703
  143 Torsion                 16    15    17    19           4.46248
  144 Torsion                 17    19    21    22        -170.46844
  145 Torsion                 17    19    21    23         -54.75630
  146 Torsion                 17    19    21    24          67.96788
  147 Torsion                 17    19    35    36         177.00082
  148 Torsion                 17    19    35    37          -3.90811
  149 Torsion                 18    17    19    20        -123.52930
  150 Torsion                 18    17    19    21          -7.14044
  151 Torsion                 18    17    19    35         118.48077
  152 Torsion                 19    21    24    25          84.32019
  153 Torsion                 19    21    24    33         -96.02027
  154 Torsion                 19    35    37    38         179.48371
  155 Torsion                 19    35    37    39           3.21142
  156 Torsion                 20    19    21    22         -54.05242
  157 Torsion                 20    19    21    23          61.65972
  158 Torsion                 20    19    21    24        -175.61610
  159 Torsion                 20    19    35    36          58.00429
  160 Torsion                 20    19    35    37        -122.90464
  161 Torsion                 21    19    35    36         -58.60417
  162 Torsion                 21    19    35    37         120.48690
  163 Torsion                 21    24    25    26           0.48651
  164 Torsion                 21    24    25    27        -179.33102
  165 Torsion                 21    24    33    31         179.34105
  166 Torsion                 21    24    33    34          -1.02394
  167 Torsion                 22    21    19    35          61.46650
  168 Torsion                 22    21    24    25         -37.26923
  169 Torsion                 22    21    24    33         142.39031
  170 Torsion                 23    21    19    35         177.17865
  171 Torsion                 23    21    24    25        -153.08640
  172 Torsion                 23    21    24    33          26.57314
  173 Torsion                 24    21    19    35         -60.09717
  174 Torsion                 24    25    27    28         179.84927
  175 Torsion                 24    25    27    29          -0.40988
  176 Torsion                 24    33    31    29           0.39097
  177 Torsion                 24    33    31    32        -179.88043
  178 Torsion                 25    24    33    31          -0.99679
  179 Torsion                 25    24    33    34         178.63822
  180 Torsion                 25    27    29    30        -179.85707
  181 Torsion                 25    27    29    31          -0.20421
  182 Torsion                 26    25    24    33        -179.17639
  183 Torsion                 26    25    27    28           0.03106
  184 Torsion                 26    25    27    29         179.77190
  185 Torsion                 27    25    24    33           1.00608
  186 Torsion                 27    29    31    32        -179.51429
  187 Torsion                 27    29    31    33           0.21385
  188 Torsion                 28    27    29    30          -0.11660
  189 Torsion                 28    27    29    31         179.53626
  190 Torsion                 29    31    33    34        -179.24639
  191 Torsion                 30    29    31    32           0.13851
  192 Torsion                 30    29    31    33         179.86665
  193 Torsion                 32    31    33    34           0.48221
  194 Torsion                 36    35    37    38          -1.41977
  195 Torsion                 36    35    37    39        -177.69206


            XYZ format geometry
            -------------------
    39
 geometry
 H                    -2.06157171     3.86171487     2.18488609
 C                    -2.61466998     3.61240801     1.28078688
 H                    -2.92512710     4.52217668     0.77167653
 H                    -3.49395263     3.02448526     1.54257661
 C                    -1.73540213     2.79746964     0.36218768
 O                    -2.06278472     1.66343047     0.03905333
 N                    -0.60939595     3.37148696    -0.05603139
 H                    -0.40298589     4.30320158     0.26525317
 C                     0.36858698     2.72972026    -0.93878498
 H                    -0.17477123     2.21127513    -1.73043990
 C                     1.21117431     3.83217743    -1.59781744
 H                     0.56474907     4.52076438    -2.14292882
 H                     1.76941334     4.38302095    -0.83814541
 H                     1.91846191     3.38415557    -2.29657109
 C                     1.21860360     1.66354473    -0.20474923
 O                     2.42093257     1.83080532    -0.02078744
 N                     0.59008018     0.56783838     0.23279493
 H                    -0.41073703     0.51455323     0.07942086
 C                     1.21434812    -0.49249385     1.04421536
 H                     1.73199427    -0.01259884     1.87484177
 C                     0.10463903    -1.38106136     1.63635851
 H                     0.55545034    -2.05421129     2.36723287
 H                    -0.59718382    -0.74955142     2.18200023
 C                    -0.66370956    -2.21727734     0.62495143
 C                    -0.15713274    -3.46330109     0.20507439
 H                     0.77638267    -3.83176424     0.60750437
 C                    -0.85929807    -4.23166398    -0.74076033
 H                    -0.46384589    -5.18593388    -1.06059236
 C                    -2.07545727    -3.76278256    -1.26533638
 H                    -2.61609929    -4.35449897    -1.99050113
 C                    -2.59129155    -2.52641285    -0.83997310
 H                    -3.53056582    -2.16675422    -1.23589800
 C                    -1.88970359    -1.75825603     0.10507157
 H                    -2.30032704    -0.81486185     0.43503036
 C                     2.28033478    -1.34326279     0.31620803
 O                     2.89613585    -2.21401189     0.92108657
 N                     2.51893501    -1.14430906    -0.97328309
 H                     3.22344893    -1.70716799    -1.41855152
 H                     2.03953109    -0.40775933    -1.46057189

 ==============================================================================
                                internuclear distances
 ------------------------------------------------------------------------------
       center one      |      center two      | atomic units |  angstroms
 ------------------------------------------------------------------------------
    2 C                |   1 H                |     2.05752  |     1.08879
    3 H                |   2 C                |     2.05560  |     1.08778
    4 H                |   2 C                |     2.05913  |     1.08964
    5 C                |   2 C                |     2.85409  |     1.51032
    6 O                |   5 C                |     2.31261  |     1.22378
    7 N                |   5 C                |     2.51574  |     1.33127
    8 H                |   7 N                |     1.90283  |     1.00694
    9 C                |   7 N                |     2.76932  |     1.46546
   10 H                |   9 C                |     2.06209  |     1.09121
   11 C                |   9 C                |     2.90286  |     1.53613
   12 H                |  11 C                |     2.06072  |     1.09049
   13 H                |  11 C                |     2.06332  |     1.09186
   14 H                |  11 C                |     2.06079  |     1.09052
   15 C                |   9 C                |     2.92637  |     1.54857
   16 O                |  15 C                |     2.32014  |     1.22777
   17 N                |  15 C                |     2.52620  |     1.33681
   18 H                |  17 N                |     1.91600  |     1.01390
   19 C                |  17 N                |     2.78529  |     1.47391
   20 H                |  19 C                |     2.05989  |     1.09004
   21 C                |  19 C                |     2.91020  |     1.54001
   22 H                |  21 C                |     2.06191  |     1.09112
   23 H                |  21 C                |     2.06065  |     1.09045
   24 C                |  21 C                |     2.87373  |     1.52071
   25 C                |  24 C                |     2.66277  |     1.40907
   26 H                |  25 C                |     2.04332  |     1.08128
   27 C                |  25 C                |     2.65775  |     1.40642
   28 H                |  27 C                |     2.04344  |     1.08134
   29 C                |  27 C                |     2.65510  |     1.40502
   30 H                |  29 C                |     2.04255  |     1.08087
   31 C                |  29 C                |     2.65614  |     1.40557
   32 H                |  31 C                |     2.04261  |     1.08090
   33 C                |  24 C                |     2.66179  |     1.40856
   33 C                |  31 C                |     2.65599  |     1.40549
   34 H                |  33 C                |     2.04185  |     1.08050
   35 C                |  19 C                |     2.92152  |     1.54600
   36 O                |  35 C                |     2.31697  |     1.22609
   37 N                |  35 C                |     2.50651  |     1.32639
   38 H                |  37 N                |     1.90048  |     1.00569
   39 H                |  37 N                |     1.89895  |     1.00488
 ------------------------------------------------------------------------------
                         number of included internuclear distances:         39
 ==============================================================================



 ==============================================================================
                                 internuclear angles
 ------------------------------------------------------------------------------
        center 1       |       center 2       |       center 3       |  degrees
 ------------------------------------------------------------------------------
    1 H                |   2 C                |   3 H                |   110.01
    1 H                |   2 C                |   4 H                |   109.51
    1 H                |   2 C                |   5 C                |   109.44
    3 H                |   2 C                |   4 H                |   109.48
    3 H                |   2 C                |   5 C                |   109.44
    4 H                |   2 C                |   5 C                |   108.95
    2 C                |   5 C                |   6 O                |   120.32
    2 C                |   5 C                |   7 N                |   116.80
    6 O                |   5 C                |   7 N                |   122.88
    5 C                |   7 N                |   8 H                |   118.17
    5 C                |   7 N                |   9 C                |   124.39
    8 H                |   7 N                |   9 C                |   117.43
    7 N                |   9 C                |  10 H                |   108.23
    7 N                |   9 C                |  11 C                |   108.07
    7 N                |   9 C                |  15 C                |   112.48
   10 H                |   9 C                |  11 C                |   107.63
   10 H                |   9 C                |  15 C                |   106.86
   11 C                |   9 C                |  15 C                |   113.35
    9 C                |  11 C                |  12 H                |   110.03
    9 C                |  11 C                |  13 H                |   110.12
    9 C                |  11 C                |  14 H                |   109.62
   12 H                |  11 C                |  13 H                |   109.41
   12 H                |  11 C                |  14 H                |   108.88
   13 H                |  11 C                |  14 H                |   108.75
    9 C                |  15 C                |  16 O                |   120.98
    9 C                |  15 C                |  17 N                |   117.48
   16 O                |  15 C                |  17 N                |   121.54
   15 C                |  17 N                |  18 H                |   117.24
   15 C                |  17 N                |  19 C                |   124.80
   18 H                |  17 N                |  19 C                |   117.62
   17 N                |  19 C                |  20 H                |   107.69
   17 N                |  19 C                |  21 C                |   108.76
   17 N                |  19 C                |  35 C                |   115.38
   20 H                |  19 C                |  21 C                |   107.65
   20 H                |  19 C                |  35 C                |   105.88
   21 C                |  19 C                |  35 C                |   111.12
   19 C                |  21 C                |  22 H                |   108.41
   19 C                |  21 C                |  23 H                |   108.79
   19 C                |  21 C                |  24 C                |   115.19
   22 H                |  21 C                |  23 H                |   106.74
   22 H                |  21 C                |  24 C                |   108.36
   23 H                |  21 C                |  24 C                |   109.03
   21 C                |  24 C                |  25 C                |   120.19
   21 C                |  24 C                |  33 C                |   120.40
   25 C                |  24 C                |  33 C                |   119.41
   24 C                |  25 C                |  26 H                |   120.05
   24 C                |  25 C                |  27 C                |   120.27
   26 H                |  25 C                |  27 C                |   119.68
   25 C                |  27 C                |  28 H                |   119.90
   25 C                |  27 C                |  29 C                |   120.06
   28 H                |  27 C                |  29 C                |   120.04
   27 C                |  29 C                |  30 H                |   120.05
   27 C                |  29 C                |  31 C                |   119.88
   30 H                |  29 C                |  31 C                |   120.07
   29 C                |  31 C                |  32 H                |   120.05
   29 C                |  31 C                |  33 C                |   120.07
   32 H                |  31 C                |  33 C                |   119.88
   24 C                |  33 C                |  31 C                |   120.30
   24 C                |  33 C                |  34 H                |   120.17
   31 C                |  33 C                |  34 H                |   119.53
   19 C                |  35 C                |  36 O                |   120.32
   19 C                |  35 C                |  37 N                |   119.95
   36 O                |  35 C                |  37 N                |   119.72
   35 C                |  37 N                |  38 H                |   118.20
   35 C                |  37 N                |  39 H                |   119.71
   38 H                |  37 N                |  39 H                |   121.99
 ------------------------------------------------------------------------------
                            number of included internuclear angles:         66
 ==============================================================================



  library name resolved from: environment
  library file name is: </opt/rit/el9/20230413/app/linux-rhel9-x86_64_v3/gcc-11.2.1/nwchem-7.2.0-oxtctbuhfuzyfaoziquq6bki22grib3g/share/nwchem/libraries/>
  


 Summary of "ao basis" -> "" (cartesian)
 ------------------------------------------------------------------------------
       Tag                 Description            Shells   Functions and Types
 ---------------- ------------------------------  ------  ---------------------
 *                        aug-cc-pvdz                 on all atoms 


                      Basis "ao basis" -> "ao basis" (cartesian)
                      -----
  H (Hydrogen)
  ------------
            Exponent  Coefficients 
       -------------- ---------------------------------------------------------
  1 S  1.30100000E+01  0.019685
  1 S  1.96200000E+00  0.137977
  1 S  4.44600000E-01  0.478148

  2 S  1.22000000E-01  1.000000

  3 S  2.97400000E-02  1.000000

  4 P  7.27000000E-01  1.000000

  5 P  1.41000000E-01  1.000000

  C (Carbon)
  ----------
            Exponent  Coefficients 
       -------------- ---------------------------------------------------------
  1 S  6.66500000E+03  0.000692
  1 S  1.00000000E+03  0.005329
  1 S  2.28000000E+02  0.027077
  1 S  6.47100000E+01  0.101718
  1 S  2.10600000E+01  0.274740
  1 S  7.49500000E+00  0.448564
  1 S  2.79700000E+00  0.285074
  1 S  5.21500000E-01  0.015204

  2 S  6.66500000E+03 -0.000146
  2 S  1.00000000E+03 -0.001154
  2 S  2.28000000E+02 -0.005725
  2 S  6.47100000E+01 -0.023312
  2 S  2.10600000E+01 -0.063955
  2 S  7.49500000E+00 -0.149981
  2 S  2.79700000E+00 -0.127262
  2 S  5.21500000E-01  0.544529

  3 S  1.59600000E-01  1.000000

  4 S  4.69000000E-02  1.000000

  5 P  9.43900000E+00  0.038109
  5 P  2.00200000E+00  0.209480
  5 P  5.45600000E-01  0.508557

  6 P  1.51700000E-01  1.000000

  7 P  4.04100000E-02  1.000000

  8 D  5.50000000E-01  1.000000

  9 D  1.51000000E-01  1.000000

  O (Oxygen)
  ----------
            Exponent  Coefficients 
       -------------- ---------------------------------------------------------
  1 S  1.17200000E+04  0.000710
  1 S  1.75900000E+03  0.005470
  1 S  4.00800000E+02  0.027837
  1 S  1.13700000E+02  0.104800
  1 S  3.70300000E+01  0.283062
  1 S  1.32700000E+01  0.448719
  1 S  5.02500000E+00  0.270952
  1 S  1.01300000E+00  0.015458

  2 S  1.17200000E+04 -0.000160
  2 S  1.75900000E+03 -0.001263
  2 S  4.00800000E+02 -0.006267
  2 S  1.13700000E+02 -0.025716
  2 S  3.70300000E+01 -0.070924
  2 S  1.32700000E+01 -0.165411
  2 S  5.02500000E+00 -0.116955
  2 S  1.01300000E+00  0.557368

  3 S  3.02300000E-01  1.000000

  4 S  7.89600000E-02  1.000000

  5 P  1.77000000E+01  0.043018
  5 P  3.85400000E+00  0.228913
  5 P  1.04600000E+00  0.508728

  6 P  2.75300000E-01  1.000000

  7 P  6.85600000E-02  1.000000

  8 D  1.18500000E+00  1.000000

  9 D  3.32000000E-01  1.000000

  N (Nitrogen)
  ------------
            Exponent  Coefficients 
       -------------- ---------------------------------------------------------
  1 S  9.04600000E+03  0.000700
  1 S  1.35700000E+03  0.005389
  1 S  3.09300000E+02  0.027406
  1 S  8.77300000E+01  0.103207
  1 S  2.85600000E+01  0.278723
  1 S  1.02100000E+01  0.448540
  1 S  3.83800000E+00  0.278238
  1 S  7.46600000E-01  0.015440

  2 S  9.04600000E+03 -0.000153
  2 S  1.35700000E+03 -0.001208
  2 S  3.09300000E+02 -0.005992
  2 S  8.77300000E+01 -0.024544
  2 S  2.85600000E+01 -0.067459
  2 S  1.02100000E+01 -0.158078
  2 S  3.83800000E+00 -0.121831
  2 S  7.46600000E-01  0.549003

  3 S  2.24800000E-01  1.000000

  4 S  6.12400000E-02  1.000000

  5 P  1.35500000E+01  0.039919
  5 P  2.91700000E+00  0.217169
  5 P  7.97300000E-01  0.510319

  6 P  2.18500000E-01  1.000000

  7 P  5.61100000E-02  1.000000

  8 D  8.17000000E-01  1.000000

  9 D  2.30000000E-01  1.000000



 Summary of "ao basis" -> "ao basis" (cartesian)
 ------------------------------------------------------------------------------
       Tag                 Description            Shells   Functions and Types
 ---------------- ------------------------------  ------  ---------------------
 H                        aug-cc-pvdz                5        9   3s2p
 C                        aug-cc-pvdz                9       25   4s3p2d
 O                        aug-cc-pvdz                9       25   4s3p2d
 N                        aug-cc-pvdz                9       25   4s3p2d


                                 NWChem SCF Module
                                 -----------------



  ao basis        = "ao basis"
  functions       =   671
  atoms           =    39
  closed shells   =    74
  open shells     =     0
  charge          =   0.00
  wavefunction    = RHF 
  input vectors   = atomic
  output vectors  = ./ALA_PHE_4.movecs
  use symmetry    = F
  symmetry adapt  = F


 Summary of "ao basis" -> "ao basis" (cartesian)
 ------------------------------------------------------------------------------
       Tag                 Description            Shells   Functions and Types
 ---------------- ------------------------------  ------  ---------------------
 H                        aug-cc-pvdz                5        9   3s2p
 C                        aug-cc-pvdz                9       25   4s3p2d
 O                        aug-cc-pvdz                9       25   4s3p2d
 N                        aug-cc-pvdz                9       25   4s3p2d



 Forming initial guess at       1.7s


 !! The overlap matrix has  12 vectors deemed linearly dependent with
    eigenvalues:
 1.25D-06 1.67D-06 1.77D-06 2.44D-06 3.42D-06 3.82D-06 5.65D-06 6.49D-06
 6.75D-06 7.97D-06 8.36D-06 9.77D-06


      Superposition of Atomic Density Guess
      -------------------------------------

 Sum of atomic energies:        -924.03424378

      Non-variational initial energy
      ------------------------------

 Total energy =    -937.476716
 1-e energy   =   -4431.924502
 2-e energy   =    1894.825342
 HOMO         =      -0.292986
 LUMO         =      -0.025394


 Starting SCF solution at     345.9s



 ----------------------------------------------
         Quadratically convergent ROHF

 Convergence threshold     :          1.000E-04
 Maximum no. of iterations :           30
 Final Fock-matrix accuracy:          1.000E-10
 ----------------------------------------------


              iter       energy          gnorm     gmax       time
             ----- ------------------- --------- --------- --------
                 1     -928.9320128931  2.49D+00  1.17D-01    686.5
                 2     -929.2749855521  9.10D-01  3.89D-02   1383.6
                 3     -929.3463325904  6.52D-02  5.33D-03   2390.8
                 4     -929.3469500479  2.02D-03  1.21D-04   4035.3
                 5     -929.3469506122  6.52D-06  1.15D-06   6338.8


       Final RHF  results 
       ------------------ 

         Total SCF energy =   -929.346950612169
      One-electron energy =  -4446.675961845714
      Two-electron energy =   1917.706567294104
 Nuclear repulsion energy =   1599.622443939440

        Time for solution =   6002.0s


             Final eigenvalues
             -----------------

              1      
    1  -20.5505
    2  -20.5351
    3  -20.5117
    4  -15.6240
    5  -15.5967
    6  -15.5828
    7  -11.3799
    8  -11.3637
    9  -11.3489
   10  -11.3124
   11  -11.2958
   12  -11.2621
   13  -11.2503
   14  -11.2469
   15  -11.2459
   16  -11.2395
   17  -11.2389
   18  -11.2376
   19  -11.2353
   20  -11.2339
   21   -1.4161
   22   -1.3940
   23   -1.3741
   24   -1.2714
   25   -1.2460
   26   -1.2063
   27   -1.1459
   28   -1.0809
   29   -1.0615
   30   -1.0111
   31   -1.0065
   32   -0.9971
   33   -0.9137
   34   -0.8877
   35   -0.8351
   36   -0.8222
   37   -0.8096
   38   -0.7946
   39   -0.7783
   40   -0.7363
   41   -0.7320
   42   -0.7074
   43   -0.6913
   44   -0.6868
   45   -0.6778
   46   -0.6516
   47   -0.6367
   48   -0.6278
   49   -0.6239
   50   -0.6079
   51   -0.6048
   52   -0.5959
   53   -0.5904
   54   -0.5802
   55   -0.5771
   56   -0.5662
   57   -0.5562
   58   -0.5542
   59   -0.5454
   60   -0.5408
   61   -0.5297
   62   -0.5275
   63   -0.5215
   64   -0.4825
   65   -0.4822
   66   -0.4723
   67   -0.4590
   68   -0.4461
   69   -0.4329
   70   -0.4097
   71   -0.3987
   72   -0.3855
   73   -0.3270
   74   -0.3221
   75    0.0200
   76    0.0328
   77    0.0360
   78    0.0402
   79    0.0450
   80    0.0484
   81    0.0529
   82    0.0564
   83    0.0597
   84    0.0651

                       ROHF Final Molecular Orbital Analysis
                       -------------------------------------

 Vector   21  Occ=2.000000D+00  E=-1.416144D+00
              MO Center= -1.6D+00,  2.2D+00,  1.1D-01, r^2= 1.4D+00
   Bfn.  Coefficient  Atom+Function         Bfn.  Coefficient  Atom+Function  
  ----- ------------  ---------------      ----- ------------  ---------------
    80      0.345369   6 O  s                79      0.341928   6 O  s         
    54      0.240549   5 C  s                12      0.176023   2 C  s         

 Vector   22  Occ=2.000000D+00  E=-1.393962D+00
              MO Center=  1.7D+00,  1.5D+00, -2.0D-02, r^2= 1.9D+00
   Bfn.  Coefficient  Atom+Function         Bfn.  Coefficient  Atom+Function  
  ----- ------------  ---------------      ----- ------------  ---------------
   250      0.353826  16 O  s               249      0.337770  16 O  s         
   224      0.235071  15 C  s         

 Vector   23  Occ=2.000000D+00  E=-1.374102D+00
              MO Center=  2.6D+00, -1.7D+00,  5.3D-01, r^2= 1.4D+00
   Bfn.  Coefficient  Atom+Function         Bfn.  Coefficient  Atom+Function  
  ----- ------------  ---------------      ----- ------------  ---------------
   606      0.376194  36 O  s               605      0.345235  36 O  s         
   580      0.243083  35 C  s         

 Vector   24  Occ=2.000000D+00  E=-1.271437D+00
              MO Center= -7.2D-01,  3.0D+00, -7.6D-02, r^2= 1.8D+00
   Bfn.  Coefficient  Atom+Function         Bfn.  Coefficient  Atom+Function  
  ----- ------------  ---------------      ----- ------------  ---------------
   105      0.412343   7 N  s               104      0.342580   7 N  s         
    80     -0.216726   6 O  s                79     -0.181907   6 O  s         
   128      0.157281   8 H  s         

 Vector   25  Occ=2.000000D+00  E=-1.245961D+00
              MO Center=  9.7D-01,  5.7D-01,  2.4D-01, r^2= 2.4D+00
   Bfn.  Coefficient  Atom+Function         Bfn.  Coefficient  Atom+Function  
  ----- ------------  ---------------      ----- ------------  ---------------
   275      0.391164  17 N  s               274      0.329341  17 N  s         
   250     -0.206958  16 O  s               309     -0.196730  19 C  s         
   249     -0.166982  16 O  s         

 Vector   26  Occ=2.000000D+00  E=-1.206267D+00
              MO Center=  2.4D+00, -1.1D+00, -5.4D-01, r^2= 1.8D+00
   Bfn.  Coefficient  Atom+Function         Bfn.  Coefficient  Atom+Function  
  ----- ------------  ---------------      ----- ------------  ---------------
   631      0.390555  37 N  s               630      0.364435  37 N  s         
   606     -0.207114  36 O  s               309     -0.205959  19 C  s         
   585     -0.187205  35 C  pz              605     -0.171428  36 O  s         
   275     -0.167663  17 N  s               663      0.167271  39 H  s         
   654      0.157112  38 H  s         

 Vector   27  Occ=2.000000D+00  E=-1.145896D+00
              MO Center= -1.2D+00, -2.7D+00, -9.7D-02, r^2= 2.9D+00
   Bfn.  Coefficient  Atom+Function         Bfn.  Coefficient  Atom+Function  
  ----- ------------  ---------------      ----- ------------  ---------------
   385      0.202736  24 C  s               546      0.173566  33 C  s         
   410      0.171751  25 C  s               512      0.157191  31 C  s         
   444      0.155668  27 C  s               478      0.152981  29 C  s         

 Vector   28  Occ=2.000000D+00  E=-1.080851D+00
              MO Center= -8.4D-02,  1.7D+00, -1.2D-01, r^2= 8.9D+00
   Bfn.  Coefficient  Atom+Function         Bfn.  Coefficient  Atom+Function  
  ----- ------------  ---------------      ----- ------------  ---------------
   138      0.209991   9 C  s               172      0.155686  11 C  s         

 Vector   29  Occ=2.000000D+00  E=-1.061468D+00
              MO Center= -3.4D-01, -2.1D-01,  2.0D-01, r^2= 1.1D+01
   Bfn.  Coefficient  Atom+Function         Bfn.  Coefficient  Atom+Function  
  ----- ------------  ---------------      ----- ------------  ---------------
   342      0.198624  21 C  s               309      0.154765  19 C  s         

 Vector   30  Occ=2.000000D+00  E=-1.011082D+00
              MO Center= -1.6D+00,  3.3D+00,  4.9D-01, r^2= 5.8D+00
   Bfn.  Coefficient  Atom+Function         Bfn.  Coefficient  Atom+Function  
  ----- ------------  ---------------      ----- ------------  ---------------
    11      0.311049   2 C  s               172      0.159532  11 C  s         
    55      0.151295   5 C  s               174      0.151593  11 C  s         

 Vector   31  Occ=2.000000D+00  E=-1.006514D+00
              MO Center= -1.4D+00, -3.0D+00, -3.0D-01, r^2= 3.0D+00
   Bfn.  Coefficient  Atom+Function         Bfn.  Coefficient  Atom+Function  
  ----- ------------  ---------------      ----- ------------  ---------------
   446      0.252637  27 C  s               546      0.223696  33 C  s         
   412      0.221966  25 C  s               444     -0.222039  27 C  s         
   548     -0.209437  33 C  s               410     -0.202504  25 C  s         
   512      0.200992  31 C  s               514     -0.155295  31 C  s         
   469     -0.152372  28 H  s         

 Vector   32  Occ=2.000000D+00  E=-9.970803D-01
              MO Center= -2.5D-01, -1.5D+00, -2.5D-02, r^2= 8.7D+00
   Bfn.  Coefficient  Atom+Function         Bfn.  Coefficient  Atom+Function  
  ----- ------------  ---------------      ----- ------------  ---------------
   480     -0.222961  29 C  s               308      0.202754  19 C  s         
   478      0.183766  29 C  s               385     -0.177374  24 C  s         
   412      0.154147  25 C  s         

 Vector   33  Occ=2.000000D+00  E=-9.136948D-01
              MO Center=  2.7D-01,  8.8D-01, -2.2D-01, r^2= 1.1D+01
   Bfn.  Coefficient  Atom+Function         Bfn.  Coefficient  Atom+Function  
  ----- ------------  ---------------      ----- ------------  ---------------
   139      0.311000   9 C  s               225     -0.253193  15 C  s         
   145     -0.229406   9 C  py              172     -0.197450  11 C  s         
   174     -0.191213  11 C  s               342      0.185908  21 C  s         
   480     -0.182054  29 C  s               146      0.175658   9 C  pz        
   548      0.170087  33 C  s         

 Vector   34  Occ=2.000000D+00  E=-8.877279D-01
              MO Center=  6.3D-01,  2.6D-01, -2.8D-02, r^2= 1.0D+01
   Bfn.  Coefficient  Atom+Function         Bfn.  Coefficient  Atom+Function  
  ----- ------------  ---------------      ----- ------------  ---------------
   139      0.183911   9 C  s               309      0.181882  19 C  s         
   316     -0.170748  19 C  pz              172     -0.152468  11 C  s         
   314      0.150073  19 C  px        

 Vector   35  Occ=2.000000D+00  E=-8.351233D-01
              MO Center= -5.7D-01,  2.0D+00,  3.8D-03, r^2= 8.1D+00
   Bfn.  Coefficient  Atom+Function         Bfn.  Coefficient  Atom+Function  
  ----- ------------  ---------------      ----- ------------  ---------------
   107      0.238011   7 N  px              139     -0.222195   9 C  s         
    54     -0.194230   5 C  s               128      0.194755   8 H  s         
   108      0.175281   7 N  py              105      0.158633   7 N  s         

 Vector   36  Occ=2.000000D+00  E=-8.222348D-01
              MO Center= -1.2D+00, -1.8D+00, -2.1D-01, r^2= 9.3D+00
   Bfn.  Coefficient  Atom+Function         Bfn.  Coefficient  Atom+Function  
  ----- ------------  ---------------      ----- ------------  ---------------
   514      0.359802  31 C  s               446     -0.284570  27 C  s         
   582     -0.243644  35 C  s               412      0.224709  25 C  s         
   571      0.216183  34 H  s               435     -0.187176  26 H  s         
   548     -0.174705  33 C  s               537     -0.171436  32 H  s         
   469      0.166098  28 H  s               174      0.163840  11 C  s         

 Vector   37  Occ=2.000000D+00  E=-8.096194D-01
              MO Center=  2.8D-01, -9.0D-01, -2.2D-01, r^2= 1.0D+01
   Bfn.  Coefficient  Atom+Function         Bfn.  Coefficient  Atom+Function  
  ----- ------------  ---------------      ----- ------------  ---------------
   480      0.308546  29 C  s               309     -0.256068  19 C  s         
   514     -0.238939  31 C  s               412     -0.228159  25 C  s         
   635     -0.183749  37 N  pz              387      0.168178  24 C  s         
   580     -0.154677  35 C  s         

 Vector   38  Occ=2.000000D+00  E=-7.946267D-01
              MO Center=  6.5D-03, -2.5D-01,  2.0D-02, r^2= 9.1D+00
   Bfn.  Coefficient  Atom+Function         Bfn.  Coefficient  Atom+Function  
  ----- ------------  ---------------      ----- ------------  ---------------
   480      0.217057  29 C  s               412     -0.182566  25 C  s         
   299     -0.181450  18 H  s               314     -0.177320  19 C  px        
   277      0.176282  17 N  px              298     -0.176399  18 H  s         
   225      0.174826  15 C  s               231     -0.168718  15 C  py        
   278      0.168228  17 N  py              250     -0.167282  16 O  s         

 Vector   39  Occ=2.000000D+00  E=-7.782561D-01
              MO Center=  8.7D-01, -1.2D+00, -1.6D-01, r^2= 7.2D+00
   Bfn.  Coefficient  Atom+Function         Bfn.  Coefficient  Atom+Function  
  ----- ------------  ---------------      ----- ------------  ---------------
   480      0.319869  29 C  s               635      0.258491  37 N  pz        
   387      0.235262  24 C  s               514     -0.206914  31 C  s         
   412     -0.202574  25 C  s               225     -0.175306  15 C  s         
   663     -0.174576  39 H  s               277     -0.165090  17 N  px        
   588     -0.161988  35 C  pz              585     -0.153829  35 C  pz        

 Vector   40  Occ=2.000000D+00  E=-7.362719D-01
              MO Center=  1.2D+00,  4.2D-01, -3.1D-01, r^2= 6.4D+00
   Bfn.  Coefficient  Atom+Function         Bfn.  Coefficient  Atom+Function  
  ----- ------------  ---------------      ----- ------------  ---------------
   225      0.247042  15 C  s               663     -0.235925  39 H  s         
   314     -0.213779  19 C  px              634     -0.196681  37 N  py        
   581      0.180103  35 C  s               277      0.164566  17 N  px        
   145      0.163125   9 C  py              633      0.158045  37 N  px        
   144     -0.156067   9 C  px              315      0.153568  19 C  py        

 Vector   41  Occ=2.000000D+00  E=-7.319762D-01
              MO Center=  9.5D-01,  7.2D-01, -3.0D-01, r^2= 8.7D+00
   Bfn.  Coefficient  Atom+Function         Bfn.  Coefficient  Atom+Function  
  ----- ------------  ---------------      ----- ------------  ---------------
   145     -0.226381   9 C  py              139      0.219223   9 C  s         
   228      0.190320  15 C  py              225     -0.180427  15 C  s         
   634     -0.181133  37 N  py              654      0.179137  38 H  s         
   663     -0.176595  39 H  s               141      0.170343   9 C  px        
   144      0.170245   9 C  px              633      0.160494  37 N  px        

 Vector   42  Occ=2.000000D+00  E=-7.073512D-01
              MO Center= -1.0D+00,  1.9D+00,  3.3D-01, r^2= 7.9D+00
   Bfn.  Coefficient  Atom+Function         Bfn.  Coefficient  Atom+Function  
  ----- ------------  ---------------      ----- ------------  ---------------
    83     -0.228351   6 O  py               57      0.225721   5 C  px        
    80      0.178889   6 O  s                15      0.150354   2 C  py        

 Vector   43  Occ=2.000000D+00  E=-6.913138D-01
              MO Center= -3.9D-01,  2.0D+00, -5.0D-01, r^2= 7.3D+00
   Bfn.  Coefficient  Atom+Function         Bfn.  Coefficient  Atom+Function  
  ----- ------------  ---------------      ----- ------------  ---------------
   143      0.241342   9 C  pz              162     -0.204104  10 H  s         
   146      0.198677   9 C  pz               58     -0.174030   5 C  py        
   108     -0.170165   7 N  py               83      0.161894   6 O  py        
   107      0.161954   7 N  px               80     -0.153744   6 O  s         
   173      0.151385  11 C  s         

 Vector   44  Occ=2.000000D+00  E=-6.868486D-01
              MO Center= -1.0D+00, -2.0D+00, -3.7D-01, r^2= 9.7D+00
   Bfn.  Coefficient  Atom+Function         Bfn.  Coefficient  Atom+Function  
  ----- ------------  ---------------      ----- ------------  ---------------
   502      0.194480  30 H  s               479      0.171748  29 C  s         
   514     -0.168728  31 C  s               550      0.153881  33 C  py        
   434      0.152717  26 H  s               570      0.151093  34 H  s         
   413      0.150121  25 C  px        

 Vector   45  Occ=2.000000D+00  E=-6.778214D-01
              MO Center=  1.0D+00,  5.7D-02,  2.3D-01, r^2= 8.8D+00
   Bfn.  Coefficient  Atom+Function         Bfn.  Coefficient  Atom+Function  
  ----- ------------  ---------------      ----- ------------  ---------------
   585      0.185164  35 C  pz              252      0.179374  16 O  px        
   315     -0.180186  19 C  py              250      0.163854  16 O  s         
   314      0.163568  19 C  px              654      0.156199  38 H  s         

 Vector   46  Occ=2.000000D+00  E=-6.516352D-01
              MO Center=  3.8D-01, -3.1D-01,  3.4D-01, r^2= 1.1D+01
   Bfn.  Coefficient  Atom+Function         Bfn.  Coefficient  Atom+Function  
  ----- ------------  ---------------      ----- ------------  ---------------
   139      0.195494   9 C  s               387     -0.187926  24 C  s         
   226      0.186066  15 C  s               252      0.175578  16 O  px        
   332      0.165218  20 H  s               480     -0.161861  29 C  s         
   313      0.155880  19 C  pz        

 Vector   47  Occ=2.000000D+00  E=-6.367116D-01
              MO Center= -1.5D+00,  1.7D+00,  5.0D-01, r^2= 1.2D+01
   Bfn.  Coefficient  Atom+Function         Bfn.  Coefficient  Atom+Function  
  ----- ------------  ---------------      ----- ------------  ---------------
   139      0.278306   9 C  s                16      0.208403   2 C  pz        
     1      0.199135   1 H  s                35     -0.186515   3 H  s         
    59      0.156765   5 C  pz        

 Vector   48  Occ=2.000000D+00  E=-6.277519D-01
              MO Center= -8.8D-01, -1.9D+00,  1.6D-02, r^2= 8.9D+00
   Bfn.  Coefficient  Atom+Function         Bfn.  Coefficient  Atom+Function  
  ----- ------------  ---------------      ----- ------------  ---------------
   514      0.219322  31 C  s               387     -0.180797  24 C  s         
   549     -0.180201  33 C  px              447     -0.167249  27 C  px        
   405      0.165390  24 C  dxz             536     -0.159970  32 H  s         
   537     -0.160371  32 H  s         

 Vector   49  Occ=2.000000D+00  E=-6.238620D-01
              MO Center=  7.3D-02, -1.0D+00,  6.9D-02, r^2= 1.3D+01
   Bfn.  Coefficient  Atom+Function         Bfn.  Coefficient  Atom+Function  
  ----- ------------  ---------------      ----- ------------  ---------------
   252      0.183420  16 O  px              571     -0.180595  34 H  s         
   479     -0.161557  29 C  s               414      0.156931  25 C  py        
   227     -0.153798  15 C  px        

 Vector   50  Occ=2.000000D+00  E=-6.078894D-01
              MO Center= -7.4D-01,  2.0D+00,  6.4D-02, r^2= 8.7D+00
   Bfn.  Coefficient  Atom+Function         Bfn.  Coefficient  Atom+Function  
  ----- ------------  ---------------      ----- ------------  ---------------
    58      0.253794   5 C  py               83     -0.254322   6 O  py        
    82     -0.166105   6 O  px              128     -0.154657   8 H  s         

 Vector   51  Occ=2.000000D+00  E=-6.048394D-01
              MO Center=  4.4D-01,  4.2D-01, -1.1D-02, r^2= 1.1D+01
   Bfn.  Coefficient  Atom+Function         Bfn.  Coefficient  Atom+Function  
  ----- ------------  ---------------      ----- ------------  ---------------
   252      0.233671  16 O  px              227     -0.172705  15 C  px        
   277      0.163745  17 N  px        

 Vector   52  Occ=2.000000D+00  E=-5.958683D-01
              MO Center=  1.0D+00, -1.7D-01,  2.5D-01, r^2= 1.2D+01
   Bfn.  Coefficient  Atom+Function         Bfn.  Coefficient  Atom+Function  
  ----- ------------  ---------------      ----- ------------  ---------------
   609      0.250374  36 O  py              606     -0.187383  36 O  s         
   333     -0.163785  20 H  s               196     -0.159768  12 H  s         
   585      0.155041  35 C  pz        

 Vector   53  Occ=2.000000D+00  E=-5.904377D-01
              MO Center= -1.7D+00,  2.7D+00,  6.4D-01, r^2= 9.7D+00
   Bfn.  Coefficient  Atom+Function         Bfn.  Coefficient  Atom+Function  
  ----- ------------  ---------------      ----- ------------  ---------------
    44      0.311885   4 H  s                45      0.288816   4 H  s         
    14     -0.253076   2 C  px               15     -0.241029   2 C  py        
    13     -0.173658   2 C  s               226      0.166458  15 C  s         
     1     -0.156034   1 H  s               214      0.155755  14 H  s         

 Vector   54  Occ=2.000000D+00  E=-5.801625D-01
              MO Center=  1.0D+00, -1.1D+00,  7.2D-02, r^2= 9.5D+00
   Bfn.  Coefficient  Atom+Function         Bfn.  Coefficient  Atom+Function  
  ----- ------------  ---------------      ----- ------------  ---------------
   276      0.240902  17 N  s               584     -0.226240  35 C  py        
   608     -0.185105  36 O  px              610     -0.176244  36 O  pz        
   571     -0.168382  34 H  s               633     -0.158382  37 N  px        

 Vector   55  Occ=2.000000D+00  E=-5.770797D-01
              MO Center= -6.4D-01, -1.9D+00, -4.1D-02, r^2= 9.8D+00
   Bfn.  Coefficient  Atom+Function         Bfn.  Coefficient  Atom+Function  
  ----- ------------  ---------------      ----- ------------  ---------------
   276      0.257079  17 N  s               445      0.235419  27 C  s         
   513     -0.231012  31 C  s               446      0.213663  27 C  s         
   412      0.193107  25 C  s               448      0.191662  27 C  py        
   469     -0.188059  28 H  s               550      0.175741  33 C  py        
   468     -0.170182  28 H  s               515     -0.169435  31 C  px        

 Vector   56  Occ=2.000000D+00  E=-5.662157D-01
              MO Center=  5.3D-02,  8.3D-01, -1.9D-01, r^2= 1.4D+01
   Bfn.  Coefficient  Atom+Function         Bfn.  Coefficient  Atom+Function  
  ----- ------------  ---------------      ----- ------------  ---------------
   174      0.213509  11 C  s               215     -0.196293  14 H  s         
   177      0.192300  11 C  pz              139     -0.182292   9 C  s         
   205      0.182803  13 H  s               225      0.166935  15 C  s         
   412      0.151323  25 C  s         

 Vector   57  Occ=2.000000D+00  E=-5.561999D-01
              MO Center=  8.0D-01,  1.3D+00, -5.0D-01, r^2= 1.2D+01
   Bfn.  Coefficient  Atom+Function         Bfn.  Coefficient  Atom+Function  
  ----- ------------  ---------------      ----- ------------  ---------------
   176      0.255315  11 C  py              196      0.230977  12 H  s         
   142     -0.164704   9 C  py              215     -0.158552  14 H  s         
   197      0.154827  12 H  s               174      0.151979  11 C  s         

 Vector   58  Occ=2.000000D+00  E=-5.541987D-01
              MO Center= -5.5D-01,  1.2D+00, -1.5D-01, r^2= 1.4D+01
   Bfn.  Coefficient  Atom+Function         Bfn.  Coefficient  Atom+Function  
  ----- ------------  ---------------      ----- ------------  ---------------
   480     -0.238571  29 C  s               215      0.223338  14 H  s         
   503      0.178613  30 H  s               214      0.176306  14 H  s         
   177     -0.160443  11 C  pz              107      0.156789   7 N  px        
   479     -0.154042  29 C  s         

 Vector   59  Occ=2.000000D+00  E=-5.454066D-01
              MO Center= -3.2D-01,  2.2D+00, -1.5D-01, r^2= 1.1D+01
   Bfn.  Coefficient  Atom+Function         Bfn.  Coefficient  Atom+Function  
  ----- ------------  ---------------      ----- ------------  ---------------
   175      0.222841  11 C  px              214      0.204906  14 H  s         
   109     -0.187626   7 N  pz               14      0.181442   2 C  px        
    55     -0.179329   5 C  s               215      0.174619  14 H  s         
    12      0.166866   2 C  s                 1      0.159595   1 H  s         
    82     -0.151262   6 O  px        

 Vector   60  Occ=2.000000D+00  E=-5.408383D-01
              MO Center=  2.0D-01,  1.2D+00,  7.5D-02, r^2= 1.1D+01
   Bfn.  Coefficient  Atom+Function         Bfn.  Coefficient  Atom+Function  
  ----- ------------  ---------------      ----- ------------  ---------------
   253      0.220276  16 O  py              387     -0.196531  24 C  s         
   256      0.166376  16 O  py              196      0.157919  12 H  s         
   275      0.152856  17 N  s               313     -0.153429  19 C  pz        
   177     -0.151652  11 C  pz              228      0.151231  15 C  py        

 Vector   61  Occ=2.000000D+00  E=-5.297442D-01
              MO Center=  1.6D-01, -1.1D+00,  8.2D-01, r^2= 7.6D+00
   Bfn.  Coefficient  Atom+Function         Bfn.  Coefficient  Atom+Function  
  ----- ------------  ---------------      ----- ------------  ---------------
   376      0.364281  23 H  s               367     -0.271069  22 H  s         
   375      0.249653  23 H  s               346      0.235935  21 C  py        
   366     -0.208387  22 H  s               309     -0.197041  19 C  s         
   345     -0.183768  21 C  px              610      0.169390  36 O  pz        

 Vector   62  Occ=2.000000D+00  E=-5.274864D-01
              MO Center=  7.9D-01,  8.3D-01, -3.4D-01, r^2= 1.1D+01
   Bfn.  Coefficient  Atom+Function         Bfn.  Coefficient  Atom+Function  
  ----- ------------  ---------------      ----- ------------  ---------------
   174     -0.240065  11 C  s               173      0.226465  11 C  s         
   179     -0.205857  11 C  py              205     -0.190376  13 H  s         
   175     -0.187433  11 C  px              480     -0.182265  29 C  s         
   162     -0.177419  10 H  s               141      0.176350   9 C  px        
   396      0.159126  24 C  pz              142      0.158318   9 C  py        

 Vector   63  Occ=2.000000D+00  E=-5.215181D-01
              MO Center=  7.6D-01,  5.8D-01, -3.1D-01, r^2= 1.1D+01
   Bfn.  Coefficient  Atom+Function         Bfn.  Coefficient  Atom+Function  
  ----- ------------  ---------------      ----- ------------  ---------------
   162      0.195928  10 H  s               139      0.190082   9 C  s         
   254      0.188109  16 O  pz              435     -0.173793  26 H  s         
   205      0.164659  13 H  s               173     -0.163185  11 C  s         
   179      0.156398  11 C  py              142     -0.155125   9 C  py        

 Vector   64  Occ=2.000000D+00  E=-4.825472D-01
              MO Center= -1.2D+00, -2.8D+00, -8.5D-02, r^2= 4.9D+00
   Bfn.  Coefficient  Atom+Function         Bfn.  Coefficient  Atom+Function  
  ----- ------------  ---------------      ----- ------------  ---------------
   571      0.320351  34 H  s               469      0.272129  28 H  s         
   435     -0.263909  26 H  s               537     -0.252424  32 H  s         
   514      0.228573  31 C  s               389     -0.212441  24 C  py        
   391      0.192816  24 C  px              414      0.193081  25 C  py        
   468      0.192493  28 H  s               392     -0.191494  24 C  py        

 Vector   65  Occ=2.000000D+00  E=-4.821514D-01
              MO Center= -1.2D+00, -2.8D+00, -2.2D-01, r^2= 4.3D+00
   Bfn.  Coefficient  Atom+Function         Bfn.  Coefficient  Atom+Function  
  ----- ------------  ---------------      ----- ------------  ---------------
   582      0.295291  35 C  s               300     -0.226404  18 H  s         
   310      0.189859  19 C  s               317     -0.185361  19 C  px        
   309      0.178864  19 C  s               351     -0.172158  21 C  px        
   517      0.171749  31 C  pz              396     -0.170095  24 C  pz        
   412     -0.167251  25 C  s               449      0.167161  27 C  pz        

 Vector   66  Occ=2.000000D+00  E=-4.722680D-01
              MO Center= -5.0D-01, -2.1D+00,  2.5D-01, r^2= 6.5D+00
   Bfn.  Coefficient  Atom+Function         Bfn.  Coefficient  Atom+Function  
  ----- ------------  ---------------      ----- ------------  ---------------
   503     -0.205660  30 H  s               348      0.194056  21 C  px        
   349      0.180969  21 C  py              390     -0.175155  24 C  pz        
   345      0.171251  21 C  px              480      0.165443  29 C  s         
   309     -0.162022  19 C  s               502     -0.153468  30 H  s         
   388     -0.152174  24 C  px              332     -0.151095  20 H  s         

 Vector   67  Occ=2.000000D+00  E=-4.590104D-01
              MO Center= -1.2D-01,  2.1D+00,  2.5D-02, r^2= 5.6D+00
   Bfn.  Coefficient  Atom+Function         Bfn.  Coefficient  Atom+Function  
  ----- ------------  ---------------      ----- ------------  ---------------
    84      0.355943   6 O  pz              253      0.323867  16 O  py        
    87      0.277812   6 O  pz              256      0.257064  16 O  py        
   109     -0.198254   7 N  pz              112     -0.182589   7 N  pz        
   275      0.168408  17 N  s               254     -0.163308  16 O  pz        
   107     -0.154573   7 N  px        

 Vector   68  Occ=2.000000D+00  E=-4.460865D-01
              MO Center= -1.3D+00,  2.1D+00,  1.8D-01, r^2= 4.4D+00
   Bfn.  Coefficient  Atom+Function         Bfn.  Coefficient  Atom+Function  
  ----- ------------  ---------------      ----- ------------  ---------------
    82      0.443809   6 O  px               85      0.364879   6 O  px        
    13     -0.248987   2 C  s               225      0.239117  15 C  s         
   140      0.216437   9 C  s               226      0.205840  15 C  s         
   276     -0.189209  17 N  s               105     -0.177310   7 N  s         
   144     -0.175798   9 C  px              253      0.175885  16 O  py        

 Vector   69  Occ=2.000000D+00  E=-4.329356D-01
              MO Center=  2.1D+00, -5.4D-01,  4.6D-01, r^2= 5.1D+00
   Bfn.  Coefficient  Atom+Function         Bfn.  Coefficient  Atom+Function  
  ----- ------------  ---------------      ----- ------------  ---------------
   610      0.340109  36 O  pz              613      0.264651  36 O  pz        
   279      0.262184  17 N  pz              608     -0.246955  36 O  px        
   254     -0.236939  16 O  pz              333      0.228706  20 H  s         
   282      0.217993  17 N  pz              611     -0.200157  36 O  px        
   257     -0.183507  16 O  pz              309     -0.178165  19 C  s         

 Vector   70  Occ=2.000000D+00  E=-4.096512D-01
              MO Center=  7.9D-01,  1.5D+00, -7.7D-02, r^2= 7.4D+00
   Bfn.  Coefficient  Atom+Function         Bfn.  Coefficient  Atom+Function  
  ----- ------------  ---------------      ----- ------------  ---------------
   253      0.273677  16 O  py              109      0.239104   7 N  pz        
   112      0.221011   7 N  pz              256      0.218956  16 O  py        
    84     -0.168861   6 O  pz              107      0.164876   7 N  px        

 Vector   71  Occ=2.000000D+00  E=-3.986583D-01
              MO Center=  2.1D+00, -6.8D-01, -3.8D-02, r^2= 6.2D+00
   Bfn.  Coefficient  Atom+Function         Bfn.  Coefficient  Atom+Function  
  ----- ------------  ---------------      ----- ------------  ---------------
   609      0.266921  36 O  py              633     -0.254611  37 N  px        
   634     -0.251895  37 N  py              637     -0.232527  37 N  py        
   610      0.219670  36 O  pz              612      0.213331  36 O  py        
   636     -0.205927  37 N  px              276     -0.196213  17 N  s         
   300     -0.195121  18 H  s               333      0.191937  20 H  s         

 Vector   72  Occ=2.000000D+00  E=-3.855240D-01
              MO Center=  1.8D+00, -3.6D-01,  3.3D-01, r^2= 4.7D+00
   Bfn.  Coefficient  Atom+Function         Bfn.  Coefficient  Atom+Function  
  ----- ------------  ---------------      ----- ------------  ---------------
   608      0.286220  36 O  px              279      0.277802  17 N  pz        
   282      0.253520  17 N  pz              611      0.224538  36 O  px        
   254     -0.214627  16 O  pz              610     -0.179981  36 O  pz        
   278      0.175468  17 N  py              281      0.175265  17 N  py        
   257     -0.166550  16 O  pz              285      0.158623  17 N  pz        

 Vector   73  Occ=2.000000D+00  E=-3.270062D-01
              MO Center= -1.4D+00, -3.0D+00, -3.1D-01, r^2= 3.3D+00
   Bfn.  Coefficient  Atom+Function         Bfn.  Coefficient  Atom+Function  
  ----- ------------  ---------------      ----- ------------  ---------------
   449      0.219784  27 C  pz              551     -0.220652  33 C  pz        
   415      0.183961  25 C  pz              517     -0.182807  31 C  pz        
   452      0.168197  27 C  pz              284      0.166676  17 N  py        
   554     -0.158634  33 C  pz        

 Vector   74  Occ=2.000000D+00  E=-3.220845D-01
              MO Center= -1.3D+00, -2.9D+00, -2.5D-01, r^2= 3.7D+00
   Bfn.  Coefficient  Atom+Function         Bfn.  Coefficient  Atom+Function  
  ----- ------------  ---------------      ----- ------------  ---------------
   390      0.237070  24 C  pz              483     -0.228741  29 C  pz        
   309      0.190329  19 C  s               393      0.189390  24 C  pz        
   486     -0.179664  29 C  pz              415      0.153820  25 C  pz        
   481      0.152669  29 C  px        

 Vector   75  Occ=0.000000D+00  E= 2.001174D-02
              MO Center= -1.6D+00,  5.2D+00,  2.0D-01, r^2= 2.1D+01
   Bfn.  Coefficient  Atom+Function         Bfn.  Coefficient  Atom+Function  
  ----- ------------  ---------------      ----- ------------  ---------------
   300      7.586727  18 H  s               148      3.546809   9 C  py        
   234      3.414984  15 C  py              174     -3.338845  11 C  s         
   226      2.565038  15 C  s               276      2.276898  17 N  s         
   412     -2.196082  25 C  s               198     -2.033185  12 H  s         
   235     -2.005640  15 C  pz               37     -1.786335   3 H  s         

 Vector   76  Occ=0.000000D+00  E= 3.278796D-02
              MO Center= -1.6D-01,  1.9D+00, -1.5D+00, r^2= 3.7D+01
   Bfn.  Coefficient  Atom+Function         Bfn.  Coefficient  Atom+Function  
  ----- ------------  ---------------      ----- ------------  ---------------
   300      4.685786  18 H  s               149     -3.518016   9 C  pz        
    63      3.135224   5 C  px              164     -2.940233  10 H  s         
   548      2.758645  33 C  s               276      2.675273  17 N  s         
   174     -2.394208  11 C  s               412     -2.390173  25 C  s         
   234      2.343929  15 C  py               65     -2.324197   5 C  pz        

 Vector   77  Occ=0.000000D+00  E= 3.601405D-02
              MO Center= -2.4D+00,  5.6D-01, -4.5D-01, r^2= 4.3D+01
   Bfn.  Coefficient  Atom+Function         Bfn.  Coefficient  Atom+Function  
  ----- ------------  ---------------      ----- ------------  ---------------
   300      5.392221  18 H  s               396     -3.730473  24 C  pz        
   395     -3.251451  24 C  py              318     -2.634684  19 C  py        
   351     -2.646049  21 C  px              514     -2.577039  31 C  s         
   538     -2.509868  32 H  s               106      2.375505   7 N  s         
   164     -2.235943  10 H  s                63     -2.205734   5 C  px        

 Vector   78  Occ=0.000000D+00  E= 4.021433D-02
              MO Center= -4.0D-01,  2.8D+00,  3.3D-01, r^2= 3.8D+01
   Bfn.  Coefficient  Atom+Function         Bfn.  Coefficient  Atom+Function  
  ----- ------------  ---------------      ----- ------------  ---------------
   300      2.740345  18 H  s                37      2.579967   3 H  s         
   147      2.291343   9 C  px                3     -2.136468   1 H  s         
   514      2.113009  31 C  s               319      2.022476  19 C  pz        
   334     -1.756806  20 H  s               538      1.737221  32 H  s         
   387     -1.692437  24 C  s               207     -1.628487  13 H  s         

 Vector   79  Occ=0.000000D+00  E= 4.499827D-02
              MO Center= -1.4D+00, -1.8D+00, -1.4D+00, r^2= 4.7D+01
   Bfn.  Coefficient  Atom+Function         Bfn.  Coefficient  Atom+Function  
  ----- ------------  ---------------      ----- ------------  ---------------
   480      4.033112  29 C  s               504      3.456812  30 H  s         
   548     -2.549927  33 C  s               522      2.276416  31 C  py        
   446      2.257082  27 C  s               470      2.172223  28 H  s         
   420      2.041995  25 C  py              130      2.012316   8 H  s         
   555      1.876428  33 C  px              557      1.834082  33 C  pz        

 Vector   80  Occ=0.000000D+00  E= 4.837953D-02
              MO Center= -5.0D-01, -9.6D-02, -1.4D+00, r^2= 4.9D+01
   Bfn.  Coefficient  Atom+Function         Bfn.  Coefficient  Atom+Function  
  ----- ------------  ---------------      ----- ------------  ---------------
   300      3.684440  18 H  s               446      3.541264  27 C  s         
   632      3.214167  37 N  s               538     -2.880210  32 H  s         
   591      2.786802  35 C  pz              470      2.653684  28 H  s         
   174     -2.598612  11 C  s               148      2.542670   9 C  py        
   514     -2.345562  31 C  s               149     -2.168220   9 C  pz        

 Vector   81  Occ=0.000000D+00  E= 5.291040D-02
              MO Center= -4.3D-01, -1.4D+00,  5.5D-01, r^2= 4.6D+01
   Bfn.  Coefficient  Atom+Function         Bfn.  Coefficient  Atom+Function  
  ----- ------------  ---------------      ----- ------------  ---------------
   480      3.881725  29 C  s               226      3.576789  15 C  s         
   470     -3.588875  28 H  s               395     -3.293140  24 C  py        
   353      3.035500  21 C  pz              514      3.025234  31 C  s         
   198     -2.964111  12 H  s               368     -2.795875  22 H  s         
   453      2.753907  27 C  px              412     -2.682857  25 C  s         

 Vector   82  Occ=0.000000D+00  E= 5.635096D-02
              MO Center= -4.8D-01,  2.9D+00, -5.3D-01, r^2= 3.7D+01
   Bfn.  Coefficient  Atom+Function         Bfn.  Coefficient  Atom+Function  
  ----- ------------  ---------------      ----- ------------  ---------------
   164      5.406896  10 H  s                46     -3.605503   4 H  s         
    63     -3.152662   5 C  px              387      3.047831  24 C  s         
    56     -2.811324   5 C  s               300     -2.798934  18 H  s         
   207     -2.772048  13 H  s               148      2.701229   9 C  py        
    13     -2.670976   2 C  s               113     -2.569188   7 N  px        

 Vector   83  Occ=0.000000D+00  E= 5.967995D-02
              MO Center= -6.9D-01,  2.8D-01, -3.7D-01, r^2= 5.2D+01
   Bfn.  Coefficient  Atom+Function         Bfn.  Coefficient  Atom+Function  
  ----- ------------  ---------------      ----- ------------  ---------------
   480      6.741671  29 C  s               514     -4.983555  31 C  s         
   538     -4.359159  32 H  s               504      4.023836  30 H  s         
   226      3.463597  15 C  s               412     -3.443056  25 C  s         
   521     -3.371551  31 C  px              387      2.970541  24 C  s         
   522      2.922905  31 C  py              488      2.707543  29 C  py        

 Vector   84  Occ=0.000000D+00  E= 6.514232D-02
              MO Center= -8.6D-01, -5.2D-01, -3.6D-01, r^2= 5.2D+01
   Bfn.  Coefficient  Atom+Function         Bfn.  Coefficient  Atom+Function  
  ----- ------------  ---------------      ----- ------------  ---------------
   480      6.594855  29 C  s               387      5.639617  24 C  s         
   504      5.228025  30 H  s               412     -4.475242  25 C  s         
   514     -4.132646  31 C  s               470     -3.949231  28 H  s         
   174      3.817814  11 C  s                37      3.546841   3 H  s         
   164     -3.420644  10 H  s               446     -3.322481  27 C  s         

 Vector   85  Occ=0.000000D+00  E= 6.962762D-02
              MO Center=  9.3D-01,  9.4D-01, -3.2D-01, r^2= 4.7D+01
   Bfn.  Coefficient  Atom+Function         Bfn.  Coefficient  Atom+Function  
  ----- ------------  ---------------      ----- ------------  ---------------
   149      4.889553   9 C  pz              387     -4.161237  24 C  s         
    13     -4.125727   2 C  s               198     -3.952233  12 H  s         
   334      3.895645  20 H  s               164      3.712313  10 H  s         
   632     -3.607818  37 N  s               514      3.358621  31 C  s         
   207      3.318762  13 H  s               572     -3.159530  34 H  s         

 Vector   86  Occ=0.000000D+00  E= 7.151723D-02
              MO Center=  1.0D+00,  4.9D-01,  1.3D+00, r^2= 3.9D+01
   Bfn.  Coefficient  Atom+Function         Bfn.  Coefficient  Atom+Function  
  ----- ------------  ---------------      ----- ------------  ---------------
   334      6.232556  20 H  s               368     -4.130011  22 H  s         
   480      4.093788  29 C  s               319     -3.910301  19 C  pz        
   300      3.677073  18 H  s               174      3.613871  11 C  s         
   572     -3.618018  34 H  s               353      3.085525  21 C  pz        
   226     -3.059105  15 C  s               387     -2.983205  24 C  s         

 Vector   87  Occ=0.000000D+00  E= 7.389148D-02
              MO Center= -1.1D+00,  6.4D-01,  9.2D-02, r^2= 4.8D+01
   Bfn.  Coefficient  Atom+Function         Bfn.  Coefficient  Atom+Function  
  ----- ------------  ---------------      ----- ------------  ---------------
[...]
   215     -5.205946  14 H  s               377      5.193041  23 H  s         

 Vector  191  Occ=0.000000D+00  E= 4.417453D-01
              MO Center=  1.5D-01, -2.2D-01,  2.0D-01, r^2= 2.6D+01
   Bfn.  Coefficient  Atom+Function         Bfn.  Coefficient  Atom+Function  
  ----- ------------  ---------------      ----- ------------  ---------------
   387     19.400359  24 C  s               480     16.632033  29 C  s         
   174     14.162844  11 C  s               582    -12.926431  35 C  s         
   446    -12.016461  27 C  s               548    -12.074749  33 C  s         
   149      8.278977   9 C  pz              300     -8.055272  18 H  s         
   514     -7.153133  31 C  s               114      6.588877   7 N  py        

 Vector  192  Occ=0.000000D+00  E= 4.442056D-01
              MO Center= -1.0D+00,  8.6D-01,  4.4D-01, r^2= 2.4D+01
   Bfn.  Coefficient  Atom+Function         Bfn.  Coefficient  Atom+Function  
  ----- ------------  ---------------      ----- ------------  ---------------
   300     12.723842  18 H  s               514     12.415938  31 C  s         
   582    -11.019707  35 C  s               106      9.310697   7 N  s         
   310     -8.834296  19 C  s               149     -8.697551   9 C  pz        
   226     -7.878413  15 C  s                56      7.172041   5 C  s         
   396      7.111219  24 C  pz              446     -7.036986  27 C  s         

 Vector  193  Occ=0.000000D+00  E= 4.478353D-01
              MO Center= -1.7D-01,  1.5D-01, -5.1D-01, r^2= 2.4D+01
   Bfn.  Coefficient  Atom+Function         Bfn.  Coefficient  Atom+Function  
  ----- ------------  ---------------      ----- ------------  ---------------
   480     14.169570  29 C  s               147    -11.123432   9 C  px        
    13    -10.344950   2 C  s               632      9.798783  37 N  s         
   276     -8.780405  17 N  s               226      8.143431  15 C  s         
   514      8.068109  31 C  s               548     -7.951214  33 C  s         
   140      7.725950   9 C  s                65      7.131590   5 C  pz        

 Vector  194  Occ=0.000000D+00  E= 4.502402D-01
              MO Center=  7.0D-01,  6.2D-01, -2.4D-01, r^2= 2.2D+01
   Bfn.  Coefficient  Atom+Function         Bfn.  Coefficient  Atom+Function  
  ----- ------------  ---------------      ----- ------------  ---------------
   226    -17.370755  15 C  s                13     16.728424   2 C  s         
   140    -14.949181   9 C  s                63      9.698784   5 C  px        
    12      8.165111   2 C  s               395      8.152725  24 C  py        
   300     -8.062914  18 H  s               276      7.813899  17 N  s         
   284      7.331581  17 N  py              318      7.143751  19 C  py        

 Vector  195  Occ=0.000000D+00  E= 4.525920D-01
              MO Center= -8.6D-02,  4.2D-01,  2.2D-01, r^2= 2.6D+01
   Bfn.  Coefficient  Atom+Function         Bfn.  Coefficient  Atom+Function  
  ----- ------------  ---------------      ----- ------------  ---------------
   582      9.793332  35 C  s               632      8.974234  37 N  s         
   318      7.010364  19 C  py              300     -6.248291  18 H  s         
   548      6.027910  33 C  s               396     -5.917372  24 C  pz        
   591      5.929869  35 C  pz              317     -5.450262  19 C  px        
   394     -4.749335  24 C  px              412     -4.467709  25 C  s         

 Vector  196  Occ=0.000000D+00  E= 4.594703D-01
              MO Center=  1.0D-01,  8.9D-01, -9.4D-02, r^2= 2.2D+01
   Bfn.  Coefficient  Atom+Function         Bfn.  Coefficient  Atom+Function  
  ----- ------------  ---------------      ----- ------------  ---------------
   632     13.617166  37 N  s               300     12.492969  18 H  s         
    56    -11.469354   5 C  s               235    -11.375405  15 C  pz        
    13    -10.647778   2 C  s               318     10.287462  19 C  py        
   148      9.868672   9 C  py              106     -8.752874   7 N  s         
    12     -7.936286   2 C  s               226      7.820588  15 C  s         

 Vector  197  Occ=0.000000D+00  E= 4.656598D-01
              MO Center= -7.2D-02, -2.2D-01, -4.3D-01, r^2= 2.2D+01
   Bfn.  Coefficient  Atom+Function         Bfn.  Coefficient  Atom+Function  
  ----- ------------  ---------------      ----- ------------  ---------------
   226     16.300875  15 C  s                13    -12.371979   2 C  s         
   514    -12.370147  31 C  s               174    -10.303917  11 C  s         
   148      9.589716   9 C  py              632     -9.533940  37 N  s         
   140      9.331958   9 C  s               446      9.127927  27 C  s         
    63     -8.648763   5 C  px              582      6.168976  35 C  s         

 Vector  198  Occ=0.000000D+00  E= 4.663294D-01
              MO Center=  3.5D-01, -1.0D+00, -2.5D-01, r^2= 2.2D+01
   Bfn.  Coefficient  Atom+Function         Bfn.  Coefficient  Atom+Function  
  ----- ------------  ---------------      ----- ------------  ---------------
   276      9.282729  17 N  s               632      8.489587  37 N  s         
   387     -7.437818  24 C  s               446      7.056656  27 C  s         
   284     -6.757314  17 N  py              344     -6.417487  21 C  s         
   300     -6.378201  18 H  s               591      6.399544  35 C  pz        
   106      5.824319   7 N  s               317     -5.553695  19 C  px        

 Vector  199  Occ=0.000000D+00  E= 4.759131D-01
              MO Center= -7.7D-01, -8.4D-01, -2.8D-01, r^2= 2.2D+01
   Bfn.  Coefficient  Atom+Function         Bfn.  Coefficient  Atom+Function  
  ----- ------------  ---------------      ----- ------------  ---------------
   556     10.180815  33 C  py              572    -10.047429  34 H  s         
   234     -8.670092  15 C  py              582     -7.045635  35 C  s         
   571     -6.774240  34 H  s               300      6.402677  18 H  s         
   395     -6.205544  24 C  py              555     -5.979744  33 C  px        
   446     -5.931758  27 C  s               632      5.671023  37 N  s         

 Vector  200  Occ=0.000000D+00  E= 4.789908D-01
              MO Center=  5.7D-01,  3.3D-01, -6.3D-01, r^2= 2.2D+01
   Bfn.  Coefficient  Atom+Function         Bfn.  Coefficient  Atom+Function  
  ----- ------------  ---------------      ----- ------------  ---------------
   412     14.550304  25 C  s               276    -12.594181  17 N  s         
   300    -10.007581  18 H  s               396      9.566236  24 C  pz        
   234     -7.927218  15 C  py              351      7.828967  21 C  px        
   140      6.964134   9 C  s               480     -6.303411  29 C  s         
   548     -6.095488  33 C  s               149      5.863787   9 C  pz        

 Vector  201  Occ=0.000000D+00  E= 4.823687D-01
              MO Center=  2.4D-01, -3.6D-01,  4.0D-01, r^2= 1.8D+01
   Bfn.  Coefficient  Atom+Function         Bfn.  Coefficient  Atom+Function  
  ----- ------------  ---------------      ----- ------------  ---------------
   514     13.698273  31 C  s               276    -10.038454  17 N  s         
   319     -9.713353  19 C  pz              387     -9.544699  24 C  s         
   174     -9.031313  11 C  s               310     -7.689724  19 C  s         
   300      7.517011  18 H  s               351      6.856076  21 C  px        
   148      6.400676   9 C  py              234     -6.288115  15 C  py        

 Vector  202  Occ=0.000000D+00  E= 4.839945D-01
              MO Center= -1.6D-01,  2.1D-01, -2.3D-01, r^2= 2.1D+01
   Bfn.  Coefficient  Atom+Function         Bfn.  Coefficient  Atom+Function  
  ----- ------------  ---------------      ----- ------------  ---------------
   226     17.440206  15 C  s               174    -13.659238  11 C  s         
    13     -9.457115   2 C  s               396     -9.454178  24 C  pz        
   140      9.234594   9 C  s               480      8.705164  29 C  s         
   582     -8.726715  35 C  s               283     -7.557513  17 N  px        
    56      7.304709   5 C  s               446     -7.078586  27 C  s         

 Vector  203  Occ=0.000000D+00  E= 4.852684D-01
              MO Center= -4.2D-02,  2.9D-01, -2.0D-02, r^2= 2.4D+01
   Bfn.  Coefficient  Atom+Function         Bfn.  Coefficient  Atom+Function  
  ----- ------------  ---------------      ----- ------------  ---------------
   174     11.905776  11 C  s               412      8.850621  25 C  s         
   582     -8.774270  35 C  s               367      7.584808  22 H  s         
   446     -7.303872  27 C  s               206     -7.065747  13 H  s         
   548     -6.872237  33 C  s               376      6.782613  23 H  s         
   234     -5.919900  15 C  py              514      5.622723  31 C  s         

 Vector  204  Occ=0.000000D+00  E= 4.904820D-01
              MO Center= -7.4D-01,  1.9D-01,  2.5D-01, r^2= 2.2D+01
   Bfn.  Coefficient  Atom+Function         Bfn.  Coefficient  Atom+Function  
  ----- ------------  ---------------      ----- ------------  ---------------
   387     14.617412  24 C  s               514     -9.280879  31 C  s         
   446     -9.166786  27 C  s               234     -8.448345  15 C  py        
   276     -7.428199  17 N  s               113      6.854014   7 N  px        
    13      5.683827   2 C  s               412     -5.571689  25 C  s         
   480      5.302935  29 C  s               420     -5.144403  25 C  py        

 Vector  205  Occ=0.000000D+00  E= 4.971706D-01
              MO Center=  1.1D-01,  3.6D-01, -1.7D-01, r^2= 2.5D+01
   Bfn.  Coefficient  Atom+Function         Bfn.  Coefficient  Atom+Function  
  ----- ------------  ---------------      ----- ------------  ---------------
   318      9.538485  19 C  py              632      9.183532  37 N  s         
    12      8.488316   2 C  s               446      8.355278  27 C  s         
   226     -8.055063  15 C  s               582     -6.812378  35 C  s         
   276      6.546350  17 N  s               351      6.353226  21 C  px        
   394     -6.349824  24 C  px              412      6.228339  25 C  s         

 Vector  206  Occ=0.000000D+00  E= 4.976993D-01
              MO Center=  1.6D-01,  6.6D-01,  1.7D-01, r^2= 2.1D+01
   Bfn.  Coefficient  Atom+Function         Bfn.  Coefficient  Atom+Function  
  ----- ------------  ---------------      ----- ------------  ---------------
   174     23.635715  11 C  s               387    -18.276146  24 C  s         
   514     15.021193  31 C  s               548    -13.984307  33 C  s         
   412     12.851637  25 C  s               234    -11.625873  15 C  py        
   284    -10.936124  17 N  py              276    -10.865040  17 N  s         
   149     10.449007   9 C  pz              147     -8.314459   9 C  px        

 Vector  207  Occ=0.000000D+00  E= 5.010042D-01
              MO Center= -3.6D-01,  8.9D-01,  2.8D-02, r^2= 2.2D+01
   Bfn.  Coefficient  Atom+Function         Bfn.  Coefficient  Atom+Function  
  ----- ------------  ---------------      ----- ------------  ---------------
   174     19.338901  11 C  s               226     -8.247678  15 C  s         
   394     -7.897404  24 C  px              283     -7.192961  17 N  px        
    56     -6.987782   5 C  s               148     -6.841666   9 C  py        
   548     -6.872857  33 C  s               480      5.878641  29 C  s         
   206     -5.774703  13 H  s               149      5.489487   9 C  pz        


 center of mass
 --------------
 x =   0.04322166 y =  -0.06385154 z =   0.01255964

 moments of inertia (a.u.)
 ------------------
        7407.584040216526          -0.000000000002           0.000000000001
          -0.000000000002        3999.902343793889           0.000000000000
           0.000000000001           0.000000000000        9810.597418996358

  Mulliken analysis of the total density
  --------------------------------------

    Atom       Charge   Shell Charges
 -----------   ------   -------------------------------------------------------
    1 H    1     0.86   0.76  0.13  0.00  0.03 -0.06
    2 C    6     6.26   2.01  0.66  0.24  0.12  2.07  1.01 -0.00  0.06  0.10
    3 H    1     0.85   0.76  0.11  0.00  0.03 -0.06
    4 H    1     0.99   0.76  0.25  0.00  0.03 -0.05
    5 C    6     5.12   2.01  0.68  0.08 -0.07  1.89  0.33 -0.06  0.24  0.01
    6 O    8     8.75   2.01  0.82  0.99  0.13  2.80  1.86  0.14  0.02 -0.01
    7 N    7     7.53   2.01  0.72  0.82 -0.12  2.45  1.44  0.11  0.05  0.05
    8 H    1     0.98   0.77  0.21 -0.02  0.05 -0.04
    9 C    6     6.79   2.01  0.66  0.15  0.03  1.99  1.62 -0.06  0.14  0.25
   10 H    1     1.09   0.78  0.25  0.01  0.03  0.02
   11 C    6     5.63   2.01  0.66  0.15  0.23  2.04  0.52 -0.04  0.07 -0.00
   12 H    1     0.96   0.77  0.23  0.01  0.03 -0.08
   13 H    1     0.89   0.77  0.14  0.02  0.03 -0.07
   14 H    1     0.99   0.77  0.26  0.00  0.03 -0.07
   15 C    6     4.54   2.01  0.68 -0.08  0.06  1.89  0.15  0.03  0.24 -0.44
   16 O    8     8.77   2.01  0.82  1.03  0.15  2.79  1.84  0.13  0.01 -0.01
   17 N    7     7.66   2.01  0.72  0.87 -0.05  2.45  1.43  0.15  0.05  0.03
   18 H    1     1.00   0.74  0.28  0.08  0.06 -0.16
   19 C    6     6.25   2.01  0.67  0.09  0.01  1.99  1.15  0.12  0.13  0.08
   20 H    1     0.98   0.78  0.16  0.00  0.03  0.00
   21 C    6     5.74   2.01  0.66  0.10 -0.07  2.04  0.96 -0.01  0.09 -0.03
   22 H    1     1.04   0.77  0.30 -0.01  0.03 -0.04
   23 H    1     1.08   0.78  0.35 -0.02  0.03 -0.06
   24 C    6     6.06   2.01  0.66  0.20 -0.14  2.00  0.83  0.12  0.12  0.27
   25 C    6     5.18   2.01  0.66  0.12 -0.51  2.00  0.82  0.17  0.09 -0.19
   26 H    1     1.64   0.78  0.82  0.01  0.03  0.01
   27 C    6     5.35   2.01  0.66  0.19 -0.40  2.00  0.79  0.27  0.09 -0.25
   28 H    1     1.55   0.78  0.73 -0.01  0.03  0.02
   29 C    6     5.36   2.01  0.66  0.12 -0.40  2.00  0.76  0.33  0.09 -0.22
   30 H    1     1.57   0.78  0.75 -0.01  0.03  0.02
   31 C    6     5.24   2.01  0.66  0.15 -0.43  2.00  0.77  0.25  0.09 -0.25
   32 H    1     1.57   0.78  0.76 -0.01  0.03  0.02
   33 C    6     5.47   2.01  0.66  0.20 -0.18  2.00  0.82  0.06  0.09 -0.19
   34 H    1     1.67   0.78  0.81  0.06  0.03 -0.00
   35 C    6     4.50   2.01  0.68  0.09 -0.05  1.89 -0.23 -0.02  0.24 -0.10
   36 O    8     8.90   2.01  0.82  1.05  0.20  2.79  1.86  0.16  0.01 -0.00
   37 N    7     7.29   2.01  0.72  0.84 -0.12  2.47  1.24  0.10  0.04 -0.00
   38 H    1     1.00   0.75  0.22 -0.01  0.05 -0.02
   39 H    1     0.91   0.76  0.17 -0.02  0.05 -0.05

       Multipole analysis of the density wrt the origin
       ------------------------------------------------

     L   x y z        total         open         nuclear
     -   - - -        -----         ----         -------
     0   0 0 0     -0.000000      0.000000    148.000000

     1   1 0 0     -1.604684      0.000000     -0.000000
     1   0 1 0      2.329694      0.000000     -0.000000
     1   0 0 1     -0.730266      0.000000     -0.000000

     2   2 0 0   -101.769990      0.000000   1736.003183
     2   1 1 0     -3.406292      0.000000     -7.476304
     2   1 0 1     -7.549567      0.000000    -24.418705
     2   0 2 0    -76.158922      0.000000   3647.149989
     2   0 1 1      6.358611      0.000000      6.018944
     2   0 0 2    -83.981523      0.000000    481.777878


 Task  times  cpu:     6347.5s     wall:     6436.1s


                                NWChem Input Module
                                -------------------


 Summary of allocated global arrays
-----------------------------------
  No active global arrays


MA_summarize_allocated_blocks: starting scan ...
MA_summarize_allocated_blocks: scan completed: 0 heap blocks, 0 stack blocks
MA usage statistics:

	allocation statistics:
					      heap	     stack
					      ----	     -----
	current number of blocks	         0	         0
	maximum number of blocks	        16	        14
	current total bytes		         0	         0
	maximum total bytes		    142992	  30457944
	maximum total K-bytes		       143	     30458
	maximum total M-bytes		         1	        31


                                     CITATION
                                     --------
                Please cite the following reference when publishing
                           results obtained with NWChem:

          E. Apra, E. J. Bylaska, W. A. de Jong, N. Govind, K. Kowalski,
       T. P. Straatsma, M. Valiev, H. J. J. van Dam, Y. Alexeev, J. Anchell,
       V. Anisimov, F. W. Aquino, R. Atta-Fynn, J. Autschbach, N. P. Bauman,
     J. C. Becca, D. E. Bernholdt, K. Bhaskaran-Nair, S. Bogatko, P. Borowski,
         J. Boschen, J. Brabec, A. Bruner, E. Cauet, Y. Chen, G. N. Chuev,
      C. J. Cramer, J. Daily, M. J. O. Deegan, T. H. Dunning Jr., M. Dupuis,
   K. G. Dyall, G. I. Fann, S. A. Fischer, A. Fonari, H. Fruchtl, L. Gagliardi,
      J. Garza, N. Gawande, S. Ghosh, K. Glaesemann, A. W. Gotz, J. Hammond,
       V. Helms, E. D. Hermes, K. Hirao, S. Hirata, M. Jacquelin, L. Jensen,
   B. G. Johnson, H. Jonsson, R. A. Kendall, M. Klemm, R. Kobayashi, V. Konkov,
      S. Krishnamoorthy, M. Krishnan, Z. Lin, R. D. Lins, R. J. Littlefield,
      A. J. Logsdail, K. Lopata, W. Ma, A. V. Marenich, J. Martin del Campo,
   D. Mejia-Rodriguez, J. E. Moore, J. M. Mullin, T. Nakajima, D. R. Nascimento,
    J. A. Nichols, P. J. Nichols, J. Nieplocha, A. Otero-de-la-Roza, B. Palmer,
    A. Panyala, T. Pirojsirikul, B. Peng, R. Peverati, J. Pittner, L. Pollack,
   R. M. Richard, P. Sadayappan, G. C. Schatz, W. A. Shelton, D. W. Silverstein,
   D. M. A. Smith, T. A. Soares, D. Song, M. Swart, H. L. Taylor, G. S. Thomas,
            V. Tipparaju, D. G. Truhlar, K. Tsemekhman, T. Van Voorhis,
      A. Vazquez-Mayagoitia, P. Verma, O. Villa, A. Vishnu, K. D. Vogiatzis,
        D. Wang, J. H. Weare, M. J. Williamson, T. L. Windus, K. Wolinski,
        A. T. Wong, Q. Wu, C. Yang, Q. Yu, M. Zacharias, Z. Zhang, Y. Zhao,
                                and R. J. Harrison
                        "NWChem: Past, present, and future
                         J. Chem. Phys. 152, 184102 (2020)
                               doi:10.1063/5.0004997

                                      AUTHORS
                                      -------
  E. Apra, E. J. Bylaska, N. Govind, K. Kowalski, M. Valiev, D. Mejia-Rodriguez,
       A. Kunitsa, N. P. Bauman, A. Panyala, W. A. de Jong, T. P. Straatsma,
   H. J. J. van Dam, D. Wang, T. L. Windus, J. Hammond, J. Autschbach, A. Woods,
    K. Bhaskaran-Nair, J. Brabec, K. Lopata, S. A. Fischer, S. Krishnamoorthy,
     M. Jacquelin, W. Ma, M. Klemm, O. Villa, Y. Chen, V. Anisimov, F. Aquino,
     S. Hirata, M. T. Hackler, E. Hermes, L. Jensen, J. E. Moore, J. C. Becca,
      V. Konjkov, T. Risthaus, M. Malagoli, A. Marenich, A. Otero-de-la-Roza,
        J. Mullin, P. Nichols, R. Peverati, J. Pittner, Y. Zhao, P.-D. Fan,
        A. Fonari, M. J. Williamson, R. J. Harrison, J. R. Rehr, M. Dupuis,
     D. Silverstein, D. M. A. Smith, J. Nieplocha, V. Tipparaju, M. Krishnan,
     B. E. Van Kuiken, A. Vazquez-Mayagoitia, M. Swart, Q. Wu, T. Van Voorhis,
     A. A. Auer, M. Nooijen, L. D. Crosby, E. Brown, G. Cisneros, G. I. Fann,
   H. Fruchtl, J. Garza, K. Hirao, R. A. Kendall, J. A. Nichols, K. Tsemekhman,
    K. Wolinski, J. Anchell, D. E. Bernholdt, P. Borowski, T. Clark, D. Clerc,
   H. Dachsel, M. J. O. Deegan, K. Dyall, D. Elwood, E. Glendening, M. Gutowski,
   A. C. Hess, J. Jaffe, B. G. Johnson, J. Ju, R. Kobayashi, R. Kutteh, Z. Lin,
   R. Littlefield, X. Long, B. Meng, T. Nakajima, S. Niu, L. Pollack, M. Rosing,
   K. Glaesemann, G. Sandrone, M. Stave, H. Taylor, G. Thomas, J. H. van Lenthe,
                               A. T. Wong, Z. Zhang.

 Total times  cpu:     6347.6s     wall:     6436.6s
