export TMOUT=5400
export TMPDIR=/tmp
export PTMPDIR=/tmp/ptmp
 argument  1 = ALA_ILE_0.nw
                                         
                                         


             Northwest Computational Chemistry Package (NWChem) 7.2.0
             --------------------------------------------------------


                    Environmental Molecular Sciences Laboratory
                       Pacific Northwest National Laboratory
                                Richland, WA 99352

                              Copyright (c) 1994-2022
                       Pacific Northwest National Laboratory
                            Battelle Memorial Institute

             NWChem is an open-source computational chemistry package
                        distributed under the terms of the
                      Educational Community License (ECL) 2.0
             A copy of the license is included with this distribution
                              in the LICENSE.TXT file

                                  ACKNOWLEDGMENT
                                  --------------

            This software and its documentation were developed at the
            EMSL at Pacific Northwest National Laboratory, a multiprogram
            national laboratory, operated for the U.S. Department of Energy
            by Battelle under Contract Number DE-AC05-76RL01830. Support
            for this work was provided by the Department of Energy Office
            of Biological and Environmental Research, Office of Basic
            Energy Sciences, and the Office of Advanced Scientific Computing.


           Job information
           ---------------

    hostname        = nova18-33
    program         = /opt/rit/el9/20230413/app/linux-rhel9-x86_64_v3/gcc-11.2.1/nwchem-7.2.0-oxtctbuhfuzyfaoziquq6bki22grib3g/bin/nwchem
    date            = Fri Jun 27 09:07:21 2025

    compiled        = Wed_May_17_23:46:39_2023
    source          = /tmp/root/spack-stage/spack-stage-nwchem-7.2.0-oxtctbuhfuzyfaoziquq6bki22grib3g/spack-src
    nwchem branch   = 7.2.0
    nwchem revision = d0d141fd
    ga revision     = 5.8.0
    use scalapack   = T
    input           = ALA_ILE_0.nw
    prefix          = ALA_ILE_0.
    data base       = ./ALA_ILE_0.db
    status          = startup
    nproc           =        8
    time left       =     -1s



           Memory information
           ------------------

    heap     =   26214394 doubles =    200.0 Mbytes
    stack    =   26214399 doubles =    200.0 Mbytes
    global   =   52428800 doubles =    400.0 Mbytes (distinct from heap & stack)
    total    =  104857593 doubles =    800.0 Mbytes
    verify   = yes
    hardfail = no 


           Directory information
           ---------------------

  0 permanent = .
  0 scratch   = .




                                NWChem Input Module
                                -------------------



 Scaling coordinates for geometry "geometry" by  1.889725989
 (inverse scale =  0.529177249)

 C1  symmetry detected

          ------
          auto-z
          ------
  no constraints, skipping    0.0000000000000000     
  no constraints, skipping    0.0000000000000000     


                             Geometry "geometry" -> ""
                             -------------------------

 Output coordinates in angstroms (scale by  1.889725989 to convert to a.u.)

  No.       Tag          Charge          X              Y              Z
 ---- ---------------- ---------- -------------- -------------- --------------
    1 H                    1.0000     3.29156602     2.06827112     1.70555187
    2 C                    6.0000     2.84590930     2.48457860     0.80282978
    3 H                    1.0000     3.30642292     2.03105606    -0.07296558
    4 H                    1.0000     2.99915688     3.56188535     0.78839571
    5 C                    6.0000     1.36441906     2.19045435     0.80845273
    6 O                    8.0000     0.86481520     1.56432272     1.73203768
    7 N                    7.0000     0.66538715     2.61005955    -0.24595699
    8 H                    1.0000     1.15665771     3.11306182    -0.96662887
    9 C                    6.0000    -0.79839939     2.52102063    -0.36297003
   10 H                    1.0000    -1.23587445     3.03420950     0.49498844
   11 C                    6.0000    -1.21023390     3.28171144    -1.63137802
   12 H                    1.0000    -0.80194811     2.78848080    -2.51448914
   13 H                    1.0000    -2.29826323     3.29597840    -1.70848589
   14 H                    1.0000    -0.85030715     4.30975933    -1.58517970
   15 C                    6.0000    -1.38499696     1.08834852    -0.35375564
   16 O                    8.0000    -2.60024898     0.93026567    -0.29577859
   17 N                    7.0000    -0.54171509     0.05029105    -0.39715363
   18 H                    1.0000     0.44255221     0.25801631    -0.40952705
   19 C                    6.0000    -0.93571882    -1.35925642    -0.22513916
   20 H                    1.0000    -1.88831289    -1.50865072    -0.73471239
   21 C                    6.0000     0.10127246    -2.29590057    -0.88979233
   22 H                    1.0000    -0.26701993    -3.31673806    -0.77679887
   23 C                    6.0000     0.18198667    -2.00945225    -2.40239657
   24 H                    1.0000     0.74472763    -2.79778818    -2.90328986
   25 H                    1.0000    -0.82316038    -1.99308511    -2.82576463
   26 H                    1.0000     0.66444434    -1.05119168    -2.58931175
   27 C                    6.0000     1.48826868    -2.21688611    -0.20733632
   28 H                    1.0000     1.91048580    -1.22041451    -0.34053935
   29 H                    1.0000     1.37207024    -2.39400578     0.86184587
   30 C                    6.0000     2.49525260    -3.24874209    -0.73162117
   31 H                    1.0000     3.40524243    -3.19950874    -0.13233360
   32 H                    1.0000     2.07529490    -4.25185590    -0.65449644
   33 H                    1.0000     2.75262545    -3.03820940    -1.76895439
   34 C                    6.0000    -1.18091972    -1.75489243     1.24528481
   35 O                    8.0000    -1.62223493    -2.86373427     1.51961613
   36 N                    7.0000    -0.88694959    -0.89679472     2.21581244
   37 H                    1.0000    -0.48926163     0.00688114     1.99756665
   38 H                    1.0000    -1.06384638    -1.17377787     3.16614600

      Atomic Mass 
      ----------- 

      H                  1.007825
      C                 12.000000
      O                 15.994910
      N                 14.003070


 Effective nuclear repulsion energy (a.u.)    1348.8068957944

            Nuclear Dipole moment (a.u.) 
            ----------------------------
        X                 Y               Z
 ---------------- ---------------- ----------------
    -0.0000000000    -0.0000000000    -0.0000000000



                                Z-matrix (autoz)
                                -------- 

 Units are Angstrom for bonds and degrees for angles

      Type          Name      I     J     K     L     M      Value
      ----------- --------  ----- ----- ----- ----- ----- ----------
    1 Stretch                  1     2                       1.08942
    2 Stretch                  2     3                       1.08847
    3 Stretch                  2     4                       1.08825
    4 Stretch                  2     5                       1.51042
    5 Stretch                  5     6                       1.22256
    6 Stretch                  5     7                       1.33285
    7 Stretch                  7     8                       1.00684
    8 Stretch                  7     9                       1.47115
    9 Stretch                  9    10                       1.09126
   10 Stretch                  9    11                       1.53529
   11 Stretch                  9    15                       1.54814
   12 Stretch                 11    12                       1.09081
   13 Stretch                 11    13                       1.09085
   14 Stretch                 11    14                       1.09021
   15 Stretch                 15    16                       1.22686
   16 Stretch                 15    17                       1.33812
   17 Stretch                 17    18                       1.00602
   18 Stretch                 17    19                       1.47365
   19 Stretch                 19    20                       1.09060
   20 Stretch                 19    21                       1.54739
   21 Stretch                 19    34                       1.54234
   22 Stretch                 21    22                       1.09111
   23 Stretch                 21    23                       1.54160
   24 Stretch                 21    27                       1.54782
   25 Stretch                 23    24                       1.09043
   26 Stretch                 23    25                       1.09079
   27 Stretch                 23    26                       1.08902
   28 Stretch                 27    28                       1.09040
   29 Stretch                 27    29                       1.08997
   30 Stretch                 27    30                       1.53415
   31 Stretch                 30    31                       1.09071
   32 Stretch                 30    32                       1.09021
   33 Stretch                 30    33                       1.08932
   34 Stretch                 34    35                       1.22456
   35 Stretch                 34    36                       1.32841
   36 Stretch                 36    37                       1.01115
   37 Stretch                 36    38                       1.00556
   38 Bend                     1     2     3               109.53771
   39 Bend                     1     2     4               109.37078
   40 Bend                     1     2     5               108.88959
   41 Bend                     2     5     6               120.22329
   42 Bend                     2     5     7               116.75459
   43 Bend                     3     2     4               110.01218
   44 Bend                     3     2     5               109.68441
   45 Bend                     4     2     5               109.32621
   46 Bend                     5     7     8               117.87996
   47 Bend                     5     7     9               124.45131
   48 Bend                     6     5     7               122.99334
   49 Bend                     7     9    10               107.93197
   50 Bend                     7     9    11               107.61544
   51 Bend                     7     9    15               115.62910
   52 Bend                     8     7     9               117.30938
   53 Bend                     9    11    12               110.14643
   54 Bend                     9    11    13               109.41633
   55 Bend                     9    11    14               110.09937
   56 Bend                     9    15    16               119.65935
   57 Bend                     9    15    17               118.61487
   58 Bend                    10     9    11               107.99894
   59 Bend                    10     9    15               106.17783
   60 Bend                    11     9    15               111.21041
   61 Bend                    12    11    13               108.78487
   62 Bend                    12    11    14               109.70166
   63 Bend                    13    11    14               108.66001
   64 Bend                    15    17    18               117.18006
   65 Bend                    15    17    19               124.73154
   66 Bend                    16    15    17               121.72278
   67 Bend                    17    19    20               108.06022
   68 Bend                    17    19    21               110.46654
   69 Bend                    17    19    34               113.52498
   70 Bend                    18    17    19               117.42054
   71 Bend                    19    21    22               107.19572
   72 Bend                    19    21    23               110.12481
   73 Bend                    19    21    27               112.34834
   74 Bend                    19    34    35               120.20868
   75 Bend                    19    34    36               119.71251
   76 Bend                    20    19    21               107.56211
   77 Bend                    20    19    34               105.75078
   78 Bend                    21    19    34               111.14778
   79 Bend                    21    23    24               110.08403
   80 Bend                    21    23    25               109.59501
   81 Bend                    21    23    26               110.79983
   82 Bend                    21    27    28               109.86290
   83 Bend                    21    27    29               109.18874
   84 Bend                    21    27    30               113.77615
   85 Bend                    22    21    23               107.04534
   86 Bend                    22    21    27               107.73224
   87 Bend                    23    21    27               112.09959
   88 Bend                    24    23    25               107.94540
   89 Bend                    24    23    26               109.18863
   90 Bend                    25    23    26               109.17261
   91 Bend                    27    30    31               109.23802
   92 Bend                    27    30    32               109.98908
   93 Bend                    27    30    33               110.51931
   94 Bend                    28    27    29               108.03594
   95 Bend                    28    27    30               108.58725
   96 Bend                    29    27    30               107.21183
   97 Bend                    31    30    32               108.90783
   98 Bend                    31    30    33               108.50445
   99 Bend                    32    30    33               109.64610
  100 Bend                    34    36    37               120.44074
  101 Bend                    34    36    38               118.26884
  102 Bend                    35    34    36               120.06603
  103 Bend                    37    36    38               121.28877
  104 Torsion                  1     2     5     6          -0.58430
  105 Torsion                  1     2     5     7        -178.69072
  106 Torsion                  2     5     7     8          -1.44512
  107 Torsion                  2     5     7     9        -174.36128
  108 Torsion                  3     2     5     6         119.27103
  109 Torsion                  3     2     5     7         -58.83539
  110 Torsion                  4     2     5     6        -120.02330
  111 Torsion                  4     2     5     7          61.87028
  112 Torsion                  5     7     9    10          56.07728
  113 Torsion                  5     7     9    11         172.40498
  114 Torsion                  5     7     9    15         -62.61140
  115 Torsion                  6     5     7     8        -179.49433
  116 Torsion                  6     5     7     9           7.58952
  117 Torsion                  7     9    11    12          64.52308
  118 Torsion                  7     9    11    13        -175.93913
  119 Torsion                  7     9    11    14         -56.58346
  120 Torsion                  7     9    15    16         171.85161
  121 Torsion                  7     9    15    17          -7.52891
  122 Torsion                  8     7     9    10        -116.87584
  123 Torsion                  8     7     9    11          -0.54814
  124 Torsion                  8     7     9    15         124.43548
  125 Torsion                  9    15    17    18           1.56519
  126 Torsion                  9    15    17    19         171.92896
  127 Torsion                 10     9    11    12        -179.19314
  128 Torsion                 10     9    11    13         -59.65535
  129 Torsion                 10     9    11    14          59.70031
  130 Torsion                 10     9    15    16          52.19885
  131 Torsion                 10     9    15    17        -127.18167
  132 Torsion                 11     9    15    16         -65.04024
  133 Torsion                 11     9    15    17         115.57924
  134 Torsion                 12    11     9    15         -63.06810
  135 Torsion                 13    11     9    15          56.46969
  136 Torsion                 14    11     9    15         175.82535
  137 Torsion                 15    17    19    20          39.18124
  138 Torsion                 15    17    19    21         156.59804
  139 Torsion                 15    17    19    34         -77.77798
  140 Torsion                 16    15    17    18        -177.80195
  141 Torsion                 16    15    17    19          -7.43817
  142 Torsion                 17    19    21    22        -177.10988
  143 Torsion                 17    19    21    23         -60.99333
  144 Torsion                 17    19    21    27          64.72984
  145 Torsion                 17    19    34    35         173.83193
  146 Torsion                 17    19    34    36          -7.46759
  147 Torsion                 18    17    19    20        -150.47608
  148 Torsion                 18    17    19    21         -33.05929
  149 Torsion                 18    17    19    34          92.56469
  150 Torsion                 19    21    23    24        -168.01072
  151 Torsion                 19    21    23    25         -49.43065
  152 Torsion                 19    21    23    26          71.10888
  153 Torsion                 19    21    27    28         -64.79836
  154 Torsion                 19    21    27    29          53.51472
  155 Torsion                 19    21    27    30         173.23004
  156 Torsion                 19    34    36    37          -1.04456
  157 Torsion                 19    34    36    38         179.41628
  158 Torsion                 20    19    21    22         -59.38658
  159 Torsion                 20    19    21    23          56.72997
  160 Torsion                 20    19    21    27        -177.54686
  161 Torsion                 20    19    34    35          55.53167
  162 Torsion                 20    19    34    36        -125.76785
  163 Torsion                 21    19    34    35         -60.90780
  164 Torsion                 21    19    34    36         117.79268
  165 Torsion                 21    27    30    31        -174.03331
  166 Torsion                 21    27    30    32         -54.55086
  167 Torsion                 21    27    30    33          66.65670
  168 Torsion                 22    21    19    34          55.93583
  169 Torsion                 22    21    23    24         -51.79989
  170 Torsion                 22    21    23    25          66.78019
  171 Torsion                 22    21    23    26        -172.68028
  172 Torsion                 22    21    27    28         177.35879
  173 Torsion                 22    21    27    29         -64.32813
  174 Torsion                 22    21    27    30          55.38719
  175 Torsion                 23    21    19    34         172.05238
  176 Torsion                 23    21    27    28          59.84313
  177 Torsion                 23    21    27    29         178.15621
  178 Torsion                 23    21    27    30         -62.12847
  179 Torsion                 24    23    21    27          66.12515
  180 Torsion                 25    23    21    27        -175.29477
  181 Torsion                 26    23    21    27         -54.75525
  182 Torsion                 27    21    19    34         -62.22445
  183 Torsion                 28    27    30    31          63.29201
  184 Torsion                 28    27    30    32        -177.22554
  185 Torsion                 28    27    30    33         -56.01798
  186 Torsion                 29    27    30    31         -53.20435
  187 Torsion                 29    27    30    32          66.27810
  188 Torsion                 29    27    30    33        -172.51434
  189 Torsion                 35    34    36    37         177.65780
  190 Torsion                 35    34    36    38          -1.88137


            XYZ format geometry
            -------------------
    38
 geometry
 H                     3.29156602     2.06827112     1.70555187
 C                     2.84590930     2.48457860     0.80282978
 H                     3.30642292     2.03105606    -0.07296558
 H                     2.99915688     3.56188535     0.78839571
 C                     1.36441906     2.19045435     0.80845273
 O                     0.86481520     1.56432272     1.73203768
 N                     0.66538715     2.61005955    -0.24595699
 H                     1.15665771     3.11306182    -0.96662887
 C                    -0.79839939     2.52102063    -0.36297003
 H                    -1.23587445     3.03420950     0.49498844
 C                    -1.21023390     3.28171144    -1.63137802
 H                    -0.80194811     2.78848080    -2.51448914
 H                    -2.29826323     3.29597840    -1.70848589
 H                    -0.85030715     4.30975933    -1.58517970
 C                    -1.38499696     1.08834852    -0.35375564
 O                    -2.60024898     0.93026567    -0.29577859
 N                    -0.54171509     0.05029105    -0.39715363
 H                     0.44255221     0.25801631    -0.40952705
 C                    -0.93571882    -1.35925642    -0.22513916
 H                    -1.88831289    -1.50865072    -0.73471239
 C                     0.10127246    -2.29590057    -0.88979233
 H                    -0.26701993    -3.31673806    -0.77679887
 C                     0.18198667    -2.00945225    -2.40239657
 H                     0.74472763    -2.79778818    -2.90328986
 H                    -0.82316038    -1.99308511    -2.82576463
 H                     0.66444434    -1.05119168    -2.58931175
 C                     1.48826868    -2.21688611    -0.20733632
 H                     1.91048580    -1.22041451    -0.34053935
 H                     1.37207024    -2.39400578     0.86184587
 C                     2.49525260    -3.24874209    -0.73162117
 H                     3.40524243    -3.19950874    -0.13233360
 H                     2.07529490    -4.25185590    -0.65449644
 H                     2.75262545    -3.03820940    -1.76895439
 C                    -1.18091972    -1.75489243     1.24528481
 O                    -1.62223493    -2.86373427     1.51961613
 N                    -0.88694959    -0.89679472     2.21581244
 H                    -0.48926163     0.00688114     1.99756665
 H                    -1.06384638    -1.17377787     3.16614600

 ==============================================================================
                                internuclear distances
 ------------------------------------------------------------------------------
       center one      |      center two      | atomic units |  angstroms
 ------------------------------------------------------------------------------
    2 C                |   1 H                |     2.05870  |     1.08942
    3 H                |   2 C                |     2.05692  |     1.08847
    4 H                |   2 C                |     2.05649  |     1.08825
    5 C                |   2 C                |     2.85427  |     1.51042
    6 O                |   5 C                |     2.31030  |     1.22256
    7 N                |   5 C                |     2.51872  |     1.33285
    8 H                |   7 N                |     1.90265  |     1.00684
    9 C                |   7 N                |     2.78008  |     1.47115
   10 H                |   9 C                |     2.06218  |     1.09126
   11 C                |   9 C                |     2.90128  |     1.53529
   12 H                |  11 C                |     2.06133  |     1.09081
   13 H                |  11 C                |     2.06141  |     1.09085
   14 H                |  11 C                |     2.06020  |     1.09021
   15 C                |   9 C                |     2.92556  |     1.54814
   16 O                |  15 C                |     2.31843  |     1.22686
   17 N                |  15 C                |     2.52868  |     1.33812
   18 H                |  17 N                |     1.90111  |     1.00602
   19 C                |  17 N                |     2.78480  |     1.47365
   20 H                |  19 C                |     2.06094  |     1.09060
   21 C                |  19 C                |     2.92414  |     1.54739
   22 H                |  21 C                |     2.06189  |     1.09111
   23 C                |  21 C                |     2.91321  |     1.54160
   24 H                |  23 C                |     2.06062  |     1.09043
   25 H                |  23 C                |     2.06130  |     1.09079
   26 H                |  23 C                |     2.05795  |     1.08902
   27 C                |  21 C                |     2.92496  |     1.54782
   28 H                |  27 C                |     2.06055  |     1.09040
   29 H                |  27 C                |     2.05974  |     1.08997
   30 C                |  27 C                |     2.89912  |     1.53415
   31 H                |  30 C                |     2.06115  |     1.09071
   32 H                |  30 C                |     2.06019  |     1.09021
   33 H                |  30 C                |     2.05852  |     1.08932
   34 C                |  19 C                |     2.91459  |     1.54234
   35 O                |  34 C                |     2.31408  |     1.22456
   36 N                |  34 C                |     2.51033  |     1.32841
   37 H                |  36 N                |     1.91079  |     1.01115
   38 H                |  36 N                |     1.90023  |     1.00556
 ------------------------------------------------------------------------------
                         number of included internuclear distances:         37
 ==============================================================================



 ==============================================================================
                                 internuclear angles
 ------------------------------------------------------------------------------
        center 1       |       center 2       |       center 3       |  degrees
 ------------------------------------------------------------------------------
    1 H                |   2 C                |   3 H                |   109.54
    1 H                |   2 C                |   4 H                |   109.37
    1 H                |   2 C                |   5 C                |   108.89
    3 H                |   2 C                |   4 H                |   110.01
    3 H                |   2 C                |   5 C                |   109.68
    4 H                |   2 C                |   5 C                |   109.33
    2 C                |   5 C                |   6 O                |   120.22
    2 C                |   5 C                |   7 N                |   116.75
    6 O                |   5 C                |   7 N                |   122.99
    5 C                |   7 N                |   8 H                |   117.88
    5 C                |   7 N                |   9 C                |   124.45
    8 H                |   7 N                |   9 C                |   117.31
    7 N                |   9 C                |  10 H                |   107.93
    7 N                |   9 C                |  11 C                |   107.62
    7 N                |   9 C                |  15 C                |   115.63
   10 H                |   9 C                |  11 C                |   108.00
   10 H                |   9 C                |  15 C                |   106.18
   11 C                |   9 C                |  15 C                |   111.21
    9 C                |  11 C                |  12 H                |   110.15
    9 C                |  11 C                |  13 H                |   109.42
    9 C                |  11 C                |  14 H                |   110.10
   12 H                |  11 C                |  13 H                |   108.78
   12 H                |  11 C                |  14 H                |   109.70
   13 H                |  11 C                |  14 H                |   108.66
    9 C                |  15 C                |  16 O                |   119.66
    9 C                |  15 C                |  17 N                |   118.61
   16 O                |  15 C                |  17 N                |   121.72
   15 C                |  17 N                |  18 H                |   117.18
   15 C                |  17 N                |  19 C                |   124.73
   18 H                |  17 N                |  19 C                |   117.42
   17 N                |  19 C                |  20 H                |   108.06
   17 N                |  19 C                |  21 C                |   110.47
   17 N                |  19 C                |  34 C                |   113.52
   20 H                |  19 C                |  21 C                |   107.56
   20 H                |  19 C                |  34 C                |   105.75
   21 C                |  19 C                |  34 C                |   111.15
   19 C                |  21 C                |  22 H                |   107.20
   19 C                |  21 C                |  23 C                |   110.12
   19 C                |  21 C                |  27 C                |   112.35
   22 H                |  21 C                |  23 C                |   107.05
   22 H                |  21 C                |  27 C                |   107.73
   23 C                |  21 C                |  27 C                |   112.10
   21 C                |  23 C                |  24 H                |   110.08
   21 C                |  23 C                |  25 H                |   109.60
   21 C                |  23 C                |  26 H                |   110.80
   24 H                |  23 C                |  25 H                |   107.95
   24 H                |  23 C                |  26 H                |   109.19
   25 H                |  23 C                |  26 H                |   109.17
   21 C                |  27 C                |  28 H                |   109.86
   21 C                |  27 C                |  29 H                |   109.19
   21 C                |  27 C                |  30 C                |   113.78
   28 H                |  27 C                |  29 H                |   108.04
   28 H                |  27 C                |  30 C                |   108.59
   29 H                |  27 C                |  30 C                |   107.21
   27 C                |  30 C                |  31 H                |   109.24
   27 C                |  30 C                |  32 H                |   109.99
   27 C                |  30 C                |  33 H                |   110.52
   31 H                |  30 C                |  32 H                |   108.91
   31 H                |  30 C                |  33 H                |   108.50
   32 H                |  30 C                |  33 H                |   109.65
   19 C                |  34 C                |  35 O                |   120.21
   19 C                |  34 C                |  36 N                |   119.71
   35 O                |  34 C                |  36 N                |   120.07
   34 C                |  36 N                |  37 H                |   120.44
   34 C                |  36 N                |  38 H                |   118.27
   37 H                |  36 N                |  38 H                |   121.29
 ------------------------------------------------------------------------------
                            number of included internuclear angles:         66
 ==============================================================================



  library name resolved from: environment
  library file name is: </opt/rit/el9/20230413/app/linux-rhel9-x86_64_v3/gcc-11.2.1/nwchem-7.2.0-oxtctbuhfuzyfaoziquq6bki22grib3g/share/nwchem/libraries/>
  


 Summary of "ao basis" -> "" (cartesian)
 ------------------------------------------------------------------------------
       Tag                 Description            Shells   Functions and Types
 ---------------- ------------------------------  ------  ---------------------
 *                        aug-cc-pvdz                 on all atoms 


                      Basis "ao basis" -> "ao basis" (cartesian)
                      -----
  H (Hydrogen)
  ------------
            Exponent  Coefficients 
       -------------- ---------------------------------------------------------
  1 S  1.30100000E+01  0.019685
  1 S  1.96200000E+00  0.137977
  1 S  4.44600000E-01  0.478148

  2 S  1.22000000E-01  1.000000

  3 S  2.97400000E-02  1.000000

  4 P  7.27000000E-01  1.000000

  5 P  1.41000000E-01  1.000000

  C (Carbon)
  ----------
            Exponent  Coefficients 
       -------------- ---------------------------------------------------------
  1 S  6.66500000E+03  0.000692
  1 S  1.00000000E+03  0.005329
  1 S  2.28000000E+02  0.027077
  1 S  6.47100000E+01  0.101718
  1 S  2.10600000E+01  0.274740
  1 S  7.49500000E+00  0.448564
  1 S  2.79700000E+00  0.285074
  1 S  5.21500000E-01  0.015204

  2 S  6.66500000E+03 -0.000146
  2 S  1.00000000E+03 -0.001154
  2 S  2.28000000E+02 -0.005725
  2 S  6.47100000E+01 -0.023312
  2 S  2.10600000E+01 -0.063955
  2 S  7.49500000E+00 -0.149981
  2 S  2.79700000E+00 -0.127262
  2 S  5.21500000E-01  0.544529

  3 S  1.59600000E-01  1.000000

  4 S  4.69000000E-02  1.000000

  5 P  9.43900000E+00  0.038109
  5 P  2.00200000E+00  0.209480
  5 P  5.45600000E-01  0.508557

  6 P  1.51700000E-01  1.000000

  7 P  4.04100000E-02  1.000000

  8 D  5.50000000E-01  1.000000

  9 D  1.51000000E-01  1.000000

  O (Oxygen)
  ----------
            Exponent  Coefficients 
       -------------- ---------------------------------------------------------
  1 S  1.17200000E+04  0.000710
  1 S  1.75900000E+03  0.005470
  1 S  4.00800000E+02  0.027837
  1 S  1.13700000E+02  0.104800
  1 S  3.70300000E+01  0.283062
  1 S  1.32700000E+01  0.448719
  1 S  5.02500000E+00  0.270952
  1 S  1.01300000E+00  0.015458

  2 S  1.17200000E+04 -0.000160
  2 S  1.75900000E+03 -0.001263
  2 S  4.00800000E+02 -0.006267
  2 S  1.13700000E+02 -0.025716
  2 S  3.70300000E+01 -0.070924
  2 S  1.32700000E+01 -0.165411
  2 S  5.02500000E+00 -0.116955
  2 S  1.01300000E+00  0.557368

  3 S  3.02300000E-01  1.000000

  4 S  7.89600000E-02  1.000000

  5 P  1.77000000E+01  0.043018
  5 P  3.85400000E+00  0.228913
  5 P  1.04600000E+00  0.508728

  6 P  2.75300000E-01  1.000000

  7 P  6.85600000E-02  1.000000

  8 D  1.18500000E+00  1.000000

  9 D  3.32000000E-01  1.000000

  N (Nitrogen)
  ------------
            Exponent  Coefficients 
       -------------- ---------------------------------------------------------
  1 S  9.04600000E+03  0.000700
  1 S  1.35700000E+03  0.005389
  1 S  3.09300000E+02  0.027406
  1 S  8.77300000E+01  0.103207
  1 S  2.85600000E+01  0.278723
  1 S  1.02100000E+01  0.448540
  1 S  3.83800000E+00  0.278238
  1 S  7.46600000E-01  0.015440

  2 S  9.04600000E+03 -0.000153
  2 S  1.35700000E+03 -0.001208
  2 S  3.09300000E+02 -0.005992
  2 S  8.77300000E+01 -0.024544
  2 S  2.85600000E+01 -0.067459
  2 S  1.02100000E+01 -0.158078
  2 S  3.83800000E+00 -0.121831
  2 S  7.46600000E-01  0.549003

  3 S  2.24800000E-01  1.000000

  4 S  6.12400000E-02  1.000000

  5 P  1.35500000E+01  0.039919
  5 P  2.91700000E+00  0.217169
  5 P  7.97300000E-01  0.510319

  6 P  2.18500000E-01  1.000000

  7 P  5.61100000E-02  1.000000

  8 D  8.17000000E-01  1.000000

  9 D  2.30000000E-01  1.000000



 Summary of "ao basis" -> "ao basis" (cartesian)
 ------------------------------------------------------------------------------
       Tag                 Description            Shells   Functions and Types
 ---------------- ------------------------------  ------  ---------------------
 H                        aug-cc-pvdz                5        9   3s2p
 C                        aug-cc-pvdz                9       25   4s3p2d
 O                        aug-cc-pvdz                9       25   4s3p2d
 N                        aug-cc-pvdz                9       25   4s3p2d


                                 NWChem SCF Module
                                 -----------------



  ao basis        = "ao basis"
  functions       =   614
  atoms           =    38
  closed shells   =    66
  open shells     =     0
  charge          =   0.00
  wavefunction    = RHF 
  input vectors   = atomic
  output vectors  = ./ALA_ILE_0.movecs
  use symmetry    = F
  symmetry adapt  = F


 Summary of "ao basis" -> "ao basis" (cartesian)
 ------------------------------------------------------------------------------
       Tag                 Description            Shells   Functions and Types
 ---------------- ------------------------------  ------  ---------------------
 H                        aug-cc-pvdz                5        9   3s2p
 C                        aug-cc-pvdz                9       25   4s3p2d
 O                        aug-cc-pvdz                9       25   4s3p2d
 N                        aug-cc-pvdz                9       25   4s3p2d



 Forming initial guess at       1.3s


 !! The overlap matrix has   6 vectors deemed linearly dependent with
    eigenvalues:
 2.22D-06 3.98D-06 5.70D-06 6.93D-06 8.10D-06 8.60D-06


      Superposition of Atomic Density Guess
      -------------------------------------

 Sum of atomic energies:        -812.03184720

      Non-variational initial energy
      ------------------------------

 Total energy =    -823.465508
 1-e energy   =   -3781.489826
 2-e energy   =    1609.217422
 HOMO         =      -0.309707
 LUMO         =       0.012837


 Starting SCF solution at     414.4s



 ----------------------------------------------
         Quadratically convergent ROHF

 Convergence threshold     :          1.000E-04
 Maximum no. of iterations :           30
 Final Fock-matrix accuracy:          1.000E-10
 ----------------------------------------------


              iter       energy          gnorm     gmax       time
             ----- ------------------- --------- --------- --------
                 1     -816.5011913293  2.46D+00  1.53D-01    708.2
                 2     -816.8275113668  8.58D-01  4.94D-02   1311.9
                 3     -816.8920676124  6.61D-02  4.15D-03   2265.3
                 4     -816.8927051753  4.30D-03  4.20D-04   3473.3
                 5     -816.8927088307  8.99D-06  5.38D-07   5673.3


       Final RHF  results 
       ------------------ 

         Total SCF energy =   -816.892708830744
      One-electron energy =  -3794.632119351430
      Two-electron energy =   1628.932514726304
 Nuclear repulsion energy =   1348.806895794382

        Time for solution =   5319.6s


             Final eigenvalues
             -----------------

              1      
    1  -20.5553
    2  -20.5293
    3  -20.5025
    4  -15.6287
    5  -15.5997
    6  -15.5681
    7  -11.3840
    8  -11.3646
    9  -11.3378
   10  -11.3151
   11  -11.2862
   12  -11.2668
   13  -11.2583
   14  -11.2452
   15  -11.2338
   16  -11.2270
   17  -11.2251
   18   -1.4203
   19   -1.3890
   20   -1.3651
   21   -1.2771
   22   -1.2455
   23   -1.1928
   24   -1.1005
   25   -1.0781
   26   -1.0169
   27   -1.0087
   28   -0.9622
   29   -0.9049
   30   -0.8731
   31   -0.8372
   32   -0.8072
   33   -0.8008
   34   -0.7647
   35   -0.7376
   36   -0.7270
   37   -0.7021
   38   -0.6953
   39   -0.6638
   40   -0.6418
   41   -0.6350
   42   -0.6319
   43   -0.6214
   44   -0.6095
   45   -0.5990
   46   -0.5939
   47   -0.5924
   48   -0.5790
   49   -0.5745
   50   -0.5613
   51   -0.5561
   52   -0.5511
   53   -0.5428
   54   -0.5349
   55   -0.5213
   56   -0.5130
   57   -0.5107
   58   -0.4761
   59   -0.4686
   60   -0.4579
   61   -0.4552
   62   -0.4520
   63   -0.4297
   64   -0.4100
   65   -0.3877
   66   -0.3795
   67    0.0151
   68    0.0304
   69    0.0336
   70    0.0413
   71    0.0480
   72    0.0495
   73    0.0546
   74    0.0555
   75    0.0632
   76    0.0675

                       ROHF Final Molecular Orbital Analysis
                       -------------------------------------

 Vector   18  Occ=2.000000D+00  E=-1.420336D+00
              MO Center=  9.2D-01,  1.8D+00,  1.2D+00, r^2= 1.1D+00
   Bfn.  Coefficient  Atom+Function         Bfn.  Coefficient  Atom+Function  
  ----- ------------  ---------------      ----- ------------  ---------------
    79      0.345168   6 O  s                80      0.344649   6 O  s         
    54      0.243603   5 C  s                12      0.190488   2 C  s         

 Vector   19  Occ=2.000000D+00  E=-1.388976D+00
              MO Center= -1.9D+00,  8.3D-01, -2.4D-01, r^2= 1.5D+00
   Bfn.  Coefficient  Atom+Function         Bfn.  Coefficient  Atom+Function  
  ----- ------------  ---------------      ----- ------------  ---------------
   250      0.363266  16 O  s               249      0.340534  16 O  s         
   224      0.242638  15 C  s               524      0.152966  34 C  s         

 Vector   20  Occ=2.000000D+00  E=-1.365121D+00
              MO Center= -1.4D+00, -2.3D+00,  1.4D+00, r^2= 1.2D+00
   Bfn.  Coefficient  Atom+Function         Bfn.  Coefficient  Atom+Function  
  ----- ------------  ---------------      ----- ------------  ---------------
   549      0.380074  35 O  s               548      0.348801  35 O  s         
   523      0.245048  34 C  s         

 Vector   21  Occ=2.000000D+00  E=-1.277081D+00
              MO Center=  5.0D-01,  2.3D+00,  5.1D-02, r^2= 2.1D+00
   Bfn.  Coefficient  Atom+Function         Bfn.  Coefficient  Atom+Function  
  ----- ------------  ---------------      ----- ------------  ---------------
   105      0.403425   7 N  s               104      0.336892   7 N  s         
    80     -0.218003   6 O  s               139     -0.192939   9 C  s         
    79     -0.180605   6 O  s                59     -0.170455   5 C  pz        
   128      0.155696   8 H  s               225      0.151399  15 C  s         

 Vector   22  Occ=2.000000D+00  E=-1.245502D+00
              MO Center= -7.7D-01,  8.3D-02, -2.1D-01, r^2= 2.5D+00
   Bfn.  Coefficient  Atom+Function         Bfn.  Coefficient  Atom+Function  
  ----- ------------  ---------------      ----- ------------  ---------------
   275      0.371147  17 N  s               274      0.327891  17 N  s         
   309     -0.212759  19 C  s               250     -0.201828  16 O  s         
   249     -0.163814  16 O  s               227      0.160916  15 C  px        
   298      0.151945  18 H  s         

 Vector   23  Occ=2.000000D+00  E=-1.192839D+00
              MO Center= -9.8D-01, -1.1D+00,  1.9D+00, r^2= 1.7D+00
   Bfn.  Coefficient  Atom+Function         Bfn.  Coefficient  Atom+Function  
  ----- ------------  ---------------      ----- ------------  ---------------
   574      0.388713  36 N  s               573      0.367067  36 N  s         
   309     -0.287185  19 C  s               549     -0.201267  35 O  s         
   531     -0.182780  34 C  pz              527      0.179800  34 C  py        
   548     -0.170016  35 O  s               597      0.161785  37 H  s         
   606      0.159155  38 H  s         

 Vector   24  Occ=2.000000D+00  E=-1.100473D+00
              MO Center=  3.4D-01, -1.5D+00, -7.2D-01, r^2= 5.1D+00
   Bfn.  Coefficient  Atom+Function         Bfn.  Coefficient  Atom+Function  
  ----- ------------  ---------------      ----- ------------  ---------------
   342      0.234660  21 C  s               309      0.201909  19 C  s         
   428      0.184801  27 C  s         

 Vector   25  Occ=2.000000D+00  E=-1.078088D+00
              MO Center=  1.6D-01,  2.0D+00, -4.3D-01, r^2= 6.7D+00
   Bfn.  Coefficient  Atom+Function         Bfn.  Coefficient  Atom+Function  
  ----- ------------  ---------------      ----- ------------  ---------------
   138      0.225728   9 C  s               172      0.198627  11 C  s         
    12     -0.173471   2 C  s                11     -0.151069   2 C  s         

 Vector   26  Occ=2.000000D+00  E=-1.016863D+00
              MO Center=  1.7D+00,  2.3D+00,  2.8D-01, r^2= 5.8D+00
   Bfn.  Coefficient  Atom+Function         Bfn.  Coefficient  Atom+Function  
  ----- ------------  ---------------      ----- ------------  ---------------
    11      0.312169   2 C  s                57      0.168764   5 C  px        
   172      0.151626  11 C  s         

 Vector   27  Occ=2.000000D+00  E=-1.008705D+00
              MO Center=  9.2D-01, -1.8D+00, -5.4D-01, r^2= 6.9D+00
   Bfn.  Coefficient  Atom+Function         Bfn.  Coefficient  Atom+Function  
  ----- ------------  ---------------      ----- ------------  ---------------
   471      0.238344  30 C  s               343      0.226965  21 C  s         
   434      0.223045  27 C  px              428      0.184816  27 C  s         
   308     -0.179637  19 C  s               377     -0.171549  23 C  s         
   348      0.166466  21 C  px              435     -0.157408  27 C  py        

 Vector   28  Occ=2.000000D+00  E=-9.622476D-01
              MO Center= -1.8D-01, -1.4D+00, -1.2D+00, r^2= 5.5D+00
   Bfn.  Coefficient  Atom+Function         Bfn.  Coefficient  Atom+Function  
  ----- ------------  ---------------      ----- ------------  ---------------
   350      0.288321  21 C  pz              376     -0.274765  23 C  s         
   308      0.191513  19 C  s               525     -0.180201  34 C  s         
   316      0.171827  19 C  pz              145      0.152117   9 C  py        

 Vector   29  Occ=2.000000D+00  E=-9.048970D-01
              MO Center= -6.2D-01,  2.0D+00, -8.7D-01, r^2= 6.7D+00
   Bfn.  Coefficient  Atom+Function         Bfn.  Coefficient  Atom+Function  
  ----- ------------  ---------------      ----- ------------  ---------------
   139      0.264421   9 C  s               172     -0.234937  11 C  s         
   145     -0.230515   9 C  py              138      0.195081   9 C  s         
   173     -0.174248  11 C  s         

 Vector   30  Occ=2.000000D+00  E=-8.730556D-01
              MO Center=  1.1D+00, -2.2D+00, -7.1D-01, r^2= 5.7D+00
   Bfn.  Coefficient  Atom+Function         Bfn.  Coefficient  Atom+Function  
  ----- ------------  ---------------      ----- ------------  ---------------
   471      0.227038  30 C  s               472      0.179077  30 C  s         
   428     -0.175462  27 C  s               429     -0.176320  27 C  s         
   309      0.162163  19 C  s               343      0.150044  21 C  s         

 Vector   31  Occ=2.000000D+00  E=-8.372236D-01
              MO Center=  6.1D-01,  2.2D+00,  3.0D-02, r^2= 4.0D+00
   Bfn.  Coefficient  Atom+Function         Bfn.  Coefficient  Atom+Function  
  ----- ------------  ---------------      ----- ------------  ---------------
   109      0.290796   7 N  pz              128     -0.235796   8 H  s         
   105     -0.222159   7 N  s               139      0.217891   9 C  s         
    54      0.213447   5 C  s                56     -0.188400   5 C  s         
    17     -0.174126   2 C  px               60     -0.173040   5 C  px        
    72     -0.171576   5 C  dxx              12      0.170141   2 C  s         

 Vector   32  Occ=2.000000D+00  E=-8.071556D-01
              MO Center= -5.3D-01,  5.4D-01, -2.4D-01, r^2= 4.3D+00
   Bfn.  Coefficient  Atom+Function         Bfn.  Coefficient  Atom+Function  
  ----- ------------  ---------------      ----- ------------  ---------------
   277      0.263431  17 N  px              231      0.242782  15 C  py        
   299      0.241358  18 H  s               298      0.222468  18 H  s         
   278     -0.190845  17 N  py              224     -0.187243  15 C  s         
   250      0.176472  16 O  s               275      0.170879  17 N  s         
   145      0.167478   9 C  py              144      0.157552   9 C  px        

 Vector   33  Occ=2.000000D+00  E=-8.008216D-01
              MO Center= -1.6D-01, -1.7D+00,  4.2D-01, r^2= 5.9D+00
   Bfn.  Coefficient  Atom+Function         Bfn.  Coefficient  Atom+Function  
  ----- ------------  ---------------      ----- ------------  ---------------
   309      0.349156  19 C  s               429      0.331902  27 C  s         
   343     -0.302421  21 C  s               531      0.222471  34 C  pz        
   578     -0.216454  36 N  pz              472     -0.199116  30 C  s         
   523      0.192742  34 C  s               606     -0.176573  38 H  s         
   316      0.166113  19 C  pz        

 Vector   34  Occ=2.000000D+00  E=-7.646951D-01
              MO Center= -1.3D-01, -1.1D+00,  3.0D-02, r^2= 6.1D+00
   Bfn.  Coefficient  Atom+Function         Bfn.  Coefficient  Atom+Function  
  ----- ------------  ---------------      ----- ------------  ---------------
   343      0.321499  21 C  s               225     -0.284511  15 C  s         
   277      0.212205  17 N  px              298      0.196404  18 H  s         
   309     -0.162587  19 C  s               275      0.153315  17 N  s         
   315     -0.152478  19 C  py              316      0.153150  19 C  pz        
   314     -0.151118  19 C  px        

 Vector   35  Occ=2.000000D+00  E=-7.376310D-01
              MO Center= -4.7D-01,  1.6D-01,  1.0D+00, r^2= 5.7D+00
   Bfn.  Coefficient  Atom+Function         Bfn.  Coefficient  Atom+Function  
  ----- ------------  ---------------      ----- ------------  ---------------
   577      0.254573  36 N  py              597      0.244431  37 H  s         
   225     -0.227973  15 C  s               528     -0.186747  34 C  pz        
   524     -0.185289  34 C  s               144     -0.182115   9 C  px        
   145     -0.156734   9 C  py        

 Vector   36  Occ=2.000000D+00  E=-7.269714D-01
              MO Center=  2.1D-01,  1.5D+00,  1.6D-01, r^2= 7.2D+00
   Bfn.  Coefficient  Atom+Function         Bfn.  Coefficient  Atom+Function  
  ----- ------------  ---------------      ----- ------------  ---------------
   144      0.287084   9 C  px              145      0.254088   9 C  py        
   225      0.244486  15 C  s               343      0.206186  21 C  s         
   139     -0.201776   9 C  s               128     -0.182566   8 H  s         
   107     -0.177936   7 N  px              228     -0.170036  15 C  py        
    17      0.161765   2 C  px              141      0.157220   9 C  px        

 Vector   37  Occ=2.000000D+00  E=-7.020566D-01
              MO Center= -2.1D-01,  1.1D+00,  1.4D-01, r^2= 8.1D+00
   Bfn.  Coefficient  Atom+Function         Bfn.  Coefficient  Atom+Function  
  ----- ------------  ---------------      ----- ------------  ---------------
   162      0.189060  10 H  s               343      0.188812  21 C  s         
   108      0.170708   7 N  py              142      0.152754   9 C  py        
   173     -0.152517  11 C  s         

 Vector   38  Occ=2.000000D+00  E=-6.952787D-01
              MO Center=  5.4D-01,  1.3D+00,  1.0D+00, r^2= 6.2D+00
   Bfn.  Coefficient  Atom+Function         Bfn.  Coefficient  Atom+Function  
  ----- ------------  ---------------      ----- ------------  ---------------
    80      0.233182   6 O  s                82     -0.228102   6 O  px        
    59     -0.178697   5 C  pz              577     -0.161609  36 N  py        
    84      0.156620   6 O  pz              106     -0.154231   7 N  s         
    17      0.152208   2 C  px        

 Vector   39  Occ=2.000000D+00  E=-6.637709D-01
              MO Center= -7.3D-01, -2.7D-01,  4.2D-01, r^2= 8.1D+00
   Bfn.  Coefficient  Atom+Function         Bfn.  Coefficient  Atom+Function  
  ----- ------------  ---------------      ----- ------------  ---------------
   578      0.199215  36 N  pz              606      0.171693  38 H  s         
   278      0.170765  17 N  py              549     -0.150160  35 O  s         

 Vector   40  Occ=2.000000D+00  E=-6.418041D-01
              MO Center=  1.5D+00,  2.0D+00,  4.5D-01, r^2= 6.2D+00
   Bfn.  Coefficient  Atom+Function         Bfn.  Coefficient  Atom+Function  
  ----- ------------  ---------------      ----- ------------  ---------------
   139      0.279394   9 C  s                15     -0.246041   2 C  py        
    44     -0.215703   4 H  s                35      0.203492   3 H  s         
    83     -0.188476   6 O  py               16     -0.164104   2 C  pz        

 Vector   41  Occ=2.000000D+00  E=-6.350193D-01
              MO Center= -3.2D-01, -7.4D-01,  8.4D-03, r^2= 9.2D+00
   Bfn.  Coefficient  Atom+Function         Bfn.  Coefficient  Atom+Function  
  ----- ------------  ---------------      ----- ------------  ---------------
   252      0.204044  16 O  px              578      0.174811  36 N  pz        

 Vector   42  Occ=2.000000D+00  E=-6.318621D-01
              MO Center=  5.9D-01, -1.5D+00, -3.6D-01, r^2= 7.7D+00
   Bfn.  Coefficient  Atom+Function         Bfn.  Coefficient  Atom+Function  
  ----- ------------  ---------------      ----- ------------  ---------------
   433      0.194581  27 C  pz              461      0.189406  29 H  s         
   252      0.169147  16 O  px        

 Vector   43  Occ=2.000000D+00  E=-6.214414D-01
              MO Center=  7.5D-02, -4.3D-01, -7.7D-01, r^2= 1.1D+01
   Bfn.  Coefficient  Atom+Function         Bfn.  Coefficient  Atom+Function  
  ----- ------------  ---------------      ----- ------------  ---------------
   176      0.176399  11 C  py              453      0.165355  28 H  s         
   276     -0.158667  17 N  s               214      0.154860  14 H  s         
   315     -0.155588  19 C  py              312     -0.151773  19 C  py        

 Vector   44  Occ=2.000000D+00  E=-6.095375D-01
              MO Center=  3.9D-01,  6.6D-01,  3.7D-01, r^2= 9.2D+00
   Bfn.  Coefficient  Atom+Function         Bfn.  Coefficient  Atom+Function  
  ----- ------------  ---------------      ----- ------------  ---------------
    84      0.243270   6 O  pz               57      0.191709   5 C  px        
    14     -0.157878   2 C  px               80      0.153452   6 O  s         
   128     -0.154085   8 H  s                83     -0.150450   6 O  py        

 Vector   45  Occ=2.000000D+00  E=-5.990322D-01
              MO Center=  5.8D-01,  1.1D+00,  1.5D-01, r^2= 9.5D+00
   Bfn.  Coefficient  Atom+Function         Bfn.  Coefficient  Atom+Function  
  ----- ------------  ---------------      ----- ------------  ---------------
     2      0.232315   1 H  s                16      0.215792   2 C  pz        
    84      0.183594   6 O  pz               56     -0.167785   5 C  s         
     1      0.164583   1 H  s                35     -0.159878   3 H  s         

 Vector   46  Occ=2.000000D+00  E=-5.938703D-01
              MO Center= -8.2D-01,  1.1D-01, -2.4D-01, r^2= 8.9D+00
   Bfn.  Coefficient  Atom+Function         Bfn.  Coefficient  Atom+Function  
  ----- ------------  ---------------      ----- ------------  ---------------
   252      0.251186  16 O  px              227     -0.225365  15 C  px        
   552      0.156911  35 O  py        

 Vector   47  Occ=2.000000D+00  E=-5.923819D-01
              MO Center=  5.5D-01,  1.5D+00,  2.1D-01, r^2= 1.2D+01
   Bfn.  Coefficient  Atom+Function         Bfn.  Coefficient  Atom+Function  
  ----- ------------  ---------------      ----- ------------  ---------------
     1      0.257465   1 H  s                16      0.226101   2 C  pz        
     2      0.215254   1 H  s               175     -0.188941  11 C  px        
   205      0.163136  13 H  s         

 Vector   48  Occ=2.000000D+00  E=-5.789768D-01
              MO Center=  5.0D-01, -1.3D+00, -9.3D-01, r^2= 1.1D+01
   Bfn.  Coefficient  Atom+Function         Bfn.  Coefficient  Atom+Function  
  ----- ------------  ---------------      ----- ------------  ---------------
   504     -0.182338  32 H  s               474      0.181382  30 C  px        
   380     -0.172748  23 C  py              418     -0.167554  26 H  s         
   419     -0.166072  26 H  s               214     -0.159479  14 H  s         
   176     -0.157330  11 C  py        

 Vector   49  Occ=2.000000D+00  E=-5.744865D-01
              MO Center= -9.0D-01, -9.2D-01,  1.5D-01, r^2= 9.3D+00
   Bfn.  Coefficient  Atom+Function         Bfn.  Coefficient  Atom+Function  
  ----- ------------  ---------------      ----- ------------  ---------------
   552      0.309117  35 O  py              527     -0.191932  34 C  py        
   549     -0.190250  35 O  s               555      0.160285  35 O  py        

 Vector   50  Occ=2.000000D+00  E=-5.612698D-01
              MO Center=  8.4D-01,  2.3D+00, -5.4D-02, r^2= 7.1D+00
   Bfn.  Coefficient  Atom+Function         Bfn.  Coefficient  Atom+Function  
  ----- ------------  ---------------      ----- ------------  ---------------
    15      0.228850   2 C  py               44      0.209085   4 H  s         
   196     -0.203698  12 H  s               108     -0.189724   7 N  py        
   111     -0.174633   7 N  py               83     -0.172881   6 O  py        
    36     -0.170588   3 H  s               197     -0.169246  12 H  s         
    35     -0.168263   3 H  s                45      0.159774   4 H  s         

 Vector   51  Occ=2.000000D+00  E=-5.560611D-01
              MO Center= -4.6D-01,  2.1D+00, -5.9D-01, r^2= 9.3D+00
   Bfn.  Coefficient  Atom+Function         Bfn.  Coefficient  Atom+Function  
  ----- ------------  ---------------      ----- ------------  ---------------
   175      0.285528  11 C  px              206     -0.272302  13 H  s         
   205     -0.270274  13 H  s               215      0.209282  14 H  s         
    55      0.174139   5 C  s               107      0.171236   7 N  px        
   214      0.169161  14 H  s                12     -0.159032   2 C  s         
   105     -0.155552   7 N  s                 1      0.153951   1 H  s         

 Vector   52  Occ=2.000000D+00  E=-5.510805D-01
              MO Center=  1.5D-01, -8.1D-03, -2.3D-01, r^2= 1.3D+01
   Bfn.  Coefficient  Atom+Function         Bfn.  Coefficient  Atom+Function  
  ----- ------------  ---------------      ----- ------------  ---------------
   495      0.167236  31 H  s               496      0.165879  31 H  s         
   551     -0.152403  35 O  px        

 Vector   53  Occ=2.000000D+00  E=-5.428253D-01
              MO Center=  4.9D-01, -5.7D-01, -9.4D-01, r^2= 1.3D+01
   Bfn.  Coefficient  Atom+Function         Bfn.  Coefficient  Atom+Function  
  ----- ------------  ---------------      ----- ------------  ---------------
   410      0.211223  25 H  s               495     -0.208857  31 H  s         
   496     -0.208441  31 H  s               379     -0.182048  23 C  px        
   476     -0.182460  30 C  pz              409      0.177177  25 H  s         
   176     -0.167359  11 C  py        

 Vector   54  Occ=2.000000D+00  E=-5.348781D-01
              MO Center= -3.3D-01, -4.5D-01, -8.9D-01, r^2= 1.0D+01
   Bfn.  Coefficient  Atom+Function         Bfn.  Coefficient  Atom+Function  
  ----- ------------  ---------------      ----- ------------  ---------------
   410     -0.262114  25 H  s               379      0.260595  23 C  px        
   409     -0.224536  25 H  s               401      0.190483  24 H  s         
   145      0.163071   9 C  py              173     -0.154864  11 C  s         
   197      0.155606  12 H  s               400      0.151687  24 H  s         
   143      0.150277   9 C  pz        

 Vector   55  Occ=2.000000D+00  E=-5.213078D-01
              MO Center=  7.0D-01, -2.4D+00, -4.0D-01, r^2= 5.6D+00
   Bfn.  Coefficient  Atom+Function         Bfn.  Coefficient  Atom+Function  
  ----- ------------  ---------------      ----- ------------  ---------------
   475     -0.201411  30 C  py              401      0.197747  24 H  s         
   472     -0.188052  30 C  s               400      0.178941  24 H  s         
   477      0.178305  30 C  px              432      0.177190  27 C  py        
   430     -0.171676  27 C  s               478     -0.171793  30 C  py        
   316     -0.170025  19 C  pz              431     -0.169074  27 C  px        

 Vector   56  Occ=2.000000D+00  E=-5.130157D-01
              MO Center=  6.3D-01, -1.8D+00, -6.2D-01, r^2= 8.4D+00
   Bfn.  Coefficient  Atom+Function         Bfn.  Coefficient  Atom+Function  
  ----- ------------  ---------------      ----- ------------  ---------------
   343      0.218480  21 C  s               505     -0.210223  32 H  s         
   504     -0.208701  32 H  s               276     -0.198306  17 N  s         
   430     -0.194050  27 C  s               475      0.186621  30 C  py        
   513      0.169436  33 H  s               347      0.152722  21 C  pz        

 Vector   57  Occ=2.000000D+00  E=-5.106779D-01
              MO Center= -4.0D-01,  2.5D-01, -4.3D-01, r^2= 9.7D+00
   Bfn.  Coefficient  Atom+Function         Bfn.  Coefficient  Atom+Function  
  ----- ------------  ---------------      ----- ------------  ---------------
   309      0.262439  19 C  s               254      0.213581  16 O  pz        
   143     -0.210787   9 C  pz              177      0.169234  11 C  pz        
   257      0.166106  16 O  pz              162     -0.164977  10 H  s         

 Vector   58  Occ=2.000000D+00  E=-4.761403D-01
              MO Center=  6.8D-01, -2.2D+00, -7.9D-01, r^2= 4.2D+00
   Bfn.  Coefficient  Atom+Function         Bfn.  Coefficient  Atom+Function  
  ----- ------------  ---------------      ----- ------------  ---------------
   453      0.325290  28 H  s               367      0.280784  22 H  s         
   366      0.272337  22 H  s               346     -0.267149  21 C  py        
   472     -0.264539  30 C  s               432      0.245030  27 C  py        
   452      0.240622  28 H  s               419      0.219773  26 H  s         
   377     -0.209106  23 C  s               475     -0.180903  30 C  py        

 Vector   59  Occ=2.000000D+00  E=-4.685864D-01
              MO Center=  8.1D-01, -2.3D+00, -6.7D-01, r^2= 4.3D+00
   Bfn.  Coefficient  Atom+Function         Bfn.  Coefficient  Atom+Function  
  ----- ------------  ---------------      ----- ------------  ---------------
   462      0.366853  29 H  s               381      0.263034  23 C  pz        
   347     -0.256905  21 C  pz              461      0.255401  29 H  s         
   433      0.244285  27 C  pz              309     -0.236815  19 C  s         
   514      0.211847  33 H  s               343      0.205331  21 C  s         
   384      0.198934  23 C  pz              472     -0.193933  30 C  s         

 Vector   60  Occ=2.000000D+00  E=-4.579339D-01
              MO Center=  3.6D-01, -1.2D+00, -3.7D-01, r^2= 7.6D+00
   Bfn.  Coefficient  Atom+Function         Bfn.  Coefficient  Atom+Function  
  ----- ------------  ---------------      ----- ------------  ---------------
   345      0.270683  21 C  px              431     -0.243932  27 C  px        
   496      0.199014  31 H  s               348      0.194214  21 C  px        
   311     -0.175441  19 C  px              410      0.173953  25 H  s         
   253     -0.164709  16 O  py              474      0.162254  30 C  px        
   495      0.158115  31 H  s         

 Vector   61  Occ=2.000000D+00  E=-4.551533D-01
              MO Center=  5.0D-01,  1.4D+00,  8.5D-01, r^2= 5.2D+00
   Bfn.  Coefficient  Atom+Function         Bfn.  Coefficient  Atom+Function  
  ----- ------------  ---------------      ----- ------------  ---------------
    82      0.358918   6 O  px               85      0.285560   6 O  px        
   276      0.245100  17 N  s                84      0.236603   6 O  pz        
    13      0.204589   2 C  s               108     -0.204602   7 N  py        
    87      0.197684   6 O  pz              430      0.192511  27 C  s         
   139      0.185445   9 C  s               225     -0.185864  15 C  s         

 Vector   62  Occ=2.000000D+00  E=-4.520467D-01
              MO Center=  1.9D-01,  8.2D-01,  3.4D-01, r^2= 7.7D+00
   Bfn.  Coefficient  Atom+Function         Bfn.  Coefficient  Atom+Function  
  ----- ------------  ---------------      ----- ------------  ---------------
    82      0.301477   6 O  px              253      0.249336  16 O  py        
    85      0.237708   6 O  px              139     -0.208989   9 C  s         
   256      0.196788  16 O  py              309      0.194855  19 C  s         
   109      0.186809   7 N  pz               83     -0.181186   6 O  py        
   108      0.166690   7 N  py              234     -0.160966  15 C  py        

 Vector   63  Occ=2.000000D+00  E=-4.296598D-01
              MO Center= -1.3D+00, -4.4D-01,  3.6D-01, r^2= 6.4D+00
   Bfn.  Coefficient  Atom+Function         Bfn.  Coefficient  Atom+Function  
  ----- ------------  ---------------      ----- ------------  ---------------
   333      0.349118  20 H  s               553     -0.327390  35 O  pz        
   254      0.267316  16 O  pz              556     -0.262159  35 O  pz        
   279     -0.255089  17 N  pz              284      0.240576  17 N  py        
   282     -0.238359  17 N  pz              253      0.212978  16 O  py        
   309     -0.210872  19 C  s               257      0.207885  16 O  pz        

 Vector   64  Occ=2.000000D+00  E=-4.099508D-01
              MO Center= -9.9D-01,  1.1D+00,  8.2D-02, r^2= 5.8D+00
   Bfn.  Coefficient  Atom+Function         Bfn.  Coefficient  Atom+Function  
  ----- ------------  ---------------      ----- ------------  ---------------
   253      0.369280  16 O  py              256      0.295788  16 O  py        
   108     -0.255782   7 N  py              139     -0.247252   9 C  s         
   111     -0.233896   7 N  py              145      0.234435   9 C  py        
   106     -0.198944   7 N  s               142      0.192019   9 C  py        
   553      0.184902  35 O  pz              163      0.172722  10 H  s         

 Vector   65  Occ=2.000000D+00  E=-3.877261D-01
              MO Center= -1.2D+00, -1.7D+00,  1.8D+00, r^2= 2.2D+00
   Bfn.  Coefficient  Atom+Function         Bfn.  Coefficient  Atom+Function  
  ----- ------------  ---------------      ----- ------------  ---------------
   576     -0.398546  36 N  px              551      0.376258  35 O  px        
   579     -0.344587  36 N  px              554      0.298967  35 O  px        
   276      0.218647  17 N  s               429     -0.215657  27 C  s         
   577      0.182790  36 N  py              139     -0.176965   9 C  s         
   580      0.174652  36 N  py              333     -0.158052  20 H  s         

 Vector   66  Occ=2.000000D+00  E=-3.794693D-01
              MO Center= -1.2D+00, -1.0D+00,  4.2D-01, r^2= 4.7D+00
   Bfn.  Coefficient  Atom+Function         Bfn.  Coefficient  Atom+Function  
  ----- ------------  ---------------      ----- ------------  ---------------
   553     -0.355699  35 O  pz              279      0.335953  17 N  pz        
   282      0.319805  17 N  pz              556     -0.279737  35 O  pz        
   254     -0.240356  16 O  pz              531      0.231047  34 C  pz        
   313     -0.193313  19 C  pz              257     -0.191140  16 O  pz        
   524     -0.175947  34 C  s               528      0.158764  34 C  pz        

 Vector   67  Occ=0.000000D+00  E= 1.505799D-02
              MO Center=  2.8D+00,  3.5D+00, -1.5D+00, r^2= 1.9D+01
   Bfn.  Coefficient  Atom+Function         Bfn.  Coefficient  Atom+Function  
  ----- ------------  ---------------      ----- ------------  ---------------
   300      4.734165  18 H  s               234      2.571253  15 C  py        
    63      2.325272   5 C  px               37     -2.180702   3 H  s         
   420     -2.002435  26 H  s               147      1.715528   9 C  px        
   226      1.533968  15 C  s               216     -1.483349  14 H  s         
    46     -1.412571   4 H  s               454      1.380728  28 H  s         

 Vector   68  Occ=0.000000D+00  E= 3.042421D-02
              MO Center=  2.4D+00,  1.9D+00, -1.2D+00, r^2= 3.4D+01
   Bfn.  Coefficient  Atom+Function         Bfn.  Coefficient  Atom+Function  
  ----- ------------  ---------------      ----- ------------  ---------------
   234      4.190644  15 C  py              300     -3.288757  18 H  s         
   106     -3.084688   7 N  s               318      2.899155  19 C  py        
   216     -2.815135  14 H  s               438      2.766231  27 C  py        
   473      2.770788  30 C  s                37      2.696686   3 H  s         
   437     -2.552121  27 C  px              351     -1.969776  21 C  px        

 Vector   69  Occ=0.000000D+00  E= 3.356235D-02
              MO Center=  2.2D+00,  2.3D+00, -9.4D-01, r^2= 3.2D+01
   Bfn.  Coefficient  Atom+Function         Bfn.  Coefficient  Atom+Function  
  ----- ------------  ---------------      ----- ------------  ---------------
   300      3.761545  18 H  s                63     -3.274697   5 C  px        
   149     -2.426184   9 C  pz              198     -2.296392  12 H  s         
    46      2.144627   4 H  s               147     -1.982570   9 C  px        
     3      1.904291   1 H  s               454     -1.798307  28 H  s         
    12     -1.721150   2 C  s               130     -1.690166   8 H  s         

 Vector   70  Occ=0.000000D+00  E= 4.126021D-02
              MO Center=  9.5D-01,  6.3D-01, -6.8D-01, r^2= 4.4D+01
   Bfn.  Coefficient  Atom+Function         Bfn.  Coefficient  Atom+Function  
  ----- ------------  ---------------      ----- ------------  ---------------
   525      5.265797  34 C  s               351      3.361916  21 C  px        
   437      3.220159  27 C  px              310      3.182512  19 C  s         
   430     -2.503490  27 C  s                56      2.487332   5 C  s         
   319     -2.460886  19 C  pz              318     -2.202838  19 C  py        
   130      1.976313   8 H  s               497     -1.873594  31 H  s         

 Vector   71  Occ=0.000000D+00  E= 4.799975D-02
              MO Center=  1.3D+00, -8.2D-01, -2.2D+00, r^2= 4.2D+01
   Bfn.  Coefficient  Atom+Function         Bfn.  Coefficient  Atom+Function  
  ----- ------------  ---------------      ----- ------------  ---------------
   402      3.777937  24 H  s                46      3.050006   4 H  s         
   276      2.844267  17 N  s               473     -2.746202  30 C  s         
    56     -2.269998   5 C  s               497     -2.189457  31 H  s         
   234      1.993645  15 C  py              387      1.864594  23 C  pz        
   351      1.758462  21 C  px              480      1.622756  30 C  px        

 Vector   72  Occ=0.000000D+00  E= 4.950636D-02
              MO Center=  1.7D+00, -1.7D-01, -9.9D-01, r^2= 4.2D+01
   Bfn.  Coefficient  Atom+Function         Bfn.  Coefficient  Atom+Function  
  ----- ------------  ---------------      ----- ------------  ---------------
   300      3.675091  18 H  s               525     -3.357686  34 C  s         
    56     -3.187836   5 C  s               106      3.143932   7 N  s         
   430      3.096553  27 C  s               198     -2.749168  12 H  s         
     3     -2.666955   1 H  s               216      2.352947  14 H  s         
   437     -2.218850  27 C  px              515      2.025430  33 H  s         

 Vector   73  Occ=0.000000D+00  E= 5.457798D-02
              MO Center=  4.9D-01,  1.3D+00,  8.3D-02, r^2= 4.0D+01
   Bfn.  Coefficient  Atom+Function         Bfn.  Coefficient  Atom+Function  
  ----- ------------  ---------------      ----- ------------  ---------------
   164      4.885591  10 H  s               430     -3.915601  27 C  s         
   300     -3.859271  18 H  s                63      3.236674   5 C  px        
    13     -3.219482   2 C  s               351      3.043720  21 C  px        
   147      2.835079   9 C  px              226      2.636466  15 C  s         
   515      2.588596  33 H  s               420      2.562428  26 H  s         

 Vector   74  Occ=0.000000D+00  E= 5.548795D-02
              MO Center= -3.2D-02,  6.3D-01,  1.8D+00, r^2= 3.9D+01
   Bfn.  Coefficient  Atom+Function         Bfn.  Coefficient  Atom+Function  
  ----- ------------  ---------------      ----- ------------  ---------------
   575      4.683139  36 N  s               130      3.467049   8 H  s         
   534     -2.979245  34 C  pz              608      2.872184  38 H  s         
   234      2.812087  15 C  py              207     -2.786383  13 H  s         
   318      2.538068  19 C  py               56     -2.480690   5 C  s         
   463      2.020324  29 H  s               525     -1.931597  34 C  s         

 Vector   75  Occ=0.000000D+00  E= 6.316531D-02
              MO Center=  7.7D-01, -2.8D-01, -1.2D+00, r^2= 4.2D+01
   Bfn.  Coefficient  Atom+Function         Bfn.  Coefficient  Atom+Function  
  ----- ------------  ---------------      ----- ------------  ---------------
    37      4.092882   3 H  s                13     -3.388826   2 C  s         
     3     -3.106093   1 H  s               276     -3.043048  17 N  s         
   207      2.692302  13 H  s               317      2.475325  19 C  px        
   506      2.384507  32 H  s               420     -2.371580  26 H  s         
   334      2.210756  20 H  s               515     -1.954782  33 H  s         

 Vector   76  Occ=0.000000D+00  E= 6.754250D-02
              MO Center=  1.5D+00,  9.7D-01, -9.2D-01, r^2= 4.6D+01
   Bfn.  Coefficient  Atom+Function         Bfn.  Coefficient  Atom+Function  
  ----- ------------  ---------------      ----- ------------  ---------------
    56      6.868642   5 C  s               216      4.949868  14 H  s         
   430     -4.928889  27 C  s               351      4.256954  21 C  px        
   147     -4.058252   9 C  px              402      3.928121  24 H  s         
    63     -3.644091   5 C  px               46     -3.598758   4 H  s         
   234     -3.567988  15 C  py              318     -3.367571  19 C  py        

 Vector   77  Occ=0.000000D+00  E= 6.909019D-02
              MO Center=  4.5D-01, -1.8D-01, -3.4D-01, r^2= 4.5D+01
   Bfn.  Coefficient  Atom+Function         Bfn.  Coefficient  Atom+Function  
  ----- ------------  ---------------      ----- ------------  ---------------
   454      5.375881  28 H  s               515     -4.111280  33 H  s         
   351     -3.676993  21 C  px              164      2.887834  10 H  s         
   318      2.699020  19 C  py              411      2.596755  25 H  s         
   497      2.567694  31 H  s               319      2.472586  19 C  pz        
   207     -2.455822  13 H  s                56     -2.430238   5 C  s         

 Vector   78  Occ=0.000000D+00  E= 7.322992D-02
              MO Center=  7.9D-01, -1.7D+00, -2.5D-01, r^2= 4.3D+01
   Bfn.  Coefficient  Atom+Function         Bfn.  Coefficient  Atom+Function  
  ----- ------------  ---------------      ----- ------------  ---------------
   506     -4.182194  32 H  s               318      3.966088  19 C  py        
   351     -2.888644  21 C  px              164     -2.848322  10 H  s         
     3     -2.809724   1 H  s               411      2.541392  25 H  s         
   497      2.489404  31 H  s                56     -2.384040   5 C  s         
   216      2.324441  14 H  s                46      2.199123   4 H  s         

 Vector   79  Occ=0.000000D+00  E= 7.997263D-02
              MO Center=  1.1D+00, -1.0D+00, -9.2D-01, r^2= 4.0D+01
   Bfn.  Coefficient  Atom+Function         Bfn.  Coefficient  Atom+Function  
  ----- ------------  ---------------      ----- ------------  ---------------
   300      6.128974  18 H  s               463     -5.948420  29 H  s         
   420     -5.349403  26 H  s               515      4.345477  33 H  s         
   454      4.283483  28 H  s                56     -4.043689   5 C  s         
   473     -3.868598  30 C  s               334      3.442319  20 H  s         
    37     -3.380573   3 H  s               276      2.732159  17 N  s         

 Vector   80  Occ=0.000000D+00  E= 8.202497D-02
              MO Center= -6.0D-01,  2.1D+00, -1.5D+00, r^2= 3.6D+01
   Bfn.  Coefficient  Atom+Function         Bfn.  Coefficient  Atom+Function  
  ----- ------------  ---------------      ----- ------------  ---------------
   207      6.509801  13 H  s               198     -5.272578  12 H  s         
   130      4.723366   8 H  s               300      4.184430  18 H  s         
    56     -3.499486   5 C  s               234     -3.385682  15 C  py        
    37     -3.292839   3 H  s               174      3.253236  11 C  s         
   463      3.090428  29 H  s               473     -3.071223  30 C  s         

 Vector   81  Occ=0.000000D+00  E= 8.491966D-02
              MO Center=  9.7D-01, -8.2D-01, -1.2D+00, r^2= 3.6D+01
   Bfn.  Coefficient  Atom+Function         Bfn.  Coefficient  Atom+Function  
  ----- ------------  ---------------      ----- ------------  ---------------
   420      6.289692  26 H  s               430     -5.343186  27 C  s         
   402     -4.646256  24 H  s               368      3.765463  22 H  s         
   334      3.142898  20 H  s               411     -3.016504  25 H  s         
   174      2.896303  11 C  s               386     -2.888651  23 C  py        
   317      2.812406  19 C  px              216      2.654300  14 H  s         

 Vector   82  Occ=0.000000D+00  E= 9.081553D-02
              MO Center=  8.4D-01,  3.4D-01, -5.9D-01, r^2= 3.6D+01
   Bfn.  Coefficient  Atom+Function         Bfn.  Coefficient  Atom+Function  
  ----- ------------  ---------------      ----- ------------  ---------------
   454     11.433214  28 H  s                56     -9.217541   5 C  s         
   420     -8.202300  26 H  s               300      7.719077  18 H  s         
   334     -6.407874  20 H  s               525     -6.156923  34 C  s         
   317     -5.385117  19 C  px              353     -4.497224  21 C  pz        
   438     -3.961382  27 C  py              463     -3.905304  29 H  s         

 Vector   83  Occ=0.000000D+00  E= 9.439260D-02
              MO Center=  3.2D-01, -2.3D+00, -1.7D+00, r^2= 4.0D+01
   Bfn.  Coefficient  Atom+Function         Bfn.  Coefficient  Atom+Function  
  ----- ------------  ---------------      ----- ------------  ---------------
   300     11.677063  18 H  s               368     -7.639733  22 H  s         
   411      6.846137  25 H  s               506      5.936460  32 H  s         
   454     -5.704607  28 H  s               402     -5.253913  24 H  s         
   473     -4.612872  30 C  s               352     -4.308994  21 C  py        
   198     -4.046885  12 H  s               234     -4.014162  15 C  py        

 Vector   84  Occ=0.000000D+00  E= 1.009796D-01
              MO Center=  1.5D+00, -1.5D+00,  1.6D-02, r^2= 3.8D+01
   Bfn.  Coefficient  Atom+Function         Bfn.  Coefficient  Atom+Function  
  ----- ------------  ---------------      ----- ------------  ---------------
   463      9.077197  29 H  s               420     -6.055331  26 H  s         
   515      5.983113  33 H  s               234      5.648333  15 C  py        
   525      5.445159  34 C  s               430     -5.399727  27 C  s         
   497     -5.357183  31 H  s                13     -4.490540   2 C  s         
   147      4.435979   9 C  px              352     -4.276712  21 C  py        

 Vector   85  Occ=0.000000D+00  E= 1.064943D-01
[...]
   575      8.160341  36 N  s               276      7.973360  17 N  s         
   351      7.715086  21 C  px              377     -6.894461  23 C  s         
    63     -6.639677   5 C  px              215     -6.494242  14 H  s         

 Vector  173  Occ=0.000000D+00  E= 4.429481D-01
              MO Center=  4.8D-01, -2.3D-01, -4.2D-01, r^2= 2.3D+01
   Bfn.  Coefficient  Atom+Function         Bfn.  Coefficient  Atom+Function  
  ----- ------------  ---------------      ----- ------------  ---------------
   430     19.040949  27 C  s               351    -12.951770  21 C  px        
   226    -12.860497  15 C  s               318     12.781751  19 C  py        
   317    -12.285920  19 C  px               13     11.098895   2 C  s         
   174    -10.091883  11 C  s               234      8.970676  15 C  py        
   300      8.977342  18 H  s               438     -8.390939  27 C  py        

 Vector  174  Occ=0.000000D+00  E= 4.467016D-01
              MO Center=  7.9D-01, -1.4D-01, -1.0D-01, r^2= 2.1D+01
   Bfn.  Coefficient  Atom+Function         Bfn.  Coefficient  Atom+Function  
  ----- ------------  ---------------      ----- ------------  ---------------
   113     10.019337   7 N  px               12      9.574612   2 C  s         
   430      8.560307  27 C  s                36     -8.339300   3 H  s         
   174      7.837704  11 C  s               147      7.356274   9 C  px        
   285     -6.503105  17 N  pz              317     -5.889009  19 C  px        
    63      5.266527   5 C  px              163      5.222477  10 H  s         

 Vector  175  Occ=0.000000D+00  E= 4.515542D-01
              MO Center= -6.4D-03, -7.4D-01, -6.0D-01, r^2= 2.2D+01
   Bfn.  Coefficient  Atom+Function         Bfn.  Coefficient  Atom+Function  
  ----- ------------  ---------------      ----- ------------  ---------------
    56     10.838678   5 C  s               430    -10.140233  27 C  s         
   318     -9.941879  19 C  py              377     -9.369358  23 C  s         
   575     -8.978787  36 N  s               174     -8.721593  11 C  s         
   106      7.077667   7 N  s               300      6.966752  18 H  s         
   147     -6.582016   9 C  px               13     -6.356652   2 C  s         

 Vector  176  Occ=0.000000D+00  E= 4.562600D-01
              MO Center= -2.1D-01,  3.1D-01, -4.9D-01, r^2= 2.1D+01
   Bfn.  Coefficient  Atom+Function         Bfn.  Coefficient  Atom+Function  
  ----- ------------  ---------------      ----- ------------  ---------------
   234     14.607170  15 C  py              575     11.480099  36 N  s         
   319     -9.822367  19 C  pz              473     -9.831500  30 C  s         
   276      8.694429  17 N  s               351      8.625719  21 C  px        
   353      6.516678  21 C  pz              283     -6.078361  17 N  px        
   113      5.449854   7 N  px              377     -5.191087  23 C  s         

 Vector  177  Occ=0.000000D+00  E= 4.611796D-01
              MO Center=  3.5D-01, -7.5D-02,  2.8D-01, r^2= 2.1D+01
   Bfn.  Coefficient  Atom+Function         Bfn.  Coefficient  Atom+Function  
  ----- ------------  ---------------      ----- ------------  ---------------
   430     19.600958  27 C  s                56    -15.822213   5 C  s         
   276     15.092705  17 N  s               234     14.202123  15 C  py        
   525    -13.364661  34 C  s               174    -10.197757  11 C  s         
   317     -8.924950  19 C  px              453     -8.590148  28 H  s         
   318      7.525376  19 C  py              351     -7.386465  21 C  px        

 Vector  178  Occ=0.000000D+00  E= 4.615417D-01
              MO Center=  3.2D-01,  6.1D-01, -4.3D-01, r^2= 1.9D+01
   Bfn.  Coefficient  Atom+Function         Bfn.  Coefficient  Atom+Function  
  ----- ------------  ---------------      ----- ------------  ---------------
   106     12.327424   7 N  s               234    -11.063237  15 C  py        
   300     -8.910987  18 H  s               575     -8.352024  36 N  s         
   115     -8.119978   7 N  pz              319      7.286086  19 C  pz        
   430      7.082159  27 C  s                13      6.961303   2 C  s         
   147     -6.625603   9 C  px              113     -6.399999   7 N  px        

 Vector  179  Occ=0.000000D+00  E= 4.625724D-01
              MO Center=  6.3D-01,  9.3D-01, -1.5D-01, r^2= 2.1D+01
   Bfn.  Coefficient  Atom+Function         Bfn.  Coefficient  Atom+Function  
  ----- ------------  ---------------      ----- ------------  ---------------
   300     22.105335  18 H  s               174    -19.842051  11 C  s         
   173     -9.039217  11 C  s                56      8.438105   5 C  s         
   197      7.701851  12 H  s               106     -6.936059   7 N  s         
   215      6.593511  14 H  s               351     -6.258116  21 C  px        
   149     -6.154212   9 C  pz              318      5.929603  19 C  py        

 Vector  180  Occ=0.000000D+00  E= 4.706637D-01
              MO Center=  5.3D-01, -6.4D-01, -4.4D-01, r^2= 2.0D+01
   Bfn.  Coefficient  Atom+Function         Bfn.  Coefficient  Atom+Function  
  ----- ------------  ---------------      ----- ------------  ---------------
   174     20.883956  11 C  s               430     16.561424  27 C  s         
    13     15.182109   2 C  s               473    -14.064159  30 C  s         
    56    -10.795637   5 C  s               300     -9.804105  18 H  s         
   226     -8.327584  15 C  s               575      8.043000  36 N  s         
   148     -7.458367   9 C  py              173      6.564729  11 C  s         

 Vector  181  Occ=0.000000D+00  E= 4.761491D-01
              MO Center= -5.6D-02,  2.2D-01, -3.2D-01, r^2= 2.2D+01
   Bfn.  Coefficient  Atom+Function         Bfn.  Coefficient  Atom+Function  
  ----- ------------  ---------------      ----- ------------  ---------------
   276     15.110750  17 N  s               525    -13.395644  34 C  s         
   318    -12.049719  19 C  py              473    -11.403680  30 C  s         
   234     -9.820831  15 C  py              174      9.416765  11 C  s         
   575      8.703200  36 N  s               351      7.989130  21 C  px        
    13      7.825212   2 C  s               378     -7.313200  23 C  s         

 Vector  182  Occ=0.000000D+00  E= 4.796780D-01
              MO Center=  1.7D-01, -2.0D-01, -5.7D-01, r^2= 2.1D+01
   Bfn.  Coefficient  Atom+Function         Bfn.  Coefficient  Atom+Function  
  ----- ------------  ---------------      ----- ------------  ---------------
   473     21.828329  30 C  s               276    -15.649654  17 N  s         
   234     14.882069  15 C  py              147     12.589950   9 C  px        
   437    -11.352813  27 C  px              300    -10.789351  18 H  s         
   318     10.665130  19 C  py              438      9.275624  27 C  py        
    13     -8.966625   2 C  s               472      8.219040  30 C  s         

 Vector  183  Occ=0.000000D+00  E= 4.807129D-01
              MO Center=  5.3D-01, -3.3D-01, -1.3D-01, r^2= 2.1D+01
   Bfn.  Coefficient  Atom+Function         Bfn.  Coefficient  Atom+Function  
  ----- ------------  ---------------      ----- ------------  ---------------
   318     15.123625  19 C  py              473     14.469536  30 C  s         
    13    -13.068733   2 C  s               575     12.313041  36 N  s         
   113      9.164954   7 N  px              534     -8.983418  34 C  pz        
   276     -8.831323  17 N  s               309      8.290515  19 C  s         
   351     -8.206703  21 C  px              147      8.015880   9 C  px        

 Vector  184  Occ=0.000000D+00  E= 4.814895D-01
              MO Center=  5.4D-01,  8.2D-01, -4.3D-01, r^2= 2.0D+01
   Bfn.  Coefficient  Atom+Function         Bfn.  Coefficient  Atom+Function  
  ----- ------------  ---------------      ----- ------------  ---------------
   351      8.374936  21 C  px              430     -6.996172  27 C  s         
    56      6.904264   5 C  s               300      5.439834  18 H  s         
   378     -5.326004  23 C  s               163     -5.224583  10 H  s         
    12     -5.072311   2 C  s                45      5.093497   4 H  s         
   318     -5.013194  19 C  py              147     -4.968596   9 C  px        

 Vector  185  Occ=0.000000D+00  E= 4.857215D-01
              MO Center= -2.3D-01,  3.9D-01, -3.5D-01, r^2= 1.9D+01
   Bfn.  Coefficient  Atom+Function         Bfn.  Coefficient  Atom+Function  
  ----- ------------  ---------------      ----- ------------  ---------------
   525    -15.865819  34 C  s               473     15.461999  30 C  s         
   378    -13.250417  23 C  s               319     12.156732  19 C  pz        
   234    -11.125519  15 C  py              284    -10.507924  17 N  py        
   106      9.425881   7 N  s               353     -9.337569  21 C  pz        
   140      9.113213   9 C  s               226      8.549276  15 C  s         

 Vector  186  Occ=0.000000D+00  E= 4.882076D-01
              MO Center=  9.8D-01, -9.3D-01, -2.2D-01, r^2= 2.1D+01
   Bfn.  Coefficient  Atom+Function         Bfn.  Coefficient  Atom+Function  
  ----- ------------  ---------------      ----- ------------  ---------------
   430     21.997637  27 C  s               318     15.077030  19 C  py        
   351    -12.828594  21 C  px               56    -12.280526   5 C  s         
    13     11.431259   2 C  s               525    -10.899650  34 C  s         
   226     -9.295573  15 C  s               575      8.606636  36 N  s         
   276      7.628886  17 N  s               319      7.623258  19 C  pz        

 Vector  187  Occ=0.000000D+00  E= 4.933434D-01
              MO Center=  1.1D-01, -1.2D+00,  1.7D-01, r^2= 1.6D+01
   Bfn.  Coefficient  Atom+Function         Bfn.  Coefficient  Atom+Function  
  ----- ------------  ---------------      ----- ------------  ---------------
   378     17.051176  23 C  s               473    -14.398586  30 C  s         
   226    -13.485824  15 C  s               525     13.399652  34 C  s         
   437      9.637098  27 C  px              276     -9.537067  17 N  s         
   353      9.140255  21 C  pz               56      8.041823   5 C  s         
   310     -7.649064  19 C  s               285     -7.222672  17 N  pz        

 Vector  188  Occ=0.000000D+00  E= 4.998835D-01
              MO Center= -4.0D-02,  5.1D-01, -4.7D-01, r^2= 2.0D+01
   Bfn.  Coefficient  Atom+Function         Bfn.  Coefficient  Atom+Function  
  ----- ------------  ---------------      ----- ------------  ---------------
   234     14.969011  15 C  py              378    -13.206218  23 C  s         
   351     12.184475  21 C  px              430    -11.354640  27 C  s         
   276     10.068468  17 N  s                56      8.724014   5 C  s         
   147      8.649939   9 C  px              575      8.359931  36 N  s         
   318     -8.144047  19 C  py              226      8.052886  15 C  s         

 Vector  189  Occ=0.000000D+00  E= 5.044595D-01
              MO Center=  6.2D-01, -2.4D-01, -4.7D-01, r^2= 1.9D+01
   Bfn.  Coefficient  Atom+Function         Bfn.  Coefficient  Atom+Function  
  ----- ------------  ---------------      ----- ------------  ---------------
   454      9.197529  28 H  s                13      8.506500   2 C  s         
   234     -7.168483  15 C  py               63     -6.548285   5 C  px        
   174      6.197037  11 C  s               300     -6.187742  18 H  s         
   353     -5.834726  21 C  pz              473     -5.369400  30 C  s         
   453      5.217648  28 H  s               226     -5.031781  15 C  s         


 center of mass
 --------------
 x =  -0.11094564 y =   0.01145032 z =   0.08449997

 moments of inertia (a.u.)
 ------------------
        5436.597614243127          -0.000000000000           0.000000000002
          -0.000000000000        3318.397719338078          -0.000000000003
           0.000000000002          -0.000000000003        6091.226924562354

  Mulliken analysis of the total density
  --------------------------------------

    Atom       Charge   Shell Charges
 -----------   ------   -------------------------------------------------------
    1 H    1     0.92   0.76  0.19  0.01  0.03 -0.07
    2 C    6     6.45   2.01  0.66  0.34  0.19  2.07  1.02 -0.02  0.06  0.12
    3 H    1     0.84   0.76  0.10  0.01  0.03 -0.07
    4 H    1     0.81   0.76  0.08  0.01  0.03 -0.07
    5 C    6     5.12   2.01  0.68  0.10 -0.04  1.90  0.39 -0.13  0.24 -0.02
    6 O    8     8.78   2.01  0.82  0.99  0.18  2.80  1.84  0.14  0.02 -0.01
    7 N    7     7.48   2.01  0.72  0.82 -0.16  2.45  1.44  0.12  0.05  0.04
    8 H    1     0.96   0.77  0.21 -0.03  0.05 -0.04
    9 C    6     6.38   2.01  0.66  0.10  0.03  1.99  1.34 -0.03  0.14  0.15
   10 H    1     1.13   0.78  0.28  0.02  0.03  0.03
   11 C    6     5.78   2.01  0.66  0.24  0.21  2.04  0.59 -0.04  0.07  0.00
   12 H    1     0.94   0.77  0.18  0.04  0.03 -0.08
   13 H    1     0.93   0.76  0.22 -0.00  0.03 -0.07
   14 H    1     0.98   0.77  0.25  0.01  0.03 -0.08
   15 C    6     4.69   2.01  0.68  0.05 -0.06  1.89  0.13  0.05  0.24 -0.29
   16 O    8     8.86   2.01  0.82  1.05  0.20  2.78  1.85  0.14  0.01 -0.01
   17 N    7     7.46   2.01  0.72  0.81 -0.13  2.45  1.43  0.10  0.06  0.03
   18 H    1     0.93   0.77  0.29 -0.05  0.05 -0.14
   19 C    6     6.35   2.01  0.67  0.12  0.07  1.99  1.14  0.20  0.13  0.02
   20 H    1     1.05   0.78  0.26 -0.01  0.03  0.01
   21 C    6     6.59   2.01  0.66  0.18  0.03  2.01  1.24 -0.08  0.12  0.42
   22 H    1     1.11   0.79  0.33  0.02  0.03 -0.05
   23 C    6     5.32   2.01  0.66  0.14  0.06  2.04  0.50 -0.04  0.07 -0.12
   24 H    1     1.05   0.78  0.32 -0.00  0.03 -0.07
   25 H    1     1.02   0.78  0.28  0.01  0.03 -0.08
   26 H    1     0.96   0.78  0.19  0.02  0.03 -0.06
   27 C    6     6.17   2.01  0.66  0.49 -0.07  2.03  0.78 -0.00  0.10  0.17
   28 H    1     1.03   0.80  0.33 -0.06  0.03 -0.06
   29 H    1     1.02   0.79  0.30 -0.01  0.03 -0.09
   30 C    6     5.47   2.01  0.66  0.18  0.07  2.04  0.56 -0.02  0.07 -0.10
   31 H    1     1.02   0.78  0.28  0.01  0.03 -0.08
   32 H    1     1.00   0.77  0.27  0.00  0.03 -0.08
   33 H    1     0.97   0.78  0.23  0.01  0.03 -0.08
   34 C    6     4.48   2.01  0.68  0.06 -0.01  1.89 -0.22 -0.02  0.24 -0.15
   35 O    8     8.89   2.01  0.82  1.04  0.20  2.79  1.85  0.16  0.01 -0.00
   36 N    7     7.16   2.01  0.72  0.82 -0.23  2.46  1.23  0.12  0.04 -0.02
   37 H    1     0.85   0.73  0.20 -0.02  0.06 -0.12
   38 H    1     1.04   0.76  0.25 -0.00  0.05 -0.02

       Multipole analysis of the density wrt the origin
       ------------------------------------------------

     L   x y z        total         open         nuclear
     -   - - -        -----         ----         -------
     0   0 0 0      0.000000      0.000000    132.000000

     1   1 0 0      2.704338      0.000000     -0.000000
     1   0 1 0      2.443449      0.000000     -0.000000
     1   0 0 1     -1.431336      0.000000     -0.000000

     2   2 0 0    -84.723545      0.000000   1129.767815
     2   1 1 0     -0.417733      0.000000    -34.087184
     2   1 0 1      1.240895      0.000000      3.587355
     2   0 2 0    -74.846817      0.000000   2317.449181
     2   0 1 1      1.429449      0.000000     15.158845
     2   0 0 2    -77.946764      0.000000    771.969068


 Task  times  cpu:     5680.8s     wall:     5979.2s


                                NWChem Input Module
                                -------------------


 Summary of allocated global arrays
-----------------------------------
  No active global arrays


MA_summarize_allocated_blocks: starting scan ...
MA_summarize_allocated_blocks: scan completed: 0 heap blocks, 0 stack blocks
MA usage statistics:

	allocation statistics:
					      heap	     stack
					      ----	     -----
	current number of blocks	         0	         0
	maximum number of blocks	        16	        14
	current total bytes		         0	         0
	maximum total bytes		    131256	  28332184
	maximum total K-bytes		       132	     28333
	maximum total M-bytes		         1	        29


                                     CITATION
                                     --------
                Please cite the following reference when publishing
                           results obtained with NWChem:

          E. Apra, E. J. Bylaska, W. A. de Jong, N. Govind, K. Kowalski,
       T. P. Straatsma, M. Valiev, H. J. J. van Dam, Y. Alexeev, J. Anchell,
       V. Anisimov, F. W. Aquino, R. Atta-Fynn, J. Autschbach, N. P. Bauman,
     J. C. Becca, D. E. Bernholdt, K. Bhaskaran-Nair, S. Bogatko, P. Borowski,
         J. Boschen, J. Brabec, A. Bruner, E. Cauet, Y. Chen, G. N. Chuev,
      C. J. Cramer, J. Daily, M. J. O. Deegan, T. H. Dunning Jr., M. Dupuis,
   K. G. Dyall, G. I. Fann, S. A. Fischer, A. Fonari, H. Fruchtl, L. Gagliardi,
      J. Garza, N. Gawande, S. Ghosh, K. Glaesemann, A. W. Gotz, J. Hammond,
       V. Helms, E. D. Hermes, K. Hirao, S. Hirata, M. Jacquelin, L. Jensen,
   B. G. Johnson, H. Jonsson, R. A. Kendall, M. Klemm, R. Kobayashi, V. Konkov,
      S. Krishnamoorthy, M. Krishnan, Z. Lin, R. D. Lins, R. J. Littlefield,
      A. J. Logsdail, K. Lopata, W. Ma, A. V. Marenich, J. Martin del Campo,
   D. Mejia-Rodriguez, J. E. Moore, J. M. Mullin, T. Nakajima, D. R. Nascimento,
    J. A. Nichols, P. J. Nichols, J. Nieplocha, A. Otero-de-la-Roza, B. Palmer,
    A. Panyala, T. Pirojsirikul, B. Peng, R. Peverati, J. Pittner, L. Pollack,
   R. M. Richard, P. Sadayappan, G. C. Schatz, W. A. Shelton, D. W. Silverstein,
   D. M. A. Smith, T. A. Soares, D. Song, M. Swart, H. L. Taylor, G. S. Thomas,
            V. Tipparaju, D. G. Truhlar, K. Tsemekhman, T. Van Voorhis,
      A. Vazquez-Mayagoitia, P. Verma, O. Villa, A. Vishnu, K. D. Vogiatzis,
        D. Wang, J. H. Weare, M. J. Williamson, T. L. Windus, K. Wolinski,
        A. T. Wong, Q. Wu, C. Yang, Q. Yu, M. Zacharias, Z. Zhang, Y. Zhao,
                                and R. J. Harrison
                        "NWChem: Past, present, and future
                         J. Chem. Phys. 152, 184102 (2020)
                               doi:10.1063/5.0004997

                                      AUTHORS
                                      -------
  E. Apra, E. J. Bylaska, N. Govind, K. Kowalski, M. Valiev, D. Mejia-Rodriguez,
       A. Kunitsa, N. P. Bauman, A. Panyala, W. A. de Jong, T. P. Straatsma,
   H. J. J. van Dam, D. Wang, T. L. Windus, J. Hammond, J. Autschbach, A. Woods,
    K. Bhaskaran-Nair, J. Brabec, K. Lopata, S. A. Fischer, S. Krishnamoorthy,
     M. Jacquelin, W. Ma, M. Klemm, O. Villa, Y. Chen, V. Anisimov, F. Aquino,
     S. Hirata, M. T. Hackler, E. Hermes, L. Jensen, J. E. Moore, J. C. Becca,
      V. Konjkov, T. Risthaus, M. Malagoli, A. Marenich, A. Otero-de-la-Roza,
        J. Mullin, P. Nichols, R. Peverati, J. Pittner, Y. Zhao, P.-D. Fan,
        A. Fonari, M. J. Williamson, R. J. Harrison, J. R. Rehr, M. Dupuis,
     D. Silverstein, D. M. A. Smith, J. Nieplocha, V. Tipparaju, M. Krishnan,
     B. E. Van Kuiken, A. Vazquez-Mayagoitia, M. Swart, Q. Wu, T. Van Voorhis,
     A. A. Auer, M. Nooijen, L. D. Crosby, E. Brown, G. Cisneros, G. I. Fann,
   H. Fruchtl, J. Garza, K. Hirao, R. A. Kendall, J. A. Nichols, K. Tsemekhman,
    K. Wolinski, J. Anchell, D. E. Bernholdt, P. Borowski, T. Clark, D. Clerc,
   H. Dachsel, M. J. O. Deegan, K. Dyall, D. Elwood, E. Glendening, M. Gutowski,
   A. C. Hess, J. Jaffe, B. G. Johnson, J. Ju, R. Kobayashi, R. Kutteh, Z. Lin,
   R. Littlefield, X. Long, B. Meng, T. Nakajima, S. Niu, L. Pollack, M. Rosing,
   K. Glaesemann, G. Sandrone, M. Stave, H. Taylor, G. Thomas, J. H. van Lenthe,
                               A. T. Wong, Z. Zhang.

 Total times  cpu:     5680.9s     wall:     5979.7s
