export TMOUT=5400
export TMPDIR=/tmp
export PTMPDIR=/tmp/ptmp
 argument  1 = ALA_PRO_4.nw
                                         
                                         


             Northwest Computational Chemistry Package (NWChem) 7.2.0
             --------------------------------------------------------


                    Environmental Molecular Sciences Laboratory
                       Pacific Northwest National Laboratory
                                Richland, WA 99352

                              Copyright (c) 1994-2022
                       Pacific Northwest National Laboratory
                            Battelle Memorial Institute

             NWChem is an open-source computational chemistry package
                        distributed under the terms of the
                      Educational Community License (ECL) 2.0
             A copy of the license is included with this distribution
                              in the LICENSE.TXT file

                                  ACKNOWLEDGMENT
                                  --------------

            This software and its documentation were developed at the
            EMSL at Pacific Northwest National Laboratory, a multiprogram
            national laboratory, operated for the U.S. Department of Energy
            by Battelle under Contract Number DE-AC05-76RL01830. Support
            for this work was provided by the Department of Energy Office
            of Biological and Environmental Research, Office of Basic
            Energy Sciences, and the Office of Advanced Scientific Computing.


           Job information
           ---------------

    hostname        = nova18-41
    program         = /opt/rit/el9/20230413/app/linux-rhel9-x86_64_v3/gcc-11.2.1/nwchem-7.2.0-oxtctbuhfuzyfaoziquq6bki22grib3g/bin/nwchem
    date            = Mon Jun 30 14:48:32 2025

    compiled        = Wed_May_17_23:46:39_2023
    source          = /tmp/root/spack-stage/spack-stage-nwchem-7.2.0-oxtctbuhfuzyfaoziquq6bki22grib3g/spack-src
    nwchem branch   = 7.2.0
    nwchem revision = d0d141fd
    ga revision     = 5.8.0
    use scalapack   = T
    input           = ALA_PRO_4.nw
    prefix          = ALA_PRO_4.
    data base       = ./ALA_PRO_4.db
    status          = startup
    nproc           =        8
    time left       =     -1s



           Memory information
           ------------------

    heap     =   26214394 doubles =    200.0 Mbytes
    stack    =   26214399 doubles =    200.0 Mbytes
    global   =   52428800 doubles =    400.0 Mbytes (distinct from heap & stack)
    total    =  104857593 doubles =    800.0 Mbytes
    verify   = yes
    hardfail = no 


           Directory information
           ---------------------

  0 permanent = .
  0 scratch   = .




                                NWChem Input Module
                                -------------------



 Scaling coordinates for geometry "geometry" by  1.889725989
 (inverse scale =  0.529177249)

 C1  symmetry detected

          ------
          auto-z
          ------
  no constraints, skipping    0.0000000000000000     
  no constraints, skipping    0.0000000000000000     


                             Geometry "geometry" -> ""
                             -------------------------

 Output coordinates in angstroms (scale by  1.889725989 to convert to a.u.)

  No.       Tag          Charge          X              Y              Z
 ---- ---------------- ---------- -------------- -------------- --------------
    1 H                    1.0000    -0.73834043    -4.95043210     0.15085414
    2 C                    6.0000    -0.36975512    -4.37882086    -0.69761711
    3 H                    1.0000    -0.98293171    -4.58672181    -1.57384291
    4 H                    1.0000     0.66535745    -4.64384106    -0.90726267
    5 C                    6.0000    -0.44981789    -2.90373279    -0.38449871
    6 O                    8.0000    -1.12265879    -2.15861262    -1.08642610
    7 N                    7.0000     0.23706766    -2.47824505     0.67550951
    8 H                    1.0000     0.80090331    -3.14178811     1.17688757
    9 C                    6.0000     0.34381421    -1.06587773     1.04257587
   10 H                    1.0000    -0.66622021    -0.67649001     1.15030084
   11 C                    6.0000     1.03757210    -0.96827704     2.40815380
   12 H                    1.0000     0.47213133    -1.53077151     3.15277029
   13 H                    1.0000     2.04995229    -1.37135369     2.34026739
   14 H                    1.0000     1.09266580     0.07357181     2.72198441
   15 C                    6.0000     1.09953858    -0.25277681    -0.04115499
   16 O                    8.0000     2.04637958    -0.78351979    -0.62296253
   17 N                    7.0000     0.74793923     1.02826782    -0.29430423
   18 C                    6.0000     1.54376500     1.89243484    -1.15636612
   19 H                    1.0000     1.10906016     1.90694512    -2.15664466
   20 H                    1.0000     2.58630881     1.57582556    -1.20706093
   21 C                    6.0000     1.45267497     3.27623929    -0.52485535
   22 H                    1.0000     1.64087606     4.06809211    -1.25063112
   23 H                    1.0000     2.14080339     3.34548388     0.31823982
   24 C                    6.0000     0.01110603     3.29208965    -0.02447174
   25 H                    1.0000    -0.64764312     3.56819609    -0.84958010
   26 H                    1.0000    -0.11800333     3.98697169     0.80691008
   27 C                    6.0000    -0.25992898     1.84096225     0.40635222
   28 H                    1.0000    -0.08169105     1.76511552     1.47937390
   29 C                    6.0000    -1.73534731     1.49033280     0.14226754
   30 O                    8.0000    -2.61323879     2.03030644     0.80004716
   31 N                    7.0000    -2.05352024     0.60602441    -0.79277827
   32 H                    1.0000    -3.02690626     0.38673289    -0.92793699
   33 H                    1.0000    -1.34231459     0.09129970    -1.29119877

      Atomic Mass 
      ----------- 

      H                  1.007825
      C                 12.000000
      O                 15.994910
      N                 14.003070


 Effective nuclear repulsion energy (a.u.)    1209.0150930128

            Nuclear Dipole moment (a.u.) 
            ----------------------------
        X                 Y               Z
 ---------------- ---------------- ----------------
    -0.0000000000    -0.0000000000     0.0000000000



                                Z-matrix (autoz)
                                -------- 

 Units are Angstrom for bonds and degrees for angles

      Type          Name      I     J     K     L     M      Value
      ----------- --------  ----- ----- ----- ----- ----- ----------
    1 Stretch                  1     2                       1.08743
    2 Stretch                  2     3                       1.08949
    3 Stretch                  2     4                       1.08887
    4 Stretch                  2     5                       1.51008
    5 Stretch                  5     6                       1.22500
    6 Stretch                  5     7                       1.33284
    7 Stretch                  7     8                       1.00478
    8 Stretch                  7     9                       1.46319
    9 Stretch                  9    10                       1.08784
   10 Stretch                  9    11                       1.53481
   11 Stretch                  9    15                       1.55136
   12 Stretch                 11    12                       1.09114
   13 Stretch                 11    13                       1.09178
   14 Stretch                 11    14                       1.08948
   15 Stretch                 15    16                       1.23154
   16 Stretch                 15    17                       1.35232
   17 Stretch                 17    18                       1.45715
   18 Stretch                 17    27                       1.47214
   19 Stretch                 18    19                       1.09075
   20 Stretch                 18    20                       1.09074
   21 Stretch                 18    21                       1.52382
   22 Stretch                 21    22                       1.09050
   23 Stretch                 21    23                       1.09047
   24 Stretch                 21    24                       1.52603
   25 Stretch                 24    25                       1.09132
   26 Stretch                 24    26                       1.09120
   27 Stretch                 24    27                       1.53780
   28 Stretch                 27    28                       1.09037
   29 Stretch                 27    29                       1.53933
   30 Stretch                 29    30                       1.22268
   31 Stretch                 29    31                       1.32572
   32 Stretch                 31    32                       1.00689
   33 Stretch                 31    33                       1.00954
   34 Bend                     1     2     3               109.66080
   35 Bend                     1     2     4               110.15152
   36 Bend                     1     2     5               109.49447
   37 Bend                     2     5     6               120.29654
   38 Bend                     2     5     7               116.70647
   39 Bend                     3     2     4               109.49553
   40 Bend                     3     2     5               108.86429
   41 Bend                     4     2     5               109.15188
   42 Bend                     5     7     8               118.37396
   43 Bend                     5     7     9               123.04232
   44 Bend                     6     5     7               122.99689
   45 Bend                     7     9    10               107.61499
   46 Bend                     7     9    11               108.51584
   47 Bend                     7     9    15               111.48194
   48 Bend                     8     7     9               118.12070
   49 Bend                     9    11    12               109.88638
   50 Bend                     9    11    13               109.89767
   51 Bend                     9    11    14               109.87460
   52 Bend                     9    15    16               118.59838
   53 Bend                     9    15    17               120.04035
   54 Bend                    10     9    11               107.98794
   55 Bend                    10     9    15               109.50349
   56 Bend                    11     9    15               111.59355
   57 Bend                    12    11    13               109.42874
   58 Bend                    12    11    14               108.82046
   59 Bend                    13    11    14               108.90919
   60 Bend                    15    17    18               122.04221
   61 Bend                    15    17    27               127.72400
   62 Bend                    16    15    17               121.31206
   63 Bend                    17    18    19               109.43673
   64 Bend                    17    18    20               112.17101
   65 Bend                    17    18    21               105.11376
   66 Bend                    17    27    24               105.48177
   67 Bend                    17    27    28               108.54561
   68 Bend                    17    27    29               116.66702
   69 Bend                    18    17    27               109.15291
   70 Bend                    18    21    22               111.91806
   71 Bend                    18    21    23               109.89861
   72 Bend                    18    21    24               101.64177
   73 Bend                    19    18    20               110.00897
   74 Bend                    19    18    21               110.12981
   75 Bend                    20    18    21               109.87673
   76 Bend                    21    24    25               108.96144
   77 Bend                    21    24    26               111.60521
   78 Bend                    21    24    27               104.39204
   79 Bend                    22    21    23               111.07238
   80 Bend                    22    21    24               111.94515
   81 Bend                    23    21    24               109.99506
   82 Bend                    24    27    28               108.21168
   83 Bend                    24    27    29               109.62175
   84 Bend                    25    24    26               110.09069
   85 Bend                    25    24    27               110.13104
   86 Bend                    26    24    27               111.50660
   87 Bend                    27    29    30               119.68990
   88 Bend                    27    29    31               120.19696
   89 Bend                    28    27    29               108.03896
   90 Bend                    29    31    32               118.16175
   91 Bend                    29    31    33               121.28110
   92 Bend                    30    29    31               120.11310
   93 Bend                    32    31    33               120.24666
   94 Torsion                  1     2     5     6        -120.43472
   95 Torsion                  1     2     5     7          59.45061
   96 Torsion                  2     5     7     8           2.97104
   97 Torsion                  2     5     7     9         175.00804
   98 Torsion                  3     2     5     6          -0.55845
   99 Torsion                  3     2     5     7         179.32688
  100 Torsion                  4     2     5     6         118.91395
  101 Torsion                  4     2     5     7         -61.20072
  102 Torsion                  5     7     9    10          55.67921
  103 Torsion                  5     7     9    11         172.29661
  104 Torsion                  5     7     9    15         -64.41295
  105 Torsion                  6     5     7     8        -177.14702
  106 Torsion                  6     5     7     9          -5.11001
  107 Torsion                  7     9    11    12         -58.02166
  108 Torsion                  7     9    11    13          62.44993
  109 Torsion                  7     9    11    14        -177.72767
  110 Torsion                  7     9    15    16         -36.85775
  111 Torsion                  7     9    15    17         145.65964
  112 Torsion                  8     7     9    10        -132.26477
  113 Torsion                  8     7     9    11         -15.64737
  114 Torsion                  8     7     9    15         107.64307
  115 Torsion                  9    15    17    18         170.90422
  116 Torsion                  9    15    17    27           4.12165
  117 Torsion                 10     9    11    12          58.35552
  118 Torsion                 10     9    11    13         178.82711
  119 Torsion                 10     9    11    14         -61.35049
  120 Torsion                 10     9    15    16        -155.83064
  121 Torsion                 10     9    15    17          26.68675
  122 Torsion                 11     9    15    16          84.66237
  123 Torsion                 11     9    15    17         -92.82024
  124 Torsion                 12    11     9    15         178.75507
  125 Torsion                 13    11     9    15         -60.77334
  126 Torsion                 14    11     9    15          59.04907
  127 Torsion                 15    17    18    19          98.00681
  128 Torsion                 15    17    18    20         -24.37876
  129 Torsion                 15    17    18    21        -143.74273
  130 Torsion                 15    17    27    24         165.26357
  131 Torsion                 15    17    27    28          49.47952
  132 Torsion                 15    17    27    29         -72.79600
  133 Torsion                 16    15    17    18          -6.50866
  134 Torsion                 16    15    17    27        -173.29123
  135 Torsion                 17    18    21    22        -156.49370
  136 Torsion                 17    18    21    23          79.60176
  137 Torsion                 17    18    21    24         -36.87692
  138 Torsion                 17    27    24    21         -20.40781
  139 Torsion                 17    27    24    25          96.42249
  140 Torsion                 17    27    24    26        -141.05175
  141 Torsion                 17    27    29    30         172.19809
  142 Torsion                 17    27    29    31          -7.72648
  143 Torsion                 18    17    27    24          -2.89690
  144 Torsion                 18    17    27    28        -118.68095
  145 Torsion                 18    17    27    29         119.04353
  146 Torsion                 18    21    24    25         -82.98894
  147 Torsion                 18    21    24    26         155.22628
  148 Torsion                 18    21    24    27          34.64818
  149 Torsion                 19    18    17    27         -93.03059
  150 Torsion                 19    18    21    22         -38.71177
  151 Torsion                 19    18    21    23        -162.61632
  152 Torsion                 19    18    21    24          80.90501
  153 Torsion                 20    18    17    27         144.58383
  154 Torsion                 20    18    21    22          82.62252
  155 Torsion                 20    18    21    23         -41.28203
  156 Torsion                 20    18    21    24        -157.76070
  157 Torsion                 21    18    17    27          25.21987
  158 Torsion                 21    24    27    28          95.60474
  159 Torsion                 21    24    27    29        -146.78942
  160 Torsion                 22    21    24    25          36.60866
  161 Torsion                 22    21    24    26         -85.17613
  162 Torsion                 22    21    24    27         154.24577
  163 Torsion                 23    21    24    25         160.60277
  164 Torsion                 23    21    24    26          38.81798
  165 Torsion                 23    21    24    27         -81.76011
  166 Torsion                 24    27    29    30         -68.05498
  167 Torsion                 24    27    29    31         112.02045
  168 Torsion                 25    24    27    28        -147.56495
  169 Torsion                 25    24    27    29         -29.95911
  170 Torsion                 26    24    27    28         -25.03920
  171 Torsion                 26    24    27    29          92.56664
  172 Torsion                 27    29    31    32         178.86455
  173 Torsion                 27    29    31    33           5.24983
  174 Torsion                 28    27    29    30          49.65873
  175 Torsion                 28    27    29    31        -130.26583
  176 Torsion                 30    29    31    32          -1.05970
  177 Torsion                 30    29    31    33        -174.67442


            XYZ format geometry
            -------------------
    33
 geometry
 H                    -0.73834043    -4.95043210     0.15085414
 C                    -0.36975512    -4.37882086    -0.69761711
 H                    -0.98293171    -4.58672181    -1.57384291
 H                     0.66535745    -4.64384106    -0.90726267
 C                    -0.44981789    -2.90373279    -0.38449871
 O                    -1.12265879    -2.15861262    -1.08642610
 N                     0.23706766    -2.47824505     0.67550951
 H                     0.80090331    -3.14178811     1.17688757
 C                     0.34381421    -1.06587773     1.04257587
 H                    -0.66622021    -0.67649001     1.15030084
 C                     1.03757210    -0.96827704     2.40815380
 H                     0.47213133    -1.53077151     3.15277029
 H                     2.04995229    -1.37135369     2.34026739
 H                     1.09266580     0.07357181     2.72198441
 C                     1.09953858    -0.25277681    -0.04115499
 O                     2.04637958    -0.78351979    -0.62296253
 N                     0.74793923     1.02826782    -0.29430423
 C                     1.54376500     1.89243484    -1.15636612
 H                     1.10906016     1.90694512    -2.15664466
 H                     2.58630881     1.57582556    -1.20706093
 C                     1.45267497     3.27623929    -0.52485535
 H                     1.64087606     4.06809211    -1.25063112
 H                     2.14080339     3.34548388     0.31823982
 C                     0.01110603     3.29208965    -0.02447174
 H                    -0.64764312     3.56819609    -0.84958010
 H                    -0.11800333     3.98697169     0.80691008
 C                    -0.25992898     1.84096225     0.40635222
 H                    -0.08169105     1.76511552     1.47937390
 C                    -1.73534731     1.49033280     0.14226754
 O                    -2.61323879     2.03030644     0.80004716
 N                    -2.05352024     0.60602441    -0.79277827
 H                    -3.02690626     0.38673289    -0.92793699
 H                    -1.34231459     0.09129970    -1.29119877

 ==============================================================================
                                internuclear distances
 ------------------------------------------------------------------------------
       center one      |      center two      | atomic units |  angstroms
 ------------------------------------------------------------------------------
    2 C                |   1 H                |     2.05494  |     1.08743
    3 H                |   2 C                |     2.05883  |     1.08949
    4 H                |   2 C                |     2.05767  |     1.08887
    5 C                |   2 C                |     2.85364  |     1.51008
    6 O                |   5 C                |     2.31491  |     1.22500
    7 N                |   5 C                |     2.51871  |     1.33284
    8 H                |   7 N                |     1.89876  |     1.00478
    9 C                |   7 N                |     2.76502  |     1.46319
   10 H                |   9 C                |     2.05572  |     1.08784
   11 C                |   9 C                |     2.90036  |     1.53481
   12 H                |  11 C                |     2.06195  |     1.09114
   13 H                |  11 C                |     2.06317  |     1.09178
   14 H                |  11 C                |     2.05883  |     1.08948
   15 C                |   9 C                |     2.93165  |     1.55136
   16 O                |  15 C                |     2.32728  |     1.23154
   17 N                |  15 C                |     2.55552  |     1.35232
   18 C                |  17 N                |     2.75361  |     1.45715
   19 H                |  18 C                |     2.06122  |     1.09075
   20 H                |  18 C                |     2.06120  |     1.09074
   21 C                |  18 C                |     2.87960  |     1.52382
   22 H                |  21 C                |     2.06076  |     1.09050
   23 H                |  21 C                |     2.06069  |     1.09047
   24 C                |  21 C                |     2.88377  |     1.52603
   25 H                |  24 C                |     2.06230  |     1.09132
   26 H                |  24 C                |     2.06208  |     1.09120
   27 C                |  17 N                |     2.78194  |     1.47214
   27 C                |  24 C                |     2.90603  |     1.53780
   28 H                |  27 C                |     2.06049  |     1.09037
   29 C                |  27 C                |     2.90891  |     1.53933
   30 O                |  29 C                |     2.31052  |     1.22268
   31 N                |  29 C                |     2.50526  |     1.32572
   32 H                |  31 N                |     1.90276  |     1.00689
   33 H                |  31 N                |     1.90776  |     1.00954
 ------------------------------------------------------------------------------
                         number of included internuclear distances:         33
 ==============================================================================



 ==============================================================================
                                 internuclear angles
 ------------------------------------------------------------------------------
        center 1       |       center 2       |       center 3       |  degrees
 ------------------------------------------------------------------------------
    1 H                |   2 C                |   3 H                |   109.66
    1 H                |   2 C                |   4 H                |   110.15
    1 H                |   2 C                |   5 C                |   109.49
    3 H                |   2 C                |   4 H                |   109.50
    3 H                |   2 C                |   5 C                |   108.86
    4 H                |   2 C                |   5 C                |   109.15
    2 C                |   5 C                |   6 O                |   120.30
    2 C                |   5 C                |   7 N                |   116.71
    6 O                |   5 C                |   7 N                |   123.00
    5 C                |   7 N                |   8 H                |   118.37
    5 C                |   7 N                |   9 C                |   123.04
    8 H                |   7 N                |   9 C                |   118.12
    7 N                |   9 C                |  10 H                |   107.61
    7 N                |   9 C                |  11 C                |   108.52
    7 N                |   9 C                |  15 C                |   111.48
   10 H                |   9 C                |  11 C                |   107.99
   10 H                |   9 C                |  15 C                |   109.50
   11 C                |   9 C                |  15 C                |   111.59
    9 C                |  11 C                |  12 H                |   109.89
    9 C                |  11 C                |  13 H                |   109.90
    9 C                |  11 C                |  14 H                |   109.87
   12 H                |  11 C                |  13 H                |   109.43
   12 H                |  11 C                |  14 H                |   108.82
   13 H                |  11 C                |  14 H                |   108.91
    9 C                |  15 C                |  16 O                |   118.60
    9 C                |  15 C                |  17 N                |   120.04
   16 O                |  15 C                |  17 N                |   121.31
   15 C                |  17 N                |  18 C                |   122.04
   15 C                |  17 N                |  27 C                |   127.72
   18 C                |  17 N                |  27 C                |   109.15
   17 N                |  18 C                |  19 H                |   109.44
   17 N                |  18 C                |  20 H                |   112.17
   17 N                |  18 C                |  21 C                |   105.11
   19 H                |  18 C                |  20 H                |   110.01
   19 H                |  18 C                |  21 C                |   110.13
   20 H                |  18 C                |  21 C                |   109.88
   18 C                |  21 C                |  22 H                |   111.92
   18 C                |  21 C                |  23 H                |   109.90
   18 C                |  21 C                |  24 C                |   101.64
   22 H                |  21 C                |  23 H                |   111.07
   22 H                |  21 C                |  24 C                |   111.95
   23 H                |  21 C                |  24 C                |   110.00
   21 C                |  24 C                |  25 H                |   108.96
   21 C                |  24 C                |  26 H                |   111.61
   21 C                |  24 C                |  27 C                |   104.39
   25 H                |  24 C                |  26 H                |   110.09
   25 H                |  24 C                |  27 C                |   110.13
   26 H                |  24 C                |  27 C                |   111.51
   17 N                |  27 C                |  24 C                |   105.48
   17 N                |  27 C                |  28 H                |   108.55
   17 N                |  27 C                |  29 C                |   116.67
   24 C                |  27 C                |  28 H                |   108.21
   24 C                |  27 C                |  29 C                |   109.62
   28 H                |  27 C                |  29 C                |   108.04
   27 C                |  29 C                |  30 O                |   119.69
   27 C                |  29 C                |  31 N                |   120.20
   30 O                |  29 C                |  31 N                |   120.11
   29 C                |  31 N                |  32 H                |   118.16
   29 C                |  31 N                |  33 H                |   121.28
   32 H                |  31 N                |  33 H                |   120.25
 ------------------------------------------------------------------------------
                            number of included internuclear angles:         60
 ==============================================================================



  library name resolved from: environment
  library file name is: </opt/rit/el9/20230413/app/linux-rhel9-x86_64_v3/gcc-11.2.1/nwchem-7.2.0-oxtctbuhfuzyfaoziquq6bki22grib3g/share/nwchem/libraries/>
  


 Summary of "ao basis" -> "" (cartesian)
 ------------------------------------------------------------------------------
       Tag                 Description            Shells   Functions and Types
 ---------------- ------------------------------  ------  ---------------------
 *                        aug-cc-pvdz                 on all atoms 


                      Basis "ao basis" -> "ao basis" (cartesian)
                      -----
  H (Hydrogen)
  ------------
            Exponent  Coefficients 
       -------------- ---------------------------------------------------------
  1 S  1.30100000E+01  0.019685
  1 S  1.96200000E+00  0.137977
  1 S  4.44600000E-01  0.478148

  2 S  1.22000000E-01  1.000000

  3 S  2.97400000E-02  1.000000

  4 P  7.27000000E-01  1.000000

  5 P  1.41000000E-01  1.000000

  C (Carbon)
  ----------
            Exponent  Coefficients 
       -------------- ---------------------------------------------------------
  1 S  6.66500000E+03  0.000692
  1 S  1.00000000E+03  0.005329
  1 S  2.28000000E+02  0.027077
  1 S  6.47100000E+01  0.101718
  1 S  2.10600000E+01  0.274740
  1 S  7.49500000E+00  0.448564
  1 S  2.79700000E+00  0.285074
  1 S  5.21500000E-01  0.015204

  2 S  6.66500000E+03 -0.000146
  2 S  1.00000000E+03 -0.001154
  2 S  2.28000000E+02 -0.005725
  2 S  6.47100000E+01 -0.023312
  2 S  2.10600000E+01 -0.063955
  2 S  7.49500000E+00 -0.149981
  2 S  2.79700000E+00 -0.127262
  2 S  5.21500000E-01  0.544529

  3 S  1.59600000E-01  1.000000

  4 S  4.69000000E-02  1.000000

  5 P  9.43900000E+00  0.038109
  5 P  2.00200000E+00  0.209480
  5 P  5.45600000E-01  0.508557

  6 P  1.51700000E-01  1.000000

  7 P  4.04100000E-02  1.000000

  8 D  5.50000000E-01  1.000000

  9 D  1.51000000E-01  1.000000

  O (Oxygen)
  ----------
            Exponent  Coefficients 
       -------------- ---------------------------------------------------------
  1 S  1.17200000E+04  0.000710
  1 S  1.75900000E+03  0.005470
  1 S  4.00800000E+02  0.027837
  1 S  1.13700000E+02  0.104800
  1 S  3.70300000E+01  0.283062
  1 S  1.32700000E+01  0.448719
  1 S  5.02500000E+00  0.270952
  1 S  1.01300000E+00  0.015458

  2 S  1.17200000E+04 -0.000160
  2 S  1.75900000E+03 -0.001263
  2 S  4.00800000E+02 -0.006267
  2 S  1.13700000E+02 -0.025716
  2 S  3.70300000E+01 -0.070924
  2 S  1.32700000E+01 -0.165411
  2 S  5.02500000E+00 -0.116955
  2 S  1.01300000E+00  0.557368

  3 S  3.02300000E-01  1.000000

  4 S  7.89600000E-02  1.000000

  5 P  1.77000000E+01  0.043018
  5 P  3.85400000E+00  0.228913
  5 P  1.04600000E+00  0.508728

  6 P  2.75300000E-01  1.000000

  7 P  6.85600000E-02  1.000000

  8 D  1.18500000E+00  1.000000

  9 D  3.32000000E-01  1.000000

  N (Nitrogen)
  ------------
            Exponent  Coefficients 
       -------------- ---------------------------------------------------------
  1 S  9.04600000E+03  0.000700
  1 S  1.35700000E+03  0.005389
  1 S  3.09300000E+02  0.027406
  1 S  8.77300000E+01  0.103207
  1 S  2.85600000E+01  0.278723
  1 S  1.02100000E+01  0.448540
  1 S  3.83800000E+00  0.278238
  1 S  7.46600000E-01  0.015440

  2 S  9.04600000E+03 -0.000153
  2 S  1.35700000E+03 -0.001208
  2 S  3.09300000E+02 -0.005992
  2 S  8.77300000E+01 -0.024544
  2 S  2.85600000E+01 -0.067459
  2 S  1.02100000E+01 -0.158078
  2 S  3.83800000E+00 -0.121831
  2 S  7.46600000E-01  0.549003

  3 S  2.24800000E-01  1.000000

  4 S  6.12400000E-02  1.000000

  5 P  1.35500000E+01  0.039919
  5 P  2.91700000E+00  0.217169
  5 P  7.97300000E-01  0.510319

  6 P  2.18500000E-01  1.000000

  7 P  5.61100000E-02  1.000000

  8 D  8.17000000E-01  1.000000

  9 D  2.30000000E-01  1.000000



 Summary of "ao basis" -> "ao basis" (cartesian)
 ------------------------------------------------------------------------------
       Tag                 Description            Shells   Functions and Types
 ---------------- ------------------------------  ------  ---------------------
 H                        aug-cc-pvdz                5        9   3s2p
 C                        aug-cc-pvdz                9       25   4s3p2d
 O                        aug-cc-pvdz                9       25   4s3p2d
 N                        aug-cc-pvdz                9       25   4s3p2d


                                 NWChem SCF Module
                                 -----------------



  ao basis        = "ao basis"
  functions       =   553
  atoms           =    33
  closed shells   =    61
  open shells     =     0
  charge          =   0.00
  wavefunction    = RHF 
  input vectors   = atomic
  output vectors  = ./ALA_PRO_4.movecs
  use symmetry    = F
  symmetry adapt  = F


 Summary of "ao basis" -> "ao basis" (cartesian)
 ------------------------------------------------------------------------------
       Tag                 Description            Shells   Functions and Types
 ---------------- ------------------------------  ------  ---------------------
 H                        aug-cc-pvdz                5        9   3s2p
 C                        aug-cc-pvdz                9       25   4s3p2d
 O                        aug-cc-pvdz                9       25   4s3p2d
 N                        aug-cc-pvdz                9       25   4s3p2d



 Forming initial guess at       1.1s


 !! The overlap matrix has   5 vectors deemed linearly dependent with
    eigenvalues:
 2.68D-06 3.22D-06 6.65D-06 7.92D-06 9.98D-06


      Superposition of Atomic Density Guess
      -------------------------------------

 Sum of atomic energies:        -772.36748674

      Non-variational initial energy
      ------------------------------

 Total energy =    -783.181680
 1-e energy   =   -3450.603269
 2-e energy   =    1458.406495
 HOMO         =      -0.289135
 LUMO         =       0.010045


 Starting SCF solution at     248.2s



 ----------------------------------------------
         Quadratically convergent ROHF

 Convergence threshold     :          1.000E-04
 Maximum no. of iterations :           30
 Final Fock-matrix accuracy:          1.000E-10
 ----------------------------------------------


              iter       energy          gnorm     gmax       time
             ----- ------------------- --------- --------- --------
                 1     -776.3074344615  2.42D+00  1.40D-01    541.4
                 2     -776.6191957795  8.32D-01  3.90D-02   1059.2
                 3     -776.6805786754  6.83D-02  4.68D-03   1867.3
                 4     -776.6812572511  4.47D-03  4.15D-04   2913.3
                 5     -776.6812611132  1.11D-05  7.05D-07   4731.7


       Final RHF  results 
       ------------------ 

         Total SCF energy =   -776.681261113177
      One-electron energy =  -3462.288243414207
      Two-electron energy =   1476.591889288242
 Nuclear repulsion energy =   1209.015093012788

        Time for solution =   4488.3s


             Final eigenvalues
             -----------------

              1      
    1  -20.5316
    2  -20.5301
    3  -20.5152
    4  -15.6068
    5  -15.6050
    6  -15.5810
    7  -11.3646
    8  -11.3612
    9  -11.3511
   10  -11.3065
   11  -11.2996
   12  -11.2720
   13  -11.2569
   14  -11.2491
   15  -11.2456
   16  -11.2436
   17   -1.3971
   18   -1.3855
   19   -1.3792
   20   -1.2745
   21   -1.2528
   22   -1.2074
   23   -1.0934
   24   -1.0646
   25   -1.0240
   26   -0.9989
   27   -0.9239
   28   -0.8798
   29   -0.8339
   30   -0.8096
   31   -0.8043
   32   -0.7641
   33   -0.7346
   34   -0.7237
   35   -0.6890
   36   -0.6781
   37   -0.6751
   38   -0.6493
   39   -0.6334
   40   -0.6217
   41   -0.6108
   42   -0.6002
   43   -0.5905
   44   -0.5880
   45   -0.5789
   46   -0.5761
   47   -0.5671
   48   -0.5533
   49   -0.5470
   50   -0.5338
   51   -0.5285
   52   -0.5076
   53   -0.4998
   54   -0.4953
   55   -0.4878
   56   -0.4332
   57   -0.4302
   58   -0.4253
   59   -0.4062
   60   -0.3963
   61   -0.3782
   62    0.0268
   63    0.0337
   64    0.0395
   65    0.0466
   66    0.0486
   67    0.0517
   68    0.0558
   69    0.0619
   70    0.0669
   71    0.0690

                       ROHF Final Molecular Orbital Analysis
                       -------------------------------------

 Vector   17  Occ=2.000000D+00  E=-1.397057D+00
              MO Center= -7.7D-02, -1.7D+00, -5.3D-01, r^2= 3.2D+00
   Bfn.  Coefficient  Atom+Function         Bfn.  Coefficient  Atom+Function  
  ----- ------------  ---------------      ----- ------------  ---------------
    80      0.287724   6 O  s                79      0.282630   6 O  s         
    54      0.203265   5 C  s               250      0.200618  16 O  s         
    12      0.198050   2 C  s               249      0.180920  16 O  s         

 Vector   18  Occ=2.000000D+00  E=-1.385496D+00
              MO Center=  2.8D-01, -6.3D-01, -4.0D-01, r^2= 5.2D+00
   Bfn.  Coefficient  Atom+Function         Bfn.  Coefficient  Atom+Function  
  ----- ------------  ---------------      ----- ------------  ---------------
   250      0.270494  16 O  s               249      0.251627  16 O  s         
    79     -0.202203   6 O  s                80     -0.202617   6 O  s         
   224      0.180229  15 C  s         

 Vector   19  Occ=2.000000D+00  E=-1.379217D+00
              MO Center= -1.7D+00,  1.3D+00,  3.0D-01, r^2= 3.9D+00
   Bfn.  Coefficient  Atom+Function         Bfn.  Coefficient  Atom+Function  
  ----- ------------  ---------------      ----- ------------  ---------------
   488      0.356528  30 O  s               487      0.323072  30 O  s         
   462      0.227098  29 C  s               250     -0.167920  16 O  s         

 Vector   20  Occ=2.000000D+00  E=-1.274451D+00
              MO Center=  7.7D-01,  1.0D+00, -2.7D-01, r^2= 2.4D+00
   Bfn.  Coefficient  Atom+Function         Bfn.  Coefficient  Atom+Function  
  ----- ------------  ---------------      ----- ------------  ---------------
   275      0.317076  17 N  s               274      0.303550  17 N  s         
   250     -0.216451  16 O  s               429     -0.191969  27 C  s         
   249     -0.178627  16 O  s               139      0.151120   9 C  s         

 Vector   21  Occ=2.000000D+00  E=-1.252816D+00
              MO Center=  7.2D-02, -2.3D+00,  3.9D-01, r^2= 1.7D+00
   Bfn.  Coefficient  Atom+Function         Bfn.  Coefficient  Atom+Function  
  ----- ------------  ---------------      ----- ------------  ---------------
   105      0.468198   7 N  s               104      0.344223   7 N  s         
    80     -0.216747   6 O  s                79     -0.182879   6 O  s         
   128      0.159373   8 H  s                59      0.154333   5 C  pz        

 Vector   22  Occ=2.000000D+00  E=-1.207385D+00
              MO Center= -2.0D+00,  8.9D-01, -4.8D-01, r^2= 1.5D+00
   Bfn.  Coefficient  Atom+Function         Bfn.  Coefficient  Atom+Function  
  ----- ------------  ---------------      ----- ------------  ---------------
   512      0.370226  31 N  s               513      0.356284  31 N  s         
   488     -0.208857  30 O  s               429     -0.200693  27 C  s         
   487     -0.175964  30 O  s               545      0.164446  33 H  s         
   464      0.163141  29 C  s               536      0.158380  32 H  s         
   467     -0.157098  29 C  pz        

 Vector   23  Occ=2.000000D+00  E=-1.093441D+00
              MO Center=  6.9D-01,  1.5D+00, -1.4D-02, r^2= 5.6D+00
   Bfn.  Coefficient  Atom+Function         Bfn.  Coefficient  Atom+Function  
  ----- ------------  ---------------      ----- ------------  ---------------
   385      0.202283  24 C  s               342      0.200112  21 C  s         

 Vector   24  Occ=2.000000D+00  E=-1.064576D+00
              MO Center=  4.2D-01, -7.3D-01,  7.7D-01, r^2= 7.2D+00
   Bfn.  Coefficient  Atom+Function         Bfn.  Coefficient  Atom+Function  
  ----- ------------  ---------------      ----- ------------  ---------------
   138      0.206448   9 C  s               172      0.205187  11 C  s         
   146      0.164619   9 C  pz        

 Vector   25  Occ=2.000000D+00  E=-1.024001D+00
              MO Center=  4.1D-01,  1.8D+00, -2.6D-01, r^2= 4.2D+00
   Bfn.  Coefficient  Atom+Function         Bfn.  Coefficient  Atom+Function  
  ----- ------------  ---------------      ----- ------------  ---------------
   428      0.255980  27 C  s               299     -0.230927  18 C  s         

 Vector   26  Occ=2.000000D+00  E=-9.989270D-01
              MO Center= -7.6D-02, -3.3D+00, -2.8D-02, r^2= 5.1D+00
   Bfn.  Coefficient  Atom+Function         Bfn.  Coefficient  Atom+Function  
  ----- ------------  ---------------      ----- ------------  ---------------
    11      0.319482   2 C  s                58     -0.164711   5 C  py        
   172      0.164281  11 C  s         

 Vector   27  Occ=2.000000D+00  E=-9.239440D-01
              MO Center=  7.4D-01,  5.3D-01,  5.4D-01, r^2= 6.5D+00
   Bfn.  Coefficient  Atom+Function         Bfn.  Coefficient  Atom+Function  
  ----- ------------  ---------------      ----- ------------  ---------------
   139      0.304741   9 C  s               146     -0.252178   9 C  pz        
   172     -0.189754  11 C  s               224      0.177973  15 C  s         
   278     -0.168268  17 N  py              231      0.162444  15 C  py        
   464     -0.162433  29 C  s               250     -0.155659  16 O  s         
   435      0.156026  27 C  py        

 Vector   28  Occ=2.000000D+00  E=-8.797583D-01
              MO Center=  3.6D-01,  3.0D-01,  4.5D-01, r^2= 8.0D+00
   Bfn.  Coefficient  Atom+Function         Bfn.  Coefficient  Atom+Function  
  ----- ------------  ---------------      ----- ------------  ---------------
   146      0.192012   9 C  pz              225      0.182401  15 C  s         
   138     -0.166857   9 C  s               172      0.159572  11 C  s         
   435      0.152157  27 C  py        

 Vector   29  Occ=2.000000D+00  E=-8.339088D-01
              MO Center=  1.3D-01,  9.6D-01, -9.4D-02, r^2= 9.2D+00
   Bfn.  Coefficient  Atom+Function         Bfn.  Coefficient  Atom+Function  
  ----- ------------  ---------------      ----- ------------  ---------------
   429      0.347385  27 C  s               343      0.251195  21 C  s         
    56     -0.214763   5 C  s               386     -0.203191  24 C  s         
   342      0.180143  21 C  s         

 Vector   30  Occ=2.000000D+00  E=-8.096094D-01
              MO Center=  3.6D-01,  4.5D-01, -1.0D-01, r^2= 9.3D+00
   Bfn.  Coefficient  Atom+Function         Bfn.  Coefficient  Atom+Function  
  ----- ------------  ---------------      ----- ------------  ---------------
   343      0.431623  21 C  s               300     -0.378800  18 C  s         
   386     -0.335464  24 C  s               434      0.195130  27 C  px        
   128      0.185068   8 H  s               109      0.177925   7 N  pz        

 Vector   31  Occ=2.000000D+00  E=-8.042975D-01
              MO Center= -4.7D-01, -2.9D-01,  5.3D-02, r^2= 7.1D+00
   Bfn.  Coefficient  Atom+Function         Bfn.  Coefficient  Atom+Function  
  ----- ------------  ---------------      ----- ------------  ---------------
   464      0.224654  29 C  s               434      0.215983  27 C  px        
   128     -0.202099   8 H  s               105     -0.198324   7 N  s         
   109     -0.186262   7 N  pz              343      0.169522  21 C  s         
   462     -0.169787  29 C  s               139      0.163250   9 C  s         
   300     -0.152669  18 C  s               107     -0.150392   7 N  px        

 Vector   32  Occ=2.000000D+00  E=-7.640679D-01
              MO Center= -4.0D-01,  9.2D-01, -3.0D-01, r^2= 5.5D+00
   Bfn.  Coefficient  Atom+Function         Bfn.  Coefficient  Atom+Function  
  ----- ------------  ---------------      ----- ------------  ---------------
   545     -0.191350  33 H  s               300     -0.187154  18 C  s         
   516      0.188031  31 N  py              517      0.181777  31 N  pz        
   275      0.178632  17 N  s               463      0.156018  29 C  s         
   513     -0.150765  31 N  s         

 Vector   33  Occ=2.000000D+00  E=-7.346203D-01
              MO Center= -7.4D-01,  4.7D-01, -2.2D-01, r^2= 5.9D+00
   Bfn.  Coefficient  Atom+Function         Bfn.  Coefficient  Atom+Function  
  ----- ------------  ---------------      ----- ------------  ---------------
   515      0.264779  31 N  px              545      0.236632  33 H  s         
   536     -0.183088  32 H  s               163      0.180633  10 H  s         

 Vector   34  Occ=2.000000D+00  E=-7.237000D-01
              MO Center=  4.5D-01, -4.7D-02,  2.9D-01, r^2= 5.8D+00
   Bfn.  Coefficient  Atom+Function         Bfn.  Coefficient  Atom+Function  
  ----- ------------  ---------------      ----- ------------  ---------------
   429      0.325506  27 C  s               225      0.297049  15 C  s         
   386     -0.257640  24 C  s               275     -0.207465  17 N  s         
   141     -0.192353   9 C  px              228      0.192039  15 C  py        
   145     -0.190702   9 C  py              243     -0.175648  15 C  dxy       
   435      0.165384  27 C  py              392      0.161757  24 C  py        

 Vector   35  Occ=2.000000D+00  E=-6.890276D-01
              MO Center=  1.6D-01, -2.0D+00,  1.6D-01, r^2= 6.4D+00
   Bfn.  Coefficient  Atom+Function         Bfn.  Coefficient  Atom+Function  
  ----- ------------  ---------------      ----- ------------  ---------------
   139      0.319630   9 C  s               464     -0.244988  29 C  s         
   145      0.223117   9 C  py               15      0.192291   2 C  py        
   108     -0.184541   7 N  py               18      0.180396   2 C  py        
   387      0.179393  24 C  s               231      0.176262  15 C  py        
    58     -0.173959   5 C  py              225     -0.170271  15 C  s         

 Vector   36  Occ=2.000000D+00  E=-6.780620D-01
              MO Center= -2.4D-01, -9.4D-01, -4.5D-01, r^2= 8.2D+00
   Bfn.  Coefficient  Atom+Function         Bfn.  Coefficient  Atom+Function  
  ----- ------------  ---------------      ----- ------------  ---------------
   139      0.249526   9 C  s                83      0.230284   6 O  py        
   300      0.223405  18 C  s               464     -0.223880  29 C  s         
    56     -0.211043   5 C  s                80      0.207792   6 O  s         
   343     -0.204244  21 C  s               226      0.175652  15 C  s         
    59      0.173582   5 C  pz              145      0.171022   9 C  py        

 Vector   37  Occ=2.000000D+00  E=-6.750769D-01
              MO Center= -3.7D-01,  7.6D-01, -3.6D-01, r^2= 8.1D+00
   Bfn.  Coefficient  Atom+Function         Bfn.  Coefficient  Atom+Function  
  ----- ------------  ---------------      ----- ------------  ---------------
   515      0.234039  31 N  px              536     -0.216207  32 H  s         
   300     -0.154667  18 C  s         

 Vector   38  Occ=2.000000D+00  E=-6.493088D-01
              MO Center= -1.7D-01,  7.8D-01, -5.2D-02, r^2= 8.1D+00
   Bfn.  Coefficient  Atom+Function         Bfn.  Coefficient  Atom+Function  
  ----- ------------  ---------------      ----- ------------  ---------------
   490      0.197060  30 O  px              343      0.191046  21 C  s         
   300     -0.174890  18 C  s               466      0.159813  29 C  py        
   488     -0.157948  30 O  s               304      0.155128  18 C  pz        

 Vector   39  Occ=2.000000D+00  E=-6.333707D-01
              MO Center=  3.7D-01, -5.9D-01, -1.3D-01, r^2= 9.3D+00
   Bfn.  Coefficient  Atom+Function         Bfn.  Coefficient  Atom+Function  
  ----- ------------  ---------------      ----- ------------  ---------------
   275      0.240174  17 N  s               252      0.230988  16 O  px        
   250      0.198452  16 O  s               490      0.167496  30 O  px        
   225     -0.160432  15 C  s               253     -0.152179  16 O  py        

 Vector   40  Occ=2.000000D+00  E=-6.216634D-01
              MO Center=  3.3D-01, -8.5D-01, -1.2D-01, r^2= 1.0D+01
   Bfn.  Coefficient  Atom+Function         Bfn.  Coefficient  Atom+Function  
  ----- ------------  ---------------      ----- ------------  ---------------
   139      0.237346   9 C  s               387      0.189021  24 C  s         
   252     -0.172327  16 O  px                1     -0.159932   1 H  s         
   464     -0.155470  29 C  s         

 Vector   41  Occ=2.000000D+00  E=-6.108482D-01
              MO Center= -2.2D-01,  2.1D-01, -2.4D-02, r^2= 1.2D+01
   Bfn.  Coefficient  Atom+Function         Bfn.  Coefficient  Atom+Function  
  ----- ------------  ---------------      ----- ------------  ---------------
   300      0.193904  18 C  s               301     -0.192199  18 C  s         
   276      0.159706  17 N  s                14     -0.154335   2 C  px        
   490      0.152166  30 O  px              429      0.150031  27 C  s         

 Vector   42  Occ=2.000000D+00  E=-6.001778D-01
              MO Center=  1.9D-01,  1.1D+00,  2.9D-02, r^2= 8.6D+00
   Bfn.  Coefficient  Atom+Function         Bfn.  Coefficient  Atom+Function  
  ----- ------------  ---------------      ----- ------------  ---------------
   139      0.292770   9 C  s               375     -0.180310  23 H  s         
   463      0.171286  29 C  s               163     -0.165496  10 H  s         
   464     -0.151968  29 C  s         

 Vector   43  Occ=2.000000D+00  E=-5.905221D-01
              MO Center=  1.4D-01, -6.3D-01,  2.4D-01, r^2= 1.1D+01
   Bfn.  Coefficient  Atom+Function         Bfn.  Coefficient  Atom+Function  
  ----- ------------  ---------------      ----- ------------  ---------------
   214      0.161712  14 H  s               177      0.157520  11 C  pz        
    58      0.151328   5 C  py        

 Vector   44  Occ=2.000000D+00  E=-5.879886D-01
              MO Center=  8.7D-02, -2.3D-02,  7.2D-01, r^2= 9.7D+00
   Bfn.  Coefficient  Atom+Function         Bfn.  Coefficient  Atom+Function  
  ----- ------------  ---------------      ----- ------------  ---------------
   176      0.236889  11 C  py              215      0.183588  14 H  s         
   214      0.181647  14 H  s               196     -0.175874  12 H  s         
   197     -0.169934  12 H  s                58      0.156776   5 C  py        
   463     -0.154395  29 C  s               434     -0.150603  27 C  px        

 Vector   45  Occ=2.000000D+00  E=-5.789435D-01
              MO Center= -1.2D-01, -2.3D+00, -1.8D-01, r^2= 9.1D+00
   Bfn.  Coefficient  Atom+Function         Bfn.  Coefficient  Atom+Function  
  ----- ------------  ---------------      ----- ------------  ---------------
    36      0.243179   3 H  s                35      0.216454   3 H  s         
    84     -0.196372   6 O  pz               14     -0.191606   2 C  px        
    16     -0.183328   2 C  pz              214      0.172635  14 H  s         
   215      0.169952  14 H  s               176      0.161620  11 C  py        
    44     -0.160668   4 H  s                82     -0.157242   6 O  px        

 Vector   46  Occ=2.000000D+00  E=-5.760663D-01
              MO Center=  3.5D-01,  7.1D-01,  2.5D-01, r^2= 8.4D+00
   Bfn.  Coefficient  Atom+Function         Bfn.  Coefficient  Atom+Function  
  ----- ------------  ---------------      ----- ------------  ---------------
   163      0.247385  10 H  s               333     -0.179211  20 H  s         
   196     -0.178298  12 H  s               389     -0.176791  24 C  py        
   432      0.171683  27 C  py        

 Vector   47  Occ=2.000000D+00  E=-5.671396D-01
              MO Center= -8.1D-01,  1.3D+00,  2.7D-01, r^2= 6.8D+00
   Bfn.  Coefficient  Atom+Function         Bfn.  Coefficient  Atom+Function  
  ----- ------------  ---------------      ----- ------------  ---------------
   492      0.271566  30 O  pz              466     -0.180076  29 C  py        
   495      0.176183  30 O  pz              517      0.167996  31 N  pz        
   465      0.165551  29 C  px        

 Vector   48  Occ=2.000000D+00  E=-5.532854D-01
              MO Center=  1.4D-01, -2.0D+00,  1.1D-01, r^2= 9.6D+00
   Bfn.  Coefficient  Atom+Function         Bfn.  Coefficient  Atom+Function  
  ----- ------------  ---------------      ----- ------------  ---------------
    16      0.279378   2 C  pz               35     -0.218991   3 H  s         
     1      0.189646   1 H  s                36     -0.188603   3 H  s         
   301     -0.184971  18 C  s               215      0.166533  14 H  s         
   108      0.151992   7 N  py        

 Vector   49  Occ=2.000000D+00  E=-5.470385D-01
              MO Center=  4.7D-01, -9.8D-01,  6.6D-01, r^2= 8.9D+00
   Bfn.  Coefficient  Atom+Function         Bfn.  Coefficient  Atom+Function  
  ----- ------------  ---------------      ----- ------------  ---------------
   163      0.247504  10 H  s               197     -0.214776  12 H  s         
   175      0.210152  11 C  px               55     -0.198366   5 C  s         
   196     -0.190570  12 H  s                12      0.189351   2 C  s         
   215      0.169364  14 H  s                14      0.159654   2 C  px        

 Vector   50  Occ=2.000000D+00  E=-5.337774D-01
              MO Center=  5.1D-01,  3.0D-01,  6.6D-01, r^2= 7.4D+00
   Bfn.  Coefficient  Atom+Function         Bfn.  Coefficient  Atom+Function  
  ----- ------------  ---------------      ----- ------------  ---------------
   163      0.274468  10 H  s               276      0.230392  17 N  s         
   205      0.195726  13 H  s               175      0.188758  11 C  px        
   367      0.186720  22 H  s               162      0.178822  10 H  s         
   429      0.178100  27 C  s               463     -0.173672  29 C  s         
   141     -0.169700   9 C  px              386     -0.167876  24 C  s         

 Vector   51  Occ=2.000000D+00  E=-5.285454D-01
              MO Center=  1.7D-01, -1.2D+00, -3.9D-02, r^2= 9.1D+00
   Bfn.  Coefficient  Atom+Function         Bfn.  Coefficient  Atom+Function  
  ----- ------------  ---------------      ----- ------------  ---------------
    82     -0.185701   6 O  px               14      0.181068   2 C  px        
    44      0.163556   4 H  s               177      0.163173  11 C  pz        

 Vector   52  Occ=2.000000D+00  E=-5.075847D-01
              MO Center= -8.9D-02,  7.7D-02, -4.5D-02, r^2= 9.5D+00
   Bfn.  Coefficient  Atom+Function         Bfn.  Coefficient  Atom+Function  
  ----- ------------  ---------------      ----- ------------  ---------------
   139      0.181608   9 C  s                82      0.169553   6 O  px        
   432     -0.170066  27 C  py              163      0.166731  10 H  s         
   173     -0.162477  11 C  s               230      0.161215  15 C  px        
   141     -0.157317   9 C  px              389      0.155931  24 C  py        
    84     -0.152207   6 O  pz        

 Vector   53  Occ=2.000000D+00  E=-4.998299D-01
              MO Center=  5.8D-01,  1.1D+00, -6.4D-02, r^2= 7.0D+00
   Bfn.  Coefficient  Atom+Function         Bfn.  Coefficient  Atom+Function  
  ----- ------------  ---------------      ----- ------------  ---------------
   346      0.192318  21 C  py              389     -0.189045  24 C  py        
   343      0.180288  21 C  s               432      0.179944  27 C  py        
   453     -0.173657  28 H  s               252      0.172271  16 O  px        
   433     -0.164160  27 C  pz              300     -0.160076  18 C  s         

 Vector   54  Occ=2.000000D+00  E=-4.952862D-01
              MO Center=  7.8D-01,  2.8D+00, -2.6D-01, r^2= 4.1D+00
   Bfn.  Coefficient  Atom+Function         Bfn.  Coefficient  Atom+Function  
  ----- ------------  ---------------      ----- ------------  ---------------
   419      0.342251  26 H  s               387     -0.311028  24 C  s         
   276      0.296085  17 N  s               376     -0.278979  23 H  s         
   347     -0.276991  21 C  pz              367      0.259470  22 H  s         
   390      0.259968  24 C  pz              375     -0.240489  23 H  s         
   410     -0.222619  25 H  s               409     -0.209096  25 H  s         

 Vector   55  Occ=2.000000D+00  E=-4.878250D-01
              MO Center=  9.3D-01,  2.4D+00, -5.0D-01, r^2= 4.4D+00
   Bfn.  Coefficient  Atom+Function         Bfn.  Coefficient  Atom+Function  
  ----- ------------  ---------------      ----- ------------  ---------------
   333      0.370427  20 H  s               388      0.309529  24 C  px        
   345     -0.300940  21 C  px              332      0.220105  20 H  s         
   303     -0.197844  18 C  py              348     -0.182551  21 C  px        
   302      0.176767  18 C  px              391      0.163084  24 C  px        

 Vector   56  Occ=2.000000D+00  E=-4.331663D-01
              MO Center= -3.8D-01, -1.7D+00, -5.1D-01, r^2= 5.5D+00
   Bfn.  Coefficient  Atom+Function         Bfn.  Coefficient  Atom+Function  
  ----- ------------  ---------------      ----- ------------  ---------------
    83      0.307830   6 O  py               84      0.307549   6 O  pz        
    87      0.250230   6 O  pz               86      0.247805   6 O  py        
   253      0.230389  16 O  py               18      0.201341   2 C  py        
   107      0.196697   7 N  px              256      0.192697  16 O  py        
    13     -0.168499   2 C  s                15      0.169124   2 C  py        

 Vector   57  Occ=2.000000D+00  E=-4.301863D-01
              MO Center=  5.2D-01, -1.4D+00, -4.5D-01, r^2= 5.0D+00
   Bfn.  Coefficient  Atom+Function         Bfn.  Coefficient  Atom+Function  
  ----- ------------  ---------------      ----- ------------  ---------------
   253      0.332437  16 O  py               83     -0.277222   6 O  py        
   256      0.263971  16 O  py              254     -0.228659  16 O  pz        
    86     -0.216797   6 O  py               82     -0.193632   6 O  px        
   109     -0.177113   7 N  pz              257     -0.175043  16 O  pz        
    85     -0.152222   6 O  px        

 Vector   58  Occ=2.000000D+00  E=-4.253288D-01
              MO Center= -1.4D+00,  1.5D+00,  2.6D-01, r^2= 5.4D+00
   Bfn.  Coefficient  Atom+Function         Bfn.  Coefficient  Atom+Function  
  ----- ------------  ---------------      ----- ------------  ---------------
   386      0.418480  24 C  s               490      0.336938  30 O  px        
   493      0.268756  30 O  px              453      0.247796  28 H  s         
   491      0.246634  30 O  py              492      0.240435  30 O  pz        
   301      0.229513  18 C  s               343     -0.215563  21 C  s         
   494      0.198459  30 O  py              495      0.190114  30 O  pz        

 Vector   59  Occ=2.000000D+00  E=-4.061672D-01
              MO Center= -1.5D-01, -1.3D+00,  2.3D-02, r^2= 5.5D+00
   Bfn.  Coefficient  Atom+Function         Bfn.  Coefficient  Atom+Function  
  ----- ------------  ---------------      ----- ------------  ---------------
   107      0.255071   7 N  px              109     -0.237694   7 N  pz        
   110      0.233156   7 N  px               82     -0.222099   6 O  px        
   112     -0.200779   7 N  pz               85     -0.181884   6 O  px        
   253     -0.167655  16 O  py              256     -0.153650  16 O  py        

 Vector   60  Occ=2.000000D+00  E=-3.962863D-01
              MO Center= -1.7D+00,  5.0D-01, -1.2D-01, r^2= 5.1D+00
   Bfn.  Coefficient  Atom+Function         Bfn.  Coefficient  Atom+Function  
  ----- ------------  ---------------      ----- ------------  ---------------
   516      0.295573  31 N  py              517     -0.267003  31 N  pz        
   519      0.255590  31 N  py              492      0.246362  30 O  pz        
   491     -0.245025  30 O  py              520     -0.234038  31 N  pz        
   494     -0.198879  30 O  py              495      0.192709  30 O  pz        
   464     -0.161793  29 C  s               107      0.151090   7 N  px        

 Vector   61  Occ=2.000000D+00  E=-3.782181D-01
              MO Center=  4.0D-01,  9.2D-01, -2.2D-01, r^2= 4.6D+00
   Bfn.  Coefficient  Atom+Function         Bfn.  Coefficient  Atom+Function  
  ----- ------------  ---------------      ----- ------------  ---------------
   279      0.296926  17 N  pz              282      0.270806  17 N  pz        
   277      0.269384  17 N  px              280      0.269839  17 N  px        
   276      0.215825  17 N  s               254     -0.200816  16 O  pz        
   490     -0.180976  30 O  px              468      0.178874  29 C  px        
   252     -0.176431  16 O  px              463      0.177103  29 C  s         

 Vector   62  Occ=0.000000D+00  E= 2.681394D-02
              MO Center=  9.4D-01, -2.8D+00,  2.8D+00, r^2= 2.4D+01
   Bfn.  Coefficient  Atom+Function         Bfn.  Coefficient  Atom+Function  
  ----- ------------  ---------------      ----- ------------  ---------------
   148      2.898011   9 C  py              198      2.067473  12 H  s         
   149     -1.847023   9 C  pz              301     -1.845135  18 C  s         
   438      1.766021  27 C  py                3      1.671837   1 H  s         
   173     -1.629907  11 C  s               344     -1.502230  21 C  s         
   284      1.484607  17 N  py               12     -1.436326   2 C  s         

 Vector   63  Occ=0.000000D+00  E= 3.370631D-02
              MO Center=  1.7D+00,  2.0D+00,  7.0D-01, r^2= 3.7D+01
   Bfn.  Coefficient  Atom+Function         Bfn.  Coefficient  Atom+Function  
  ----- ------------  ---------------      ----- ------------  ---------------
   464      4.717147  29 C  s               438      3.192502  27 C  py        
   387     -2.735461  24 C  s               216     -2.714204  14 H  s         
   148      2.258990   9 C  py               64      2.066623   5 C  py        
   368     -2.009422  22 H  s               454      1.976370  28 H  s         
   420     -1.950958  26 H  s               437      1.950903  27 C  px        

 Vector   64  Occ=0.000000D+00  E= 3.951042D-02
              MO Center=  3.5D-01,  2.2D-01, -8.8D-01, r^2= 4.2D+01
   Bfn.  Coefficient  Atom+Function         Bfn.  Coefficient  Atom+Function  
  ----- ------------  ---------------      ----- ------------  ---------------
   149      3.573918   9 C  pz              464     -3.283022  29 C  s         
   368      2.436053  22 H  s               301     -2.398111  18 C  s         
   438     -2.383211  27 C  py              514      2.219144  31 N  s         
    56      2.199240   5 C  s                12     -2.172794   2 C  s         
   276      1.958349  17 N  s                13     -1.844843   2 C  s         

 Vector   65  Occ=0.000000D+00  E= 4.657928D-02
              MO Center=  6.9D-01, -1.1D+00,  8.6D-01, r^2= 3.6D+01
   Bfn.  Coefficient  Atom+Function         Bfn.  Coefficient  Atom+Function  
  ----- ------------  ---------------      ----- ------------  ---------------
   464      3.233298  29 C  s               207      2.496726  13 H  s         
    46      2.371194   4 H  s               198     -2.369464  12 H  s         
   514     -2.147146  31 N  s               334      2.056878  20 H  s         
    64      1.846292   5 C  py              164     -1.531192  10 H  s         
   308     -1.395926  18 C  px              538     -1.322312  32 H  s         

 Vector   66  Occ=0.000000D+00  E= 4.861034D-02
              MO Center=  3.8D-01, -8.7D-01, -2.5D-01, r^2= 4.6D+01
   Bfn.  Coefficient  Atom+Function         Bfn.  Coefficient  Atom+Function  
  ----- ------------  ---------------      ----- ------------  ---------------
   216      2.652022  14 H  s                37      2.604044   3 H  s         
   368     -2.456333  22 H  s               198     -2.342472  12 H  s         
   387      2.157226  24 C  s               420      2.103375  26 H  s         
   377      2.087993  23 H  s               130     -2.023348   8 H  s         
    64      1.912652   5 C  py              106     -1.723348   7 N  s         

 Vector   67  Occ=0.000000D+00  E= 5.165622D-02
              MO Center= -6.8D-03,  4.2D-01, -4.1D-01, r^2= 4.3D+01
   Bfn.  Coefficient  Atom+Function         Bfn.  Coefficient  Atom+Function  
  ----- ------------  ---------------      ----- ------------  ---------------
   368      3.034872  22 H  s               420      2.608485  26 H  s         
   149      2.238736   9 C  pz              325     -2.197238  19 H  s         
   387      2.193077  24 C  s               437     -2.142536  27 C  px        
     3      2.126362   1 H  s               207     -1.954279  13 H  s         
   538     -1.927262  32 H  s               301      1.834855  18 C  s         

 Vector   68  Occ=0.000000D+00  E= 5.578813D-02
              MO Center=  1.2D+00,  9.7D-01,  1.1D-01, r^2= 4.2D+01
   Bfn.  Coefficient  Atom+Function         Bfn.  Coefficient  Atom+Function  
  ----- ------------  ---------------      ----- ------------  ---------------
   420     -3.130957  26 H  s               334      3.091257  20 H  s         
   464      3.074262  29 C  s               387     -2.729457  24 C  s         
   164      2.523611  10 H  s               411     -2.531575  25 H  s         
   234     -2.295849  15 C  py               46     -2.222536   4 H  s         
   395      1.983148  24 C  py                3      1.892176   1 H  s         

 Vector   69  Occ=0.000000D+00  E= 6.190358D-02
              MO Center= -6.2D-01, -8.0D-01,  4.6D-02, r^2= 4.2D+01
   Bfn.  Coefficient  Atom+Function         Bfn.  Coefficient  Atom+Function  
  ----- ------------  ---------------      ----- ------------  ---------------
   377      3.199305  23 H  s               198     -2.601842  12 H  s         
   538      2.465790  32 H  s               368     -2.439807  22 H  s         
   514      2.439278  31 N  s                56     -2.401774   5 C  s         
   148     -2.393057   9 C  py              216     -2.181077  14 H  s         
   276     -2.159758  17 N  s               207      2.031812  13 H  s         

 Vector   70  Occ=0.000000D+00  E= 6.691981D-02
              MO Center=  1.0D+00, -6.4D-01, -2.4D-01, r^2= 4.2D+01
   Bfn.  Coefficient  Atom+Function         Bfn.  Coefficient  Atom+Function  
  ----- ------------  ---------------      ----- ------------  ---------------
    56      6.022720   5 C  s                37      3.469443   3 H  s         
   207      3.206342  13 H  s               234      3.197632  15 C  py        
   368      2.916190  22 H  s               164     -2.855834  10 H  s         
   325     -2.770039  19 H  s               106     -2.690365   7 N  s         
   437     -2.545498  27 C  px               46     -2.413707   4 H  s         

 Vector   71  Occ=0.000000D+00  E= 6.904836D-02
              MO Center= -3.5D-01, -6.8D-01, -2.9D-01, r^2= 4.3D+01
   Bfn.  Coefficient  Atom+Function         Bfn.  Coefficient  Atom+Function  
  ----- ------------  ---------------      ----- ------------  ---------------
   325      4.448024  19 H  s               164     -4.252994  10 H  s         
     3      4.030068   1 H  s               368     -3.493334  22 H  s         
   216      3.451439  14 H  s                56     -3.136554   5 C  s         
   334     -2.369042  20 H  s               411      2.377693  25 H  s         
   464      2.202364  29 C  s               308      2.150315  18 C  px        

 Vector   72  Occ=0.000000D+00  E= 7.527568D-02
              MO Center= -1.3D-01, -3.5D-01, -4.9D-01, r^2= 4.3D+01
   Bfn.  Coefficient  Atom+Function         Bfn.  Coefficient  Atom+Function  
  ----- ------------  ---------------      ----- ------------  ---------------
   411      4.584188  25 H  s               420     -3.871401  26 H  s         
   216      3.717905  14 H  s               325     -3.430415  19 H  s         
    46      3.192607   4 H  s               301      3.110429  18 C  s         
    37     -3.053563   3 H  s               130     -2.910784   8 H  s         
    56     -2.846354   5 C  s               308     -2.720680  18 C  px        

 Vector   73  Occ=0.000000D+00  E= 7.667834D-02
              MO Center=  1.8D+00,  1.5D+00,  3.1D-01, r^2= 3.9D+01
   Bfn.  Coefficient  Atom+Function         Bfn.  Coefficient  Atom+Function  
  ----- ------------  ---------------      ----- ------------  ---------------
   377     -5.329457  23 H  s               334      5.219305  20 H  s         
   420      4.764724  26 H  s               207      3.728391  13 H  s         
   301     -3.671027  18 C  s                13      3.398265   2 C  s         
    56     -3.118132   5 C  s               149     -3.053827   9 C  pz        
   464      2.750891  29 C  s               174      2.581723  11 C  s         

 Vector   74  Occ=0.000000D+00  E= 8.147434D-02
              MO Center=  3.5D-01,  1.8D+00,  3.2D-01, r^2= 4.0D+01
   Bfn.  Coefficient  Atom+Function         Bfn.  Coefficient  Atom+Function  
  ----- ------------  ---------------      ----- ------------  ---------------
   411      6.177587  25 H  s               368     -5.543814  22 H  s         
   198      4.879011  12 H  s               377      4.207412  23 H  s         
   438     -3.539192  27 C  py              216     -3.245298  14 H  s         
   353     -2.890008  21 C  pz              396      2.666820  24 C  pz        
   164     -2.450246  10 H  s               334      2.279877  20 H  s         

 Vector   75  Occ=0.000000D+00  E= 8.831082D-02
              MO Center= -8.7D-01, -6.3D-01,  1.1D+00, r^2= 3.3D+01
   Bfn.  Coefficient  Atom+Function         Bfn.  Coefficient  Atom+Function  
  ----- ------------  ---------------      ----- ------------  ---------------
   164     11.721928  10 H  s               387     -5.790709  24 C  s         
   148     -5.147560   9 C  py               56     -5.068606   5 C  s         
   234      4.879384  15 C  py              147      4.836805   9 C  px        
   283     -3.704517  17 N  px              207      3.458739  13 H  s         
   334     -3.312379  20 H  s               216     -3.054937  14 H  s         

 Vector   76  Occ=0.000000D+00  E= 9.139092D-02
              MO Center=  4.2D-01, -4.5D-01,  7.9D-01, r^2= 4.1D+01
   Bfn.  Coefficient  Atom+Function         Bfn.  Coefficient  Atom+Function  
  ----- ------------  ---------------      ----- ------------  ---------------
   454      9.628792  28 H  s               420     -5.342210  26 H  s         
   130      5.108276   8 H  s               439     -5.108401  27 C  pz        
    56      4.839776   5 C  s               411      4.843456  25 H  s         
    37      3.536075   3 H  s               396      3.434090  24 C  pz        
   430     -3.403886  27 C  s               149      3.252059   9 C  pz        

 Vector   77  Occ=0.000000D+00  E= 9.986231D-02
              MO Center= -9.0D-03, -1.4D-01, -8.9D-02, r^2= 4.0D+01
   Bfn.  Coefficient  Atom+Function         Bfn.  Coefficient  Atom+Function  
  ----- ------------  ---------------      ----- ------------  ---------------
    56     11.808033   5 C  s               216     -9.467313  14 H  s         
   387      9.223176  24 C  s               454      8.342008  28 H  s         
   464     -8.049940  29 C  s               344     -7.227546  21 C  s         
   325      5.548164  19 H  s               547     -5.550383  33 H  s         
   207      4.036026  13 H  s               438     -3.911380  27 C  py        

 Vector   78  Occ=0.000000D+00  E= 1.078429D-01
              MO Center= -3.5D-01,  4.0D-01, -7.0D-01, r^2= 3.5D+01
   Bfn.  Coefficient  Atom+Function         Bfn.  Coefficient  Atom+Function  
  ----- ------------  ---------------      ----- ------------  ---------------
   454     11.539078  28 H  s               464     -8.948699  29 C  s         
   547      8.861432  33 H  s               216     -8.746557  14 H  s         
   301      6.709529  18 C  s               387      6.680942  24 C  s         
    13     -5.516638   2 C  s                56      5.292597   5 C  s         
   174     -5.129218  11 C  s               325     -4.758869  19 H  s         

 Vector   79  Occ=0.000000D+00  E= 1.162775D-01
              MO Center=  2.1D-01,  7.2D-01,  1.5D+00, r^2= 3.3D+01
   Bfn.  Coefficient  Atom+Function         Bfn.  Coefficient  Atom+Function  
  ----- ------------  ---------------      ----- ------------  ---------------
   464     24.878796  29 C  s               387    -17.486637  24 C  s         
   174     12.861406  11 C  s               344     12.015850  21 C  s         
   514    -11.309043  31 N  s               454     11.189800  28 H  s         
   164    -10.827189  10 H  s                56     -9.520543   5 C  s         
   216     -9.082643  14 H  s                13      7.147439   2 C  s         

 Vector   80  Occ=0.000000D+00  E= 1.264236D-01
              MO Center=  3.8D-01, -1.6D+00,  7.1D-01, r^2= 3.3D+01
   Bfn.  Coefficient  Atom+Function         Bfn.  Coefficient  Atom+Function  
  ----- ------------  ---------------      ----- ------------  ---------------
    56     13.153098   5 C  s               149      8.758206   9 C  pz        
   454     -7.181279  28 H  s               284     -6.691253  17 N  py        
    13     -6.242889   2 C  s               174     -5.909713  11 C  s         
   439      4.813900  27 C  pz               21     -4.610139   2 C  py        
   344      4.372752  21 C  s               226     -4.291373  15 C  s         

 Vector   81  Occ=0.000000D+00  E= 1.316059D-01
              MO Center= -2.4D-01,  7.6D-01,  1.3D-01, r^2= 3.2D+01
   Bfn.  Coefficient  Atom+Function         Bfn.  Coefficient  Atom+Function  
  ----- ------------  ---------------      ----- ------------  ---------------
   464     14.113456  29 C  s                56    -10.242828   5 C  s         
   344     -9.746630  21 C  s               387     -8.711044  24 C  s         
   149     -7.975707   9 C  pz              438      7.026361  27 C  py        
   514     -7.038390  31 N  s               471      6.757283  29 C  px        
   164      5.808367  10 H  s               283      4.862054  17 N  px        

 Vector   82  Occ=0.000000D+00  E= 1.350180D-01
              MO Center= -4.2D-02,  4.5D-01,  9.4D-02, r^2= 3.3D+01
   Bfn.  Coefficient  Atom+Function         Bfn.  Coefficient  Atom+Function  
  ----- ------------  ---------------      ----- ------------  ---------------
   387     14.940111  24 C  s               438     -8.776344  27 C  py        
   301     -6.381664  18 C  s                56      5.356978   5 C  s         
   284     -4.600603  17 N  py              148     -4.207024   9 C  py        
   106     -4.123249   7 N  s               395     -3.864292  24 C  py        
   283      3.718893  17 N  px              140     -3.519665   9 C  s         

 Vector   83  Occ=0.000000D+00  E= 1.383255D-01
              MO Center=  1.1D+00,  2.0D+00,  1.2D+00, r^2= 2.7D+01
   Bfn.  Coefficient  Atom+Function         Bfn.  Coefficient  Atom+Function  
  ----- ------------  ---------------      ----- ------------  ---------------
   344     13.519353  21 C  s               301    -10.740646  18 C  s         
   352     -6.548926  21 C  py              430     -5.964603  27 C  s         
   148     -4.755801   9 C  py               56     -4.657947   5 C  s         
   309     -3.523234  18 C  py              368      3.424701  22 H  s         
   140     -3.314208   9 C  s               276      3.287869  17 N  s         

 Vector   84  Occ=0.000000D+00  E= 1.406990D-01
              MO Center=  8.8D-01,  4.4D-01, -3.6D-01, r^2= 3.4D+01
   Bfn.  Coefficient  Atom+Function         Bfn.  Coefficient  Atom+Function  
  ----- ------------  ---------------      ----- ------------  ---------------
   344     11.705792  21 C  s               438     -9.068160  27 C  py        
   234     -7.085245  15 C  py              301      6.711451  18 C  s         
   437     -6.271126  27 C  px              473     -6.213945  29 C  pz        
   106     -5.824830   7 N  s               351     -5.472915  21 C  px        
   514     -5.373568  31 N  s               148     -4.953924   9 C  py        

 Vector   85  Occ=0.000000D+00  E= 1.456012D-01
              MO Center= -4.4D-01,  1.2D+00, -8.9D-01, r^2= 2.7D+01
   Bfn.  Coefficient  Atom+Function         Bfn.  Coefficient  Atom+Function  
  ----- ------------  ---------------      ----- ------------  ---------------
   344      9.697720  21 C  s               301     -8.314872  18 C  s         
   438     -6.793918  27 C  py              148     -6.082882   9 C  py        
   276      5.518646  17 N  s               514      5.406683  31 N  s         
   430     -5.347809  27 C  s               235      5.212888  15 C  pz        
   234     -4.888075  15 C  py              471      4.610216  29 C  px        

 Vector   86  Occ=0.000000D+00  E= 1.519277D-01
              MO Center=  3.6D-01, -4.4D-01,  7.8D-02, r^2= 3.3D+01
   Bfn.  Coefficient  Atom+Function         Bfn.  Coefficient  Atom+Function  
  ----- ------------  ---------------      ----- ------------  ---------------
   301     16.396705  18 C  s               344    -12.854193  21 C  s         
   276     -8.789277  17 N  s               226      7.474405  15 C  s         
   148     -7.340758   9 C  py              106     -7.024463   7 N  s         
   514      6.749156  31 N  s               234     -5.918815  15 C  py        
   235      5.623615  15 C  pz              352      5.650695  21 C  py        

 Vector   87  Occ=0.000000D+00  E= 1.528042D-01
              MO Center=  4.6D-01, -8.4D-01,  1.9D-01, r^2= 3.5D+01
   Bfn.  Coefficient  Atom+Function         Bfn.  Coefficient  Atom+Function  
  ----- ------------  ---------------      ----- ------------  ---------------
   301      9.334555  18 C  s               454      6.729064  28 H  s         
[...]
   Bfn.  Coefficient  Atom+Function         Bfn.  Coefficient  Atom+Function  
  ----- ------------  ---------------      ----- ------------  ---------------
   464    -15.507884  29 C  s               226     15.007360  15 C  s         
    56     -8.941154   5 C  s               344     -7.900384  21 C  s         
   148     -7.750980   9 C  py               12      7.080511   2 C  s         
   514      6.829671  31 N  s               367      6.383868  22 H  s         
    45     -5.939466   4 H  s               343     -5.712187  21 C  s         

 Vector  156  Occ=0.000000D+00  E= 4.380780D-01
              MO Center= -1.5D-01, -4.6D-01, -2.5D-01, r^2= 2.3D+01
   Bfn.  Coefficient  Atom+Function         Bfn.  Coefficient  Atom+Function  
  ----- ------------  ---------------      ----- ------------  ---------------
   301     15.735270  18 C  s               464    -14.630859  29 C  s         
   514     12.250528  31 N  s               276     -9.175079  17 N  s         
   344     -8.380574  21 C  s               235     -8.181961  15 C  pz        
   226      8.078340  15 C  s               283     -6.588547  17 N  px        
   300      5.631429  18 C  s               353      5.564764  21 C  pz        

 Vector  157  Occ=0.000000D+00  E= 4.400275D-01
              MO Center=  3.2D-01, -7.7D-01, -1.2D-01, r^2= 2.3D+01
   Bfn.  Coefficient  Atom+Function         Bfn.  Coefficient  Atom+Function  
  ----- ------------  ---------------      ----- ------------  ---------------
    56     11.539224   5 C  s               344     -9.839979  21 C  s         
   283      7.012541  17 N  px              301      6.506303  18 C  s         
    12     -6.220150   2 C  s               114      6.031426   7 N  py        
   439      5.462811  27 C  pz              106     -4.928982   7 N  s         
    36      4.864363   3 H  s               396     -4.797269  24 C  pz        

 Vector  158  Occ=0.000000D+00  E= 4.425588D-01
              MO Center=  1.6D-01,  3.0D-01,  2.3D-01, r^2= 1.8D+01
   Bfn.  Coefficient  Atom+Function         Bfn.  Coefficient  Atom+Function  
  ----- ------------  ---------------      ----- ------------  ---------------
   514     13.628414  31 N  s               283      9.171059  17 N  px        
   234     -7.510903  15 C  py              344     -7.149108  21 C  s         
   387      6.591601  24 C  s               464     -6.487024  29 C  s         
   285     -5.506895  17 N  pz               64     -5.181574   5 C  py        
   148      4.914830   9 C  py              521      4.671513  31 N  px        

 Vector  159  Occ=0.000000D+00  E= 4.442445D-01
              MO Center= -5.8D-01, -1.3D+00, -4.4D-01, r^2= 2.5D+01
   Bfn.  Coefficient  Atom+Function         Bfn.  Coefficient  Atom+Function  
  ----- ------------  ---------------      ----- ------------  ---------------
   301     14.639463  18 C  s               438     13.314155  27 C  py        
   386     12.693491  24 C  s               344    -10.639380  21 C  s         
   387     -9.827987  24 C  s               234     -7.876237  15 C  py        
   148      7.728650   9 C  py               12     -7.118698   2 C  s         
   410     -6.963386  25 H  s                 2      6.845031   1 H  s         

 Vector  160  Occ=0.000000D+00  E= 4.467480D-01
              MO Center=  1.5D-01,  9.6D-01, -8.3D-02, r^2= 1.8D+01
   Bfn.  Coefficient  Atom+Function         Bfn.  Coefficient  Atom+Function  
  ----- ------------  ---------------      ----- ------------  ---------------
    56     19.089423   5 C  s               149     12.502483   9 C  pz        
   226    -11.949359  15 C  s               174    -11.331395  11 C  s         
   387     10.558692  24 C  s               301    -10.360201  18 C  s         
   140     -9.888083   9 C  s               276      9.838208  17 N  s         
   438     -9.719728  27 C  py               13     -9.358155   2 C  s         

 Vector  161  Occ=0.000000D+00  E= 4.487516D-01
              MO Center=  1.0D-02,  6.1D-01,  4.0D-03, r^2= 1.9D+01
   Bfn.  Coefficient  Atom+Function         Bfn.  Coefficient  Atom+Function  
  ----- ------------  ---------------      ----- ------------  ---------------
   514    -14.645483  31 N  s               234     13.439402  15 C  py        
   387    -11.775521  24 C  s               344    -10.408328  21 C  s         
   464     10.182807  29 C  s               148     -9.172976   9 C  py        
   174      7.937777  11 C  s               301      7.489269  18 C  s         
   439     -7.127193  27 C  pz              173      6.453804  11 C  s         

 Vector  162  Occ=0.000000D+00  E= 4.557061D-01
              MO Center= -2.3D-01, -2.2D-01,  2.0D-01, r^2= 1.8D+01
   Bfn.  Coefficient  Atom+Function         Bfn.  Coefficient  Atom+Function  
  ----- ------------  ---------------      ----- ------------  ---------------
   276     26.715350  17 N  s               464    -16.291999  29 C  s         
    56     12.637488   5 C  s               149     10.397834   9 C  pz        
   514     10.033179  31 N  s               439      9.965192  27 C  pz        
   174     -8.963117  11 C  s               106      8.302840   7 N  s         
   301     -8.176998  18 C  s               438      7.290134  27 C  py        

 Vector  163  Occ=0.000000D+00  E= 4.596723D-01
              MO Center=  1.6D-01, -5.0D-01,  4.2D-01, r^2= 2.0D+01
   Bfn.  Coefficient  Atom+Function         Bfn.  Coefficient  Atom+Function  
  ----- ------------  ---------------      ----- ------------  ---------------
   464     14.351914  29 C  s               438     12.047397  27 C  py        
   148     10.595287   9 C  py              173      8.240485  11 C  s         
   301     -8.252659  18 C  s               387     -8.271468  24 C  s         
   206     -8.170773  13 H  s               283      8.131355  17 N  px        
   386      7.855193  24 C  s               453      5.635146  28 H  s         

 Vector  164  Occ=0.000000D+00  E= 4.629858D-01
              MO Center=  3.5D-01,  1.0D+00, -8.3D-02, r^2= 1.9D+01
   Bfn.  Coefficient  Atom+Function         Bfn.  Coefficient  Atom+Function  
  ----- ------------  ---------------      ----- ------------  ---------------
    56     12.620711   5 C  s               344    -10.844323  21 C  s         
   148      9.958268   9 C  py              438      9.260463  27 C  py        
   276      8.601259  17 N  s               514      8.577536  31 N  s         
   149      8.015868   9 C  pz              106      6.210613   7 N  s         
   301     -6.206360  18 C  s               386      5.775768  24 C  s         

 Vector  165  Occ=0.000000D+00  E= 4.693519D-01
              MO Center=  2.1D-01,  6.5D-01, -1.0D-01, r^2= 2.0D+01
   Bfn.  Coefficient  Atom+Function         Bfn.  Coefficient  Atom+Function  
  ----- ------------  ---------------      ----- ------------  ---------------
   301     30.537926  18 C  s               438    -23.198613  27 C  py        
    13    -19.605035   2 C  s               148    -19.606541   9 C  py        
   174    -13.710315  11 C  s                64    -11.272572   5 C  py        
   284    -10.195563  17 N  py              387     10.080644  24 C  s         
   285      9.714641  17 N  pz              396      9.387953  24 C  pz        

 Vector  166  Occ=0.000000D+00  E= 4.783797D-01
              MO Center=  1.0D+00,  6.4D-01,  7.1D-01, r^2= 1.7D+01
   Bfn.  Coefficient  Atom+Function         Bfn.  Coefficient  Atom+Function  
  ----- ------------  ---------------      ----- ------------  ---------------
   344     29.604084  21 C  s               464     19.635397  29 C  s         
   226    -18.465646  15 C  s               276     14.144098  17 N  s         
    56     13.735619   5 C  s               387    -12.984656  24 C  s         
   430    -12.092109  27 C  s               301    -10.933391  18 C  s         
   140     -9.697202   9 C  s               163      7.577017  10 H  s         

 Vector  167  Occ=0.000000D+00  E= 4.813410D-01
              MO Center=  5.2D-01,  3.8D-01,  7.2D-02, r^2= 1.9D+01
   Bfn.  Coefficient  Atom+Function         Bfn.  Coefficient  Atom+Function  
  ----- ------------  ---------------      ----- ------------  ---------------
   464    -18.702887  29 C  s               387     17.045996  24 C  s         
   226      9.190280  15 C  s                56      8.258158   5 C  s         
   174     -7.896360  11 C  s               343     -7.666299  21 C  s         
   344     -6.910458  21 C  s               173      6.631813  11 C  s         
   367      6.662465  22 H  s               276     -6.523035  17 N  s         

 Vector  168  Occ=0.000000D+00  E= 4.824112D-01
              MO Center= -1.6D-01,  5.6D-01,  2.9D-01, r^2= 1.9D+01
   Bfn.  Coefficient  Atom+Function         Bfn.  Coefficient  Atom+Function  
  ----- ------------  ---------------      ----- ------------  ---------------
   387     18.177852  24 C  s               344    -14.290366  21 C  s         
   174    -11.792743  11 C  s                56     11.415926   5 C  s         
   430     11.050657  27 C  s                13    -10.058251   2 C  s         
   301      9.608819  18 C  s               235      6.679410  15 C  pz        
   410     -6.264643  25 H  s               453     -6.243772  28 H  s         

 Vector  169  Occ=0.000000D+00  E= 4.847794D-01
              MO Center=  3.4D-01,  6.4D-01,  5.3D-02, r^2= 1.8D+01
   Bfn.  Coefficient  Atom+Function         Bfn.  Coefficient  Atom+Function  
  ----- ------------  ---------------      ----- ------------  ---------------
    56     16.829410   5 C  s               344    -16.268854  21 C  s         
   464     14.605369  29 C  s               514    -10.781038  31 N  s         
   235     -9.486659  15 C  pz              429     -8.633932  27 C  s         
   149      7.774640   9 C  pz              164     -7.764006  10 H  s         
   386      7.785360  24 C  s               309      7.383085  18 C  py        

 Vector  170  Occ=0.000000D+00  E= 4.911077D-01
              MO Center=  9.2D-01,  1.9D-01,  4.3D-01, r^2= 1.9D+01
   Bfn.  Coefficient  Atom+Function         Bfn.  Coefficient  Atom+Function  
  ----- ------------  ---------------      ----- ------------  ---------------
   301     15.838195  18 C  s               344    -11.562226  21 C  s         
   234     -9.261182  15 C  py              148     -7.355486   9 C  py        
   115     -6.772546   7 N  pz              106     -6.632369   7 N  s         
   114     -6.562367   7 N  py              387     -6.041909  24 C  s         
   276     -5.974137  17 N  s               284      5.762277  17 N  py        

 Vector  171  Occ=0.000000D+00  E= 4.928027D-01
              MO Center= -8.0D-02,  1.8D+00, -9.8D-02, r^2= 1.7D+01
   Bfn.  Coefficient  Atom+Function         Bfn.  Coefficient  Atom+Function  
  ----- ------------  ---------------      ----- ------------  ---------------
   148     11.494735   9 C  py              344    -10.676203  21 C  s         
    56     10.303062   5 C  s               464     -9.926838  29 C  s         
   284      9.121892  17 N  py              396      7.249466  24 C  pz        
   115      7.111932   7 N  pz               12     -6.894936   2 C  s         
   439     -6.922062  27 C  pz              472      6.865903  29 C  py        

 Vector  172  Occ=0.000000D+00  E= 5.006097D-01
              MO Center=  7.5D-01, -2.1D-02,  6.0D-03, r^2= 1.9D+01
   Bfn.  Coefficient  Atom+Function         Bfn.  Coefficient  Atom+Function  
  ----- ------------  ---------------      ----- ------------  ---------------
    56     24.360161   5 C  s               344     21.398424  21 C  s         
   387     12.876209  24 C  s               226    -11.564125  15 C  s         
   149     11.353512   9 C  pz              174    -10.978340  11 C  s         
   430     -9.636274  27 C  s               140     -9.397609   9 C  s         
   309     -8.599496  18 C  py              284     -7.066980  17 N  py        


 center of mass
 --------------
 x =  -0.04085120 y =   0.00111633 z =  -0.02583855

 moments of inertia (a.u.)
 ------------------
        4776.253461146910          -0.000000000000          -0.000000000000
          -0.000000000000        2249.214807920614          -0.000000000001
          -0.000000000000          -0.000000000001        5549.961871990025

  Mulliken analysis of the total density
  --------------------------------------

    Atom       Charge   Shell Charges
 -----------   ------   -------------------------------------------------------
    1 H    1     0.85   0.76  0.12 -0.00  0.03 -0.07
    2 C    6     6.25   2.01  0.66  0.25  0.09  2.07  1.01  0.00  0.06  0.10
    3 H    1     1.00   0.76  0.26  0.01  0.03 -0.05
    4 H    1     0.85   0.76  0.12 -0.00  0.03 -0.06
    5 C    6     5.10   2.01  0.68  0.09 -0.08  1.89  0.30 -0.02  0.24 -0.01
    6 O    8     8.80   2.01  0.82  0.99  0.17  2.80  1.85  0.18  0.01 -0.01
    7 N    7     7.87   2.01  0.72  0.92  0.02  2.45  1.45  0.17  0.05  0.08
    8 H    1     0.96   0.77  0.19 -0.01  0.05 -0.05
    9 C    6     6.39   2.01  0.66  0.25 -0.02  2.00  1.16 -0.03  0.14  0.23
   10 H    1     1.18   0.79  0.33 -0.01  0.03  0.04
   11 C    6     5.45   2.01  0.66  0.22  0.01  2.04  0.49 -0.03  0.07 -0.01
   12 H    1     0.90   0.77  0.20 -0.01  0.03 -0.10
   13 H    1     0.89   0.77  0.18  0.00  0.03 -0.09
   14 H    1     1.01   0.77  0.25  0.02  0.03 -0.07
   15 C    6     4.56   2.01  0.68 -0.02  0.09  1.88  0.23 -0.12  0.23 -0.42
   16 O    8     8.92   2.01  0.82  1.06  0.19  2.78  1.88  0.17  0.01  0.01
   17 N    7     7.45   2.01  0.71  0.72 -0.08  2.43  1.60 -0.09  0.06  0.07
   18 C    6     6.03   2.01  0.67  0.48  0.12  2.01  0.54  0.01  0.12  0.07
   19 H    1     0.91   0.79  0.15 -0.00  0.03 -0.05
   20 H    1     1.05   0.78  0.36 -0.02  0.03 -0.10
   21 C    6     5.92   2.01  0.66  0.30 -0.01  2.04  0.75  0.06  0.09  0.01
   22 H    1     0.93   0.78  0.23  0.01  0.03 -0.12
   23 H    1     0.93   0.79  0.22 -0.02  0.03 -0.09
   24 C    6     6.31   2.01  0.66  0.42  0.06  2.04  0.82  0.03  0.09  0.17
   25 H    1     0.91   0.79  0.20 -0.02  0.03 -0.08
   26 H    1     0.84   0.78  0.15  0.00  0.03 -0.12
   27 C    6     6.31   2.01  0.67  0.13  0.04  2.00  1.10  0.15  0.14  0.08
   28 H    1     1.06   0.79  0.21 -0.00  0.03  0.03
   29 C    6     4.52   2.01  0.68  0.06 -0.13  1.89 -0.13 -0.02  0.24 -0.08
   30 O    8     8.89   2.01  0.82  1.05  0.20  2.79  1.85  0.15  0.01  0.00
   31 N    7     7.18   2.01  0.72  0.79 -0.16  2.46  1.26  0.08  0.04 -0.02
   32 H    1     0.99   0.75  0.21 -0.01  0.05 -0.02
   33 H    1     0.78   0.74  0.09 -0.02  0.06 -0.09

       Multipole analysis of the density wrt the origin
       ------------------------------------------------

     L   x y z        total         open         nuclear
     -   - - -        -----         ----         -------
     0   0 0 0      0.000000      0.000000    122.000000

     1   1 0 0      1.060835      0.000000     -0.000000
     1   0 1 0     -0.587821      0.000000     -0.000000
     1   0 0 1      0.678537      0.000000      0.000000

     2   2 0 0    -83.246839      0.000000    818.465242
     2   1 1 0      8.230596      0.000000     27.177431
     2   1 0 1      6.677830      0.000000     14.724767
     2   0 2 0    -60.624836      0.000000   2280.476414
     2   0 1 1     -8.041530      0.000000    -16.501574
     2   0 0 2    -70.164433      0.000000    444.647653


 Task  times  cpu:     4736.8s     wall:     5082.8s


                                NWChem Input Module
                                -------------------


 Summary of allocated global arrays
-----------------------------------
  No active global arrays


MA_summarize_allocated_blocks: starting scan ...
MA_summarize_allocated_blocks: scan completed: 0 heap blocks, 0 stack blocks
MA usage statistics:

	allocation statistics:
					      heap	     stack
					      ----	     -----
	current number of blocks	         0	         0
	maximum number of blocks	        16	        14
	current total bytes		         0	         0
	maximum total bytes		    116936	  26223320
	maximum total K-bytes		       117	     26224
	maximum total M-bytes		         1	        27


                                     CITATION
                                     --------
                Please cite the following reference when publishing
                           results obtained with NWChem:

          E. Apra, E. J. Bylaska, W. A. de Jong, N. Govind, K. Kowalski,
       T. P. Straatsma, M. Valiev, H. J. J. van Dam, Y. Alexeev, J. Anchell,
       V. Anisimov, F. W. Aquino, R. Atta-Fynn, J. Autschbach, N. P. Bauman,
     J. C. Becca, D. E. Bernholdt, K. Bhaskaran-Nair, S. Bogatko, P. Borowski,
         J. Boschen, J. Brabec, A. Bruner, E. Cauet, Y. Chen, G. N. Chuev,
      C. J. Cramer, J. Daily, M. J. O. Deegan, T. H. Dunning Jr., M. Dupuis,
   K. G. Dyall, G. I. Fann, S. A. Fischer, A. Fonari, H. Fruchtl, L. Gagliardi,
      J. Garza, N. Gawande, S. Ghosh, K. Glaesemann, A. W. Gotz, J. Hammond,
       V. Helms, E. D. Hermes, K. Hirao, S. Hirata, M. Jacquelin, L. Jensen,
   B. G. Johnson, H. Jonsson, R. A. Kendall, M. Klemm, R. Kobayashi, V. Konkov,
      S. Krishnamoorthy, M. Krishnan, Z. Lin, R. D. Lins, R. J. Littlefield,
      A. J. Logsdail, K. Lopata, W. Ma, A. V. Marenich, J. Martin del Campo,
   D. Mejia-Rodriguez, J. E. Moore, J. M. Mullin, T. Nakajima, D. R. Nascimento,
    J. A. Nichols, P. J. Nichols, J. Nieplocha, A. Otero-de-la-Roza, B. Palmer,
    A. Panyala, T. Pirojsirikul, B. Peng, R. Peverati, J. Pittner, L. Pollack,
   R. M. Richard, P. Sadayappan, G. C. Schatz, W. A. Shelton, D. W. Silverstein,
   D. M. A. Smith, T. A. Soares, D. Song, M. Swart, H. L. Taylor, G. S. Thomas,
            V. Tipparaju, D. G. Truhlar, K. Tsemekhman, T. Van Voorhis,
      A. Vazquez-Mayagoitia, P. Verma, O. Villa, A. Vishnu, K. D. Vogiatzis,
        D. Wang, J. H. Weare, M. J. Williamson, T. L. Windus, K. Wolinski,
        A. T. Wong, Q. Wu, C. Yang, Q. Yu, M. Zacharias, Z. Zhang, Y. Zhao,
                                and R. J. Harrison
                        "NWChem: Past, present, and future
                         J. Chem. Phys. 152, 184102 (2020)
                               doi:10.1063/5.0004997

                                      AUTHORS
                                      -------
  E. Apra, E. J. Bylaska, N. Govind, K. Kowalski, M. Valiev, D. Mejia-Rodriguez,
       A. Kunitsa, N. P. Bauman, A. Panyala, W. A. de Jong, T. P. Straatsma,
   H. J. J. van Dam, D. Wang, T. L. Windus, J. Hammond, J. Autschbach, A. Woods,
    K. Bhaskaran-Nair, J. Brabec, K. Lopata, S. A. Fischer, S. Krishnamoorthy,
     M. Jacquelin, W. Ma, M. Klemm, O. Villa, Y. Chen, V. Anisimov, F. Aquino,
     S. Hirata, M. T. Hackler, E. Hermes, L. Jensen, J. E. Moore, J. C. Becca,
      V. Konjkov, T. Risthaus, M. Malagoli, A. Marenich, A. Otero-de-la-Roza,
        J. Mullin, P. Nichols, R. Peverati, J. Pittner, Y. Zhao, P.-D. Fan,
        A. Fonari, M. J. Williamson, R. J. Harrison, J. R. Rehr, M. Dupuis,
     D. Silverstein, D. M. A. Smith, J. Nieplocha, V. Tipparaju, M. Krishnan,
     B. E. Van Kuiken, A. Vazquez-Mayagoitia, M. Swart, Q. Wu, T. Van Voorhis,
     A. A. Auer, M. Nooijen, L. D. Crosby, E. Brown, G. Cisneros, G. I. Fann,
   H. Fruchtl, J. Garza, K. Hirao, R. A. Kendall, J. A. Nichols, K. Tsemekhman,
    K. Wolinski, J. Anchell, D. E. Bernholdt, P. Borowski, T. Clark, D. Clerc,
   H. Dachsel, M. J. O. Deegan, K. Dyall, D. Elwood, E. Glendening, M. Gutowski,
   A. C. Hess, J. Jaffe, B. G. Johnson, J. Ju, R. Kobayashi, R. Kutteh, Z. Lin,
   R. Littlefield, X. Long, B. Meng, T. Nakajima, S. Niu, L. Pollack, M. Rosing,
   K. Glaesemann, G. Sandrone, M. Stave, H. Taylor, G. Thomas, J. H. van Lenthe,
                               A. T. Wong, Z. Zhang.

 Total times  cpu:     4736.8s     wall:     5083.3s
