export TMOUT=5400
export TMPDIR=/tmp
export PTMPDIR=/tmp/ptmp
 argument  1 = ALA_MET_5.nw
                                         
                                         


             Northwest Computational Chemistry Package (NWChem) 7.2.0
             --------------------------------------------------------


                    Environmental Molecular Sciences Laboratory
                       Pacific Northwest National Laboratory
                                Richland, WA 99352

                              Copyright (c) 1994-2022
                       Pacific Northwest National Laboratory
                            Battelle Memorial Institute

             NWChem is an open-source computational chemistry package
                        distributed under the terms of the
                      Educational Community License (ECL) 2.0
             A copy of the license is included with this distribution
                              in the LICENSE.TXT file

                                  ACKNOWLEDGMENT
                                  --------------

            This software and its documentation were developed at the
            EMSL at Pacific Northwest National Laboratory, a multiprogram
            national laboratory, operated for the U.S. Department of Energy
            by Battelle under Contract Number DE-AC05-76RL01830. Support
            for this work was provided by the Department of Energy Office
            of Biological and Environmental Research, Office of Basic
            Energy Sciences, and the Office of Advanced Scientific Computing.


           Job information
           ---------------

    hostname        = nova18-45
    program         = /opt/rit/el9/20230413/app/linux-rhel9-x86_64_v3/gcc-11.2.1/nwchem-7.2.0-oxtctbuhfuzyfaoziquq6bki22grib3g/bin/nwchem
    date            = Fri Jun 27 20:32:25 2025

    compiled        = Wed_May_17_23:46:39_2023
    source          = /tmp/root/spack-stage/spack-stage-nwchem-7.2.0-oxtctbuhfuzyfaoziquq6bki22grib3g/spack-src
    nwchem branch   = 7.2.0
    nwchem revision = d0d141fd
    ga revision     = 5.8.0
    use scalapack   = T
    input           = ALA_MET_5.nw
    prefix          = ALA_MET_5.
    data base       = ./ALA_MET_5.db
    status          = startup
    nproc           =        8
    time left       =     -1s



           Memory information
           ------------------

    heap     =   26214400 doubles =    200.0 Mbytes
    stack    =   26214397 doubles =    200.0 Mbytes
    global   =   52428800 doubles =    400.0 Mbytes (distinct from heap & stack)
    total    =  104857597 doubles =    800.0 Mbytes
    verify   = yes
    hardfail = no 


           Directory information
           ---------------------

  0 permanent = .
  0 scratch   = .




                                NWChem Input Module
                                -------------------



 Scaling coordinates for geometry "geometry" by  1.889725989
 (inverse scale =  0.529177249)

 C1  symmetry detected

          ------
          auto-z
          ------
  no constraints, skipping    0.0000000000000000     
  no constraints, skipping    0.0000000000000000     


                             Geometry "geometry" -> ""
                             -------------------------

 Output coordinates in angstroms (scale by  1.889725989 to convert to a.u.)

  No.       Tag          Charge          X              Y              Z
 ---- ---------------- ---------- -------------- -------------- --------------
    1 H                    1.0000     0.28458878     4.40593847    -1.34962474
    2 C                    6.0000     0.26765495     4.47341304    -0.26304229
    3 H                    1.0000    -0.39437068     5.27720315     0.05098723
    4 H                    1.0000     1.27491089     4.66316972     0.10582337
    5 C                    6.0000    -0.22406657     3.16415207     0.30765172
    6 O                    8.0000     0.49701233     2.50650248     1.04646106
    7 N                    7.0000    -1.45528157     2.78957762    -0.03356025
    8 H                    1.0000    -1.96986062     3.36333226    -0.67870287
    9 C                    6.0000    -2.02199726     1.49162823     0.33307269
   10 H                    1.0000    -1.85918605     1.33774472     1.40181372
   11 C                    6.0000    -3.53384993     1.51635124     0.07582517
   12 H                    1.0000    -3.99463701     2.32514311     0.64608122
   13 H                    1.0000    -3.72822163     1.66540004    -0.98712266
   14 H                    1.0000    -3.97515551     0.56903882     0.38795106
   15 C                    6.0000    -1.33292641     0.33774497    -0.42199803
   16 O                    8.0000    -0.96905466     0.47773004    -1.58892714
   17 N                    7.0000    -1.18294027    -0.81599381     0.23561049
   18 H                    1.0000    -1.55293305    -0.89196671     1.17145741
   19 C                    6.0000    -0.48937520    -1.99825921    -0.29305296
   20 H                    1.0000    -0.50706114    -1.96487069    -1.38325588
   21 C                    6.0000     0.98255856    -2.01367329     0.16497261
   22 H                    1.0000     1.02101893    -2.12678276     1.24934526
   23 H                    1.0000     1.48130699    -2.87254897    -0.28618874
   24 C                    6.0000     1.75610054    -0.74965511    -0.22228936
   25 H                    1.0000     1.63562406    -0.56848321    -1.29136941
   26 H                    1.0000     1.33323958     0.09795195     0.31786699
   27 S                   16.0000     3.52629484    -0.82027571     0.15397502
   28 C                    6.0000     3.93407476     0.92275339    -0.12415102
   29 H                    1.0000     4.99462919     1.08467735     0.07029672
   30 H                    1.0000     3.70947398     1.19178146    -1.15671501
   31 H                    1.0000     3.34423930     1.54775117     0.54735841
   32 C                    6.0000    -1.19482210    -3.28922284     0.14579391
   33 O                    8.0000    -1.90837344    -3.31473893     1.14189552
   34 N                    7.0000    -0.99993443    -4.38438668    -0.57609524
   35 H                    1.0000    -0.40944131    -4.36036571    -1.39060544
   36 H                    1.0000    -1.45857019    -5.23142641    -0.28281222

      Atomic Mass 
      ----------- 

      H                  1.007825
      C                 12.000000
      O                 15.994910
      N                 14.003070
      S                 31.972070


 Effective nuclear repulsion energy (a.u.)    1410.9446242705

            Nuclear Dipole moment (a.u.) 
            ----------------------------
        X                 Y               Z
 ---------------- ---------------- ----------------
     0.0000000000     0.0000000000     0.0000000000



                                Z-matrix (autoz)
                                -------- 

 Units are Angstrom for bonds and degrees for angles

      Type          Name      I     J     K     L     M      Value
      ----------- --------  ----- ----- ----- ----- ----- ----------
    1 Stretch                  1     2                       1.08881
    2 Stretch                  2     3                       1.08764
    3 Stretch                  2     4                       1.08933
    4 Stretch                  2     5                       1.51051
    5 Stretch                  5     6                       1.22405
    6 Stretch                  5     7                       1.33140
    7 Stretch                  7     8                       1.00508
    8 Stretch                  7     9                       1.46296
    9 Stretch                  9    10                       1.09197
   10 Stretch                  9    11                       1.53378
   11 Stretch                  9    15                       1.54156
   12 Stretch                 11    12                       1.09163
   13 Stretch                 11    13                       1.09080
   14 Stretch                 11    14                       1.09068
   15 Stretch                 15    16                       1.23033
   16 Stretch                 15    17                       1.33643
   17 Stretch                 17    18                       1.00920
   18 Stretch                 17    19                       1.46910
   19 Stretch                 19    20                       1.09086
   20 Stretch                 19    21                       1.54163
   21 Stretch                 19    32                       1.53520
   22 Stretch                 21    22                       1.09093
   23 Stretch                 21    23                       1.09085
   24 Stretch                 21    24                       1.53169
   25 Stretch                 24    25                       1.09099
   26 Stretch                 24    26                       1.09042
   27 Stretch                 24    27                       1.81112
   28 Stretch                 27    28                       1.81157
   29 Stretch                 28    29                       1.09032
   30 Stretch                 28    30                       1.09042
   31 Stretch                 28    31                       1.09062
   32 Stretch                 32    33                       1.22557
   33 Stretch                 32    34                       1.32608
   34 Stretch                 34    35                       1.00632
   35 Stretch                 34    36                       1.00690
   36 Bend                     1     2     3               110.08408
   37 Bend                     1     2     4               109.53242
   38 Bend                     1     2     5               109.17117
   39 Bend                     2     5     6               120.12992
   40 Bend                     2     5     7               116.61968
   41 Bend                     3     2     4               109.65271
   42 Bend                     3     2     5               109.47087
   43 Bend                     4     2     5               108.90860
   44 Bend                     5     7     8               118.51244
   45 Bend                     5     7     9               122.92945
   46 Bend                     6     5     7               123.25012
   47 Bend                     7     9    10               108.21296
   48 Bend                     7     9    11               108.99609
   49 Bend                     7     9    15               111.60361
   50 Bend                     8     7     9               117.96927
   51 Bend                     9    11    12               109.90127
   52 Bend                     9    11    13               109.95512
   53 Bend                     9    11    14               109.68408
   54 Bend                     9    15    16               120.77065
   55 Bend                     9    15    17               117.08691
   56 Bend                    10     9    11               108.26378
   57 Bend                    10     9    15               107.89428
   58 Bend                    11     9    15               111.74767
   59 Bend                    12    11    13               109.42631
   60 Bend                    12    11    14               108.85816
   61 Bend                    13    11    14               108.99282
   62 Bend                    15    17    18               118.69472
   63 Bend                    15    17    19               124.79571
   64 Bend                    16    15    17               122.12283
   65 Bend                    17    19    20               109.10817
   66 Bend                    17    19    21               110.60294
   67 Bend                    17    19    32               110.91119
   68 Bend                    18    17    19               116.50012
   69 Bend                    19    21    22               109.26973
   70 Bend                    19    21    23               108.75569
   71 Bend                    19    21    24               113.50470
   72 Bend                    19    32    33               121.15675
   73 Bend                    19    32    34               118.12080
   74 Bend                    20    19    21               108.22280
   75 Bend                    20    19    32               107.69643
   76 Bend                    21    19    32               110.20649
   77 Bend                    21    24    25               109.20967
   78 Bend                    21    24    26               108.68637
   79 Bend                    21    24    27               114.13624
   80 Bend                    22    21    23               108.26101
   81 Bend                    22    21    24               108.60669
   82 Bend                    23    21    24               108.31729
   83 Bend                    24    27    28                98.66158
   84 Bend                    25    24    26               108.27077
   85 Bend                    25    24    27               108.54125
   86 Bend                    26    24    27               107.84422
   87 Bend                    27    28    29               109.53987
   88 Bend                    27    28    30               109.65785
   89 Bend                    27    28    31               109.57963
   90 Bend                    29    28    30               109.42607
   91 Bend                    29    28    31               109.33843
   92 Bend                    30    28    31               109.28463
   93 Bend                    32    34    35               120.47343
   94 Bend                    32    34    36               117.98529
   95 Bend                    33    32    34               120.71868
   96 Bend                    35    34    36               121.54127
   97 Torsion                  1     2     5     6         118.91940
   98 Torsion                  1     2     5     7         -61.26594
   99 Torsion                  2     5     7     8           2.95429
  100 Torsion                  2     5     7     9         173.96844
  101 Torsion                  3     2     5     6        -120.51446
  102 Torsion                  3     2     5     7          59.30020
  103 Torsion                  4     2     5     6          -0.63536
  104 Torsion                  4     2     5     7         179.17930
  105 Torsion                  5     7     9    10          49.38963
  106 Torsion                  5     7     9    11         166.91834
  107 Torsion                  5     7     9    15         -69.17853
  108 Torsion                  6     5     7     8        -177.23739
  109 Torsion                  6     5     7     9          -6.22324
  110 Torsion                  7     9    11    12         -57.80476
  111 Torsion                  7     9    11    13          62.70966
  112 Torsion                  7     9    11    14        -177.44801
  113 Torsion                  7     9    15    16         -36.57270
  114 Torsion                  7     9    15    17         145.00482
  115 Torsion                  8     7     9    10        -139.55021
  116 Torsion                  8     7     9    11         -22.02150
  117 Torsion                  8     7     9    15         101.88164
  118 Torsion                  9    15    17    18           2.26104
  119 Torsion                  9    15    17    19        -176.57855
  120 Torsion                 10     9    11    12          59.69180
  121 Torsion                 10     9    11    13        -179.79378
  122 Torsion                 10     9    11    14         -59.95145
  123 Torsion                 10     9    15    16        -155.33087
  124 Torsion                 10     9    15    17          26.24664
  125 Torsion                 11     9    15    16          85.76403
  126 Torsion                 11     9    15    17         -92.65845
  127 Torsion                 12    11     9    15         178.37744
  128 Torsion                 13    11     9    15         -61.10814
  129 Torsion                 14    11     9    15          58.73419
  130 Torsion                 15    17    19    20         -24.36916
  131 Torsion                 15    17    19    21          94.56469
  132 Torsion                 15    17    19    32        -142.84263
  133 Torsion                 16    15    17    18        -176.13851
  134 Torsion                 16    15    17    19           5.02190
  135 Torsion                 17    19    21    22          64.97768
  136 Torsion                 17    19    21    23        -177.03532
  137 Torsion                 17    19    21    24         -56.39717
  138 Torsion                 17    19    32    33         -23.10813
  139 Torsion                 17    19    32    34         157.59386
  140 Torsion                 18    17    19    20         156.76824
  141 Torsion                 18    17    19    21         -84.29791
  142 Torsion                 18    17    19    32          38.29477
  143 Torsion                 19    21    24    25         -52.30884
  144 Torsion                 19    21    24    26          65.61587
  145 Torsion                 19    21    24    27        -173.98508
  146 Torsion                 19    32    34    35          -0.37828
  147 Torsion                 19    32    34    36         179.58924
  148 Torsion                 20    19    21    22        -175.55335
  149 Torsion                 20    19    21    23         -57.56635
  150 Torsion                 20    19    21    24          63.07180
  151 Torsion                 20    19    32    33        -142.43250
  152 Torsion                 20    19    32    34          38.26949
  153 Torsion                 21    19    32    33          99.71421
  154 Torsion                 21    19    32    34         -79.58380
  155 Torsion                 21    24    27    28        -168.78334
  156 Torsion                 22    21    19    32         -58.02517
  157 Torsion                 22    21    24    25        -174.05408
  158 Torsion                 22    21    24    26         -56.12937
  159 Torsion                 22    21    24    27          64.26968
  160 Torsion                 23    21    19    32          59.96184
  161 Torsion                 23    21    24    25          68.57627
  162 Torsion                 23    21    24    26        -173.49902
  163 Torsion                 23    21    24    27         -53.09997
  164 Torsion                 24    21    19    32        -179.40002
  165 Torsion                 24    27    28    29         179.39123
  166 Torsion                 24    27    28    30         -60.50715
  167 Torsion                 24    27    28    31          59.44535
  168 Torsion                 25    24    27    28          69.17269
  169 Torsion                 26    24    27    28         -47.91493
  170 Torsion                 33    32    34    35        -179.67951
  171 Torsion                 33    32    34    36           0.28801


            XYZ format geometry
            -------------------
    36
 geometry
 H                     0.28458878     4.40593847    -1.34962474
 C                     0.26765495     4.47341304    -0.26304229
 H                    -0.39437068     5.27720315     0.05098723
 H                     1.27491089     4.66316972     0.10582337
 C                    -0.22406657     3.16415207     0.30765172
 O                     0.49701233     2.50650248     1.04646106
 N                    -1.45528157     2.78957762    -0.03356025
 H                    -1.96986062     3.36333226    -0.67870287
 C                    -2.02199726     1.49162823     0.33307269
 H                    -1.85918605     1.33774472     1.40181372
 C                    -3.53384993     1.51635124     0.07582517
 H                    -3.99463701     2.32514311     0.64608122
 H                    -3.72822163     1.66540004    -0.98712266
 H                    -3.97515551     0.56903882     0.38795106
 C                    -1.33292641     0.33774497    -0.42199803
 O                    -0.96905466     0.47773004    -1.58892714
 N                    -1.18294027    -0.81599381     0.23561049
 H                    -1.55293305    -0.89196671     1.17145741
 C                    -0.48937520    -1.99825921    -0.29305296
 H                    -0.50706114    -1.96487069    -1.38325588
 C                     0.98255856    -2.01367329     0.16497261
 H                     1.02101893    -2.12678276     1.24934526
 H                     1.48130699    -2.87254897    -0.28618874
 C                     1.75610054    -0.74965511    -0.22228936
 H                     1.63562406    -0.56848321    -1.29136941
 H                     1.33323958     0.09795195     0.31786699
 S                     3.52629484    -0.82027571     0.15397502
 C                     3.93407476     0.92275339    -0.12415102
 H                     4.99462919     1.08467735     0.07029672
 H                     3.70947398     1.19178146    -1.15671501
 H                     3.34423930     1.54775117     0.54735841
 C                    -1.19482210    -3.28922284     0.14579391
 O                    -1.90837344    -3.31473893     1.14189552
 N                    -0.99993443    -4.38438668    -0.57609524
 H                    -0.40944131    -4.36036571    -1.39060544
 H                    -1.45857019    -5.23142641    -0.28281222

 ==============================================================================
                                internuclear distances
 ------------------------------------------------------------------------------
       center one      |      center two      | atomic units |  angstroms
 ------------------------------------------------------------------------------
    2 C                |   1 H                |     2.05755  |     1.08881
    3 H                |   2 C                |     2.05535  |     1.08764
    4 H                |   2 C                |     2.05853  |     1.08933
    5 C                |   2 C                |     2.85445  |     1.51051
    6 O                |   5 C                |     2.31312  |     1.22405
    7 N                |   5 C                |     2.51598  |     1.33140
    8 H                |   7 N                |     1.89933  |     1.00508
    9 C                |   7 N                |     2.76460  |     1.46296
   10 H                |   9 C                |     2.06352  |     1.09197
   11 C                |   9 C                |     2.89843  |     1.53378
   12 H                |  11 C                |     2.06289  |     1.09163
   13 H                |  11 C                |     2.06132  |     1.09080
   14 H                |  11 C                |     2.06108  |     1.09068
   15 C                |   9 C                |     2.91312  |     1.54156
   16 O                |  15 C                |     2.32499  |     1.23033
   17 N                |  15 C                |     2.52550  |     1.33643
   18 H                |  17 N                |     1.90710  |     1.00920
   19 C                |  17 N                |     2.77621  |     1.46910
   20 H                |  19 C                |     2.06142  |     1.09086
   21 C                |  19 C                |     2.91325  |     1.54163
   22 H                |  21 C                |     2.06157  |     1.09093
   23 H                |  21 C                |     2.06142  |     1.09085
   24 C                |  21 C                |     2.89448  |     1.53169
   25 H                |  24 C                |     2.06168  |     1.09099
   26 H                |  24 C                |     2.06060  |     1.09042
   27 S                |  24 C                |     3.42252  |     1.81112
   28 C                |  27 S                |     3.42337  |     1.81157
   29 H                |  28 C                |     2.06041  |     1.09032
   30 H                |  28 C                |     2.06059  |     1.09042
   31 H                |  28 C                |     2.06097  |     1.09062
   32 C                |  19 C                |     2.90110  |     1.53520
   33 O                |  32 C                |     2.31599  |     1.22557
   34 N                |  32 C                |     2.50593  |     1.32608
   35 H                |  34 N                |     1.90167  |     1.00632
   36 H                |  34 N                |     1.90276  |     1.00690
 ------------------------------------------------------------------------------
                         number of included internuclear distances:         35
 ==============================================================================



 ==============================================================================
                                 internuclear angles
 ------------------------------------------------------------------------------
        center 1       |       center 2       |       center 3       |  degrees
 ------------------------------------------------------------------------------
    1 H                |   2 C                |   3 H                |   110.08
    1 H                |   2 C                |   4 H                |   109.53
    1 H                |   2 C                |   5 C                |   109.17
    3 H                |   2 C                |   4 H                |   109.65
    3 H                |   2 C                |   5 C                |   109.47
    4 H                |   2 C                |   5 C                |   108.91
    2 C                |   5 C                |   6 O                |   120.13
    2 C                |   5 C                |   7 N                |   116.62
    6 O                |   5 C                |   7 N                |   123.25
    5 C                |   7 N                |   8 H                |   118.51
    5 C                |   7 N                |   9 C                |   122.93
    8 H                |   7 N                |   9 C                |   117.97
    7 N                |   9 C                |  10 H                |   108.21
    7 N                |   9 C                |  11 C                |   109.00
    7 N                |   9 C                |  15 C                |   111.60
   10 H                |   9 C                |  11 C                |   108.26
   10 H                |   9 C                |  15 C                |   107.89
   11 C                |   9 C                |  15 C                |   111.75
    9 C                |  11 C                |  12 H                |   109.90
    9 C                |  11 C                |  13 H                |   109.96
    9 C                |  11 C                |  14 H                |   109.68
   12 H                |  11 C                |  13 H                |   109.43
   12 H                |  11 C                |  14 H                |   108.86
   13 H                |  11 C                |  14 H                |   108.99
    9 C                |  15 C                |  16 O                |   120.77
    9 C                |  15 C                |  17 N                |   117.09
   16 O                |  15 C                |  17 N                |   122.12
   15 C                |  17 N                |  18 H                |   118.69
   15 C                |  17 N                |  19 C                |   124.80
   18 H                |  17 N                |  19 C                |   116.50
   17 N                |  19 C                |  20 H                |   109.11
   17 N                |  19 C                |  21 C                |   110.60
   17 N                |  19 C                |  32 C                |   110.91
   20 H                |  19 C                |  21 C                |   108.22
   20 H                |  19 C                |  32 C                |   107.70
   21 C                |  19 C                |  32 C                |   110.21
   19 C                |  21 C                |  22 H                |   109.27
   19 C                |  21 C                |  23 H                |   108.76
   19 C                |  21 C                |  24 C                |   113.50
   22 H                |  21 C                |  23 H                |   108.26
   22 H                |  21 C                |  24 C                |   108.61
   23 H                |  21 C                |  24 C                |   108.32
   21 C                |  24 C                |  25 H                |   109.21
   21 C                |  24 C                |  26 H                |   108.69
   21 C                |  24 C                |  27 S                |   114.14
   25 H                |  24 C                |  26 H                |   108.27
   25 H                |  24 C                |  27 S                |   108.54
   26 H                |  24 C                |  27 S                |   107.84
   24 C                |  27 S                |  28 C                |    98.66
   27 S                |  28 C                |  29 H                |   109.54
   27 S                |  28 C                |  30 H                |   109.66
   27 S                |  28 C                |  31 H                |   109.58
   29 H                |  28 C                |  30 H                |   109.43
   29 H                |  28 C                |  31 H                |   109.34
   30 H                |  28 C                |  31 H                |   109.28
   19 C                |  32 C                |  33 O                |   121.16
   19 C                |  32 C                |  34 N                |   118.12
   33 O                |  32 C                |  34 N                |   120.72
   32 C                |  34 N                |  35 H                |   120.47
   32 C                |  34 N                |  36 H                |   117.99
   35 H                |  34 N                |  36 H                |   121.54
 ------------------------------------------------------------------------------
                            number of included internuclear angles:         61
 ==============================================================================



  library name resolved from: environment
  library file name is: </opt/rit/el9/20230413/app/linux-rhel9-x86_64_v3/gcc-11.2.1/nwchem-7.2.0-oxtctbuhfuzyfaoziquq6bki22grib3g/share/nwchem/libraries/>
  


 Summary of "ao basis" -> "" (cartesian)
 ------------------------------------------------------------------------------
       Tag                 Description            Shells   Functions and Types
 ---------------- ------------------------------  ------  ---------------------
 *                        aug-cc-pvdz                 on all atoms 


                      Basis "ao basis" -> "ao basis" (cartesian)
                      -----
  H (Hydrogen)
  ------------
            Exponent  Coefficients 
       -------------- ---------------------------------------------------------
  1 S  1.30100000E+01  0.019685
  1 S  1.96200000E+00  0.137977
  1 S  4.44600000E-01  0.478148

  2 S  1.22000000E-01  1.000000

  3 S  2.97400000E-02  1.000000

  4 P  7.27000000E-01  1.000000

  5 P  1.41000000E-01  1.000000

  C (Carbon)
  ----------
            Exponent  Coefficients 
       -------------- ---------------------------------------------------------
  1 S  6.66500000E+03  0.000692
  1 S  1.00000000E+03  0.005329
  1 S  2.28000000E+02  0.027077
  1 S  6.47100000E+01  0.101718
  1 S  2.10600000E+01  0.274740
  1 S  7.49500000E+00  0.448564
  1 S  2.79700000E+00  0.285074
  1 S  5.21500000E-01  0.015204

  2 S  6.66500000E+03 -0.000146
  2 S  1.00000000E+03 -0.001154
  2 S  2.28000000E+02 -0.005725
  2 S  6.47100000E+01 -0.023312
  2 S  2.10600000E+01 -0.063955
  2 S  7.49500000E+00 -0.149981
  2 S  2.79700000E+00 -0.127262
  2 S  5.21500000E-01  0.544529

  3 S  1.59600000E-01  1.000000

  4 S  4.69000000E-02  1.000000

  5 P  9.43900000E+00  0.038109
  5 P  2.00200000E+00  0.209480
  5 P  5.45600000E-01  0.508557

  6 P  1.51700000E-01  1.000000

  7 P  4.04100000E-02  1.000000

  8 D  5.50000000E-01  1.000000

  9 D  1.51000000E-01  1.000000

  O (Oxygen)
  ----------
            Exponent  Coefficients 
       -------------- ---------------------------------------------------------
  1 S  1.17200000E+04  0.000710
  1 S  1.75900000E+03  0.005470
  1 S  4.00800000E+02  0.027837
  1 S  1.13700000E+02  0.104800
  1 S  3.70300000E+01  0.283062
  1 S  1.32700000E+01  0.448719
  1 S  5.02500000E+00  0.270952
  1 S  1.01300000E+00  0.015458

  2 S  1.17200000E+04 -0.000160
  2 S  1.75900000E+03 -0.001263
  2 S  4.00800000E+02 -0.006267
  2 S  1.13700000E+02 -0.025716
  2 S  3.70300000E+01 -0.070924
  2 S  1.32700000E+01 -0.165411
  2 S  5.02500000E+00 -0.116955
  2 S  1.01300000E+00  0.557368

  3 S  3.02300000E-01  1.000000

  4 S  7.89600000E-02  1.000000

  5 P  1.77000000E+01  0.043018
  5 P  3.85400000E+00  0.228913
  5 P  1.04600000E+00  0.508728

  6 P  2.75300000E-01  1.000000

  7 P  6.85600000E-02  1.000000

  8 D  1.18500000E+00  1.000000

  9 D  3.32000000E-01  1.000000

  N (Nitrogen)
  ------------
            Exponent  Coefficients 
       -------------- ---------------------------------------------------------
  1 S  9.04600000E+03  0.000700
  1 S  1.35700000E+03  0.005389
  1 S  3.09300000E+02  0.027406
  1 S  8.77300000E+01  0.103207
  1 S  2.85600000E+01  0.278723
  1 S  1.02100000E+01  0.448540
  1 S  3.83800000E+00  0.278238
  1 S  7.46600000E-01  0.015440

  2 S  9.04600000E+03 -0.000153
  2 S  1.35700000E+03 -0.001208
  2 S  3.09300000E+02 -0.005992
  2 S  8.77300000E+01 -0.024544
  2 S  2.85600000E+01 -0.067459
  2 S  1.02100000E+01 -0.158078
  2 S  3.83800000E+00 -0.121831
  2 S  7.46600000E-01  0.549003

  3 S  2.24800000E-01  1.000000

  4 S  6.12400000E-02  1.000000

  5 P  1.35500000E+01  0.039919
  5 P  2.91700000E+00  0.217169
  5 P  7.97300000E-01  0.510319

  6 P  2.18500000E-01  1.000000

  7 P  5.61100000E-02  1.000000

  8 D  8.17000000E-01  1.000000

  9 D  2.30000000E-01  1.000000

  S (Sulphur)
  -----------
            Exponent  Coefficients 
       -------------- ---------------------------------------------------------
  1 S  1.10800000E+05  0.000248
  1 S  1.66100000E+04  0.001920
  1 S  3.78100000E+03  0.009962
  1 S  1.07100000E+03  0.040298
  1 S  3.49800000E+02  0.128604
  1 S  1.26300000E+02  0.303480
  1 S  4.92600000E+01  0.421432
  1 S  2.01600000E+01  0.230781
  1 S  5.72000000E+00  0.017897
  1 S  2.18200000E+00 -0.002975
  1 S  4.32700000E-01  0.000850

  2 S  1.10800000E+05 -0.000069
  2 S  1.66100000E+04 -0.000528
  2 S  3.78100000E+03 -0.002797
  2 S  1.07100000E+03 -0.011265
  2 S  3.49800000E+02 -0.038883
  2 S  1.26300000E+02 -0.099503
  2 S  4.92600000E+01 -0.199740
  2 S  2.01600000E+01 -0.123360
  2 S  5.72000000E+00  0.513194
  2 S  2.18200000E+00  0.607120
  2 S  4.32700000E-01  0.039675

  3 S  1.10800000E+05  0.000020
  3 S  1.66100000E+04  0.000153
  3 S  3.78100000E+03  0.000810
  3 S  1.07100000E+03  0.003290
  3 S  3.49800000E+02  0.011297
  3 S  1.26300000E+02  0.029639
  3 S  4.92600000E+01  0.059985
  3 S  2.01600000E+01  0.041325
  3 S  5.72000000E+00 -0.207474
  3 S  2.18200000E+00 -0.392889
  3 S  4.32700000E-01  0.632840

  4 S  1.57000000E-01  1.000000

  5 S  5.07000000E-02  1.000000

  6 P  3.99700000E+02  0.004475
  6 P  9.41900000E+01  0.034171
  6 P  2.97500000E+01  0.144250
  6 P  1.07700000E+01  0.353928
  6 P  4.11900000E+00  0.459085
  6 P  1.62500000E+00  0.206383
  6 P  4.72600000E-01  0.010214

  7 P  3.99700000E+02 -0.001163
  7 P  9.41900000E+01 -0.008657
  7 P  2.97500000E+01 -0.039089
  7 P  1.07700000E+01 -0.093463
  7 P  4.11900000E+00 -0.147994
  7 P  1.62500000E+00  0.030190
  7 P  4.72600000E-01  0.561573

  8 P  1.40700000E-01  1.000000

  9 P  3.99000000E-02  1.000000

 10 D  4.79000000E-01  1.000000

 11 D  1.52000000E-01  1.000000



 Summary of "ao basis" -> "ao basis" (cartesian)
 ------------------------------------------------------------------------------
       Tag                 Description            Shells   Functions and Types
 ---------------- ------------------------------  ------  ---------------------
 H                        aug-cc-pvdz                5        9   3s2p
 C                        aug-cc-pvdz                9       25   4s3p2d
 O                        aug-cc-pvdz                9       25   4s3p2d
 N                        aug-cc-pvdz                9       25   4s3p2d
 S                        aug-cc-pvdz               11       29   5s4p2d


                                 NWChem SCF Module
                                 -----------------



  ao basis        = "ao basis"
  functions       =   600
  atoms           =    36
  closed shells   =    70
  open shells     =     0
  charge          =   0.00
  wavefunction    = RHF 
  input vectors   = atomic
  output vectors  = ./ALA_MET_5.movecs
  use symmetry    = F
  symmetry adapt  = F


 Summary of "ao basis" -> "ao basis" (cartesian)
 ------------------------------------------------------------------------------
       Tag                 Description            Shells   Functions and Types
 ---------------- ------------------------------  ------  ---------------------
 H                        aug-cc-pvdz                5        9   3s2p
 C                        aug-cc-pvdz                9       25   4s3p2d
 O                        aug-cc-pvdz                9       25   4s3p2d
 N                        aug-cc-pvdz                9       25   4s3p2d
 S                        aug-cc-pvdz               11       29   5s4p2d



 Forming initial guess at       1.3s


 !! The overlap matrix has   5 vectors deemed linearly dependent with
    eigenvalues:
 2.37D-06 3.16D-06 6.09D-06 8.60D-06 9.92D-06


      Superposition of Atomic Density Guess
      -------------------------------------

 Sum of atomic energies:       -1170.84498976

      Non-variational initial energy
      ------------------------------

 Total energy =   -1181.673939
 1-e energy   =   -4404.227702
 2-e energy   =    1811.609139
 HOMO         =      -0.263257
 LUMO         =       0.011254


 Starting SCF solution at     238.2s



 ----------------------------------------------
         Quadratically convergent ROHF

 Convergence threshold     :          1.000E-04
 Maximum no. of iterations :           30
 Final Fock-matrix accuracy:          1.000E-10
 ----------------------------------------------


              iter       energy          gnorm     gmax       time
             ----- ------------------- --------- --------- --------
                 1    -1175.0036532067  2.41D+00  1.78D-01    482.3
                 2    -1175.3238789743  8.38D-01  3.80D-02    964.4
                 3    -1175.3856349644  6.43D-02  4.74D-03   1657.5
                 4    -1175.3862690929  3.69D-03  3.87D-04   2536.3
                 5    -1175.3862718123  7.91D-06  4.78D-07   4181.6


       Final RHF  results 
       ------------------ 

         Total SCF energy =  -1175.386271812306
      One-electron energy =  -4417.354153620681
      Two-electron energy =   1831.023257537876
 Nuclear repulsion energy =   1410.944624270500

        Time for solution =   3950.6s


             Final eigenvalues
             -----------------

              1      
    1  -91.9341
    2  -20.5375
    3  -20.5278
    4  -20.5277
    5  -15.6111
    6  -15.6030
    7  -15.6026
    8  -11.3711
    9  -11.3612
   10  -11.3572
   11  -11.3047
   12  -11.3038
   13  -11.2525
   14  -11.2485
   15  -11.2479
   16  -11.2454
   17  -11.2439
   18   -8.9350
   19   -6.6174
   20   -6.6161
   21   -6.6140
   22   -1.4009
   23   -1.3927
   24   -1.3821
   25   -1.2506
   26   -1.2459
   27   -1.2380
   28   -1.0933
   29   -1.0661
   30   -1.0315
   31   -0.9965
   32   -0.9629
   33   -0.8995
   34   -0.8631
   35   -0.8282
   36   -0.8040
   37   -0.7944
   38   -0.7845
   39   -0.7580
   40   -0.7211
   41   -0.6876
   42   -0.6776
   43   -0.6746
   44   -0.6573
   45   -0.6349
   46   -0.6241
   47   -0.6144
   48   -0.6095
   49   -0.5967
   50   -0.5870
   51   -0.5777
   52   -0.5757
   53   -0.5729
   54   -0.5615
   55   -0.5535
   56   -0.5462
   57   -0.5416
   58   -0.5247
   59   -0.5174
   60   -0.5081
   61   -0.4990
   62   -0.4821
   63   -0.4364
   64   -0.4307
   65   -0.4265
   66   -0.4245
   67   -0.4166
   68   -0.4020
   69   -0.3946
   70   -0.3222
   71    0.0275
   72    0.0296
   73    0.0403
   74    0.0462
   75    0.0477
   76    0.0529
   77    0.0575
   78    0.0599
   79    0.0641
   80    0.0673

                       ROHF Final Molecular Orbital Analysis
                       -------------------------------------

 Vector   22  Occ=2.000000D+00  E=-1.400877D+00
              MO Center= -1.5D+00, -3.0D+00,  5.2D-01, r^2= 2.7D+00
   Bfn.  Coefficient  Atom+Function         Bfn.  Coefficient  Atom+Function  
  ----- ------------  ---------------      ----- ------------  ---------------
   535      0.352069  33 O  s               534      0.328167  33 O  s         
   509      0.235505  32 C  s         

 Vector   23  Occ=2.000000D+00  E=-1.392702D+00
              MO Center= -4.4D-01,  1.6D+00,  2.2D-01, r^2= 5.1D+00
   Bfn.  Coefficient  Atom+Function         Bfn.  Coefficient  Atom+Function  
  ----- ------------  ---------------      ----- ------------  ---------------
    80      0.279955   6 O  s                79      0.274101   6 O  s         
    54      0.199020   5 C  s               250      0.195548  16 O  s         
   249      0.179034  16 O  s                12      0.177902   2 C  s         

 Vector   24  Occ=2.000000D+00  E=-1.382113D+00
              MO Center= -6.9D-01,  9.8D-01, -4.0D-01, r^2= 4.0D+00
   Bfn.  Coefficient  Atom+Function         Bfn.  Coefficient  Atom+Function  
  ----- ------------  ---------------      ----- ------------  ---------------
   250      0.300158  16 O  s               249      0.282390  16 O  s         
    79     -0.212160   6 O  s                80     -0.212163   6 O  s         
   224      0.195878  15 C  s         

 Vector   25  Occ=2.000000D+00  E=-1.250637D+00
              MO Center= -1.2D+00,  2.6D+00,  1.1D-01, r^2= 1.8D+00
   Bfn.  Coefficient  Atom+Function         Bfn.  Coefficient  Atom+Function  
  ----- ------------  ---------------      ----- ------------  ---------------
   105      0.423517   7 N  s               104      0.339125   7 N  s         
    80     -0.215284   6 O  s                79     -0.183503   6 O  s         
    57     -0.170574   5 C  px              128      0.156274   8 H  s         

 Vector   26  Occ=2.000000D+00  E=-1.245950D+00
              MO Center= -1.1D+00, -7.8D-01, -5.6D-02, r^2= 2.4D+00
   Bfn.  Coefficient  Atom+Function         Bfn.  Coefficient  Atom+Function  
  ----- ------------  ---------------      ----- ------------  ---------------
   275      0.384066  17 N  s               274      0.331314  17 N  s         
   250     -0.214243  16 O  s               249     -0.173082  16 O  s         
   308      0.151420  19 C  s         

 Vector   27  Occ=2.000000D+00  E=-1.237988D+00
              MO Center= -1.1D+00, -3.9D+00, -2.9D-01, r^2= 1.8D+00
   Bfn.  Coefficient  Atom+Function         Bfn.  Coefficient  Atom+Function  
  ----- ------------  ---------------      ----- ------------  ---------------
   560      0.385665  34 N  s               559      0.364686  34 N  s         
   535     -0.206496  33 O  s               534     -0.175248  33 O  s         
   583      0.168547  35 H  s               514     -0.159328  32 C  pz        
   592      0.154598  36 H  s         

 Vector   28  Occ=2.000000D+00  E=-1.093274D+00
              MO Center=  6.0D-01, -9.4D-01, -3.3D-02, r^2= 5.7D+00
   Bfn.  Coefficient  Atom+Function         Bfn.  Coefficient  Atom+Function  
  ----- ------------  ---------------      ----- ------------  ---------------
   342     -0.218943  21 C  s               139      0.202014   9 C  s         
   385     -0.189941  24 C  s               343     -0.175818  21 C  s         
   308     -0.161618  19 C  s         

 Vector   29  Occ=2.000000D+00  E=-1.066059D+00
              MO Center= -9.5D-01,  1.4D+00,  8.1D-02, r^2= 8.3D+00
   Bfn.  Coefficient  Atom+Function         Bfn.  Coefficient  Atom+Function  
  ----- ------------  ---------------      ----- ------------  ---------------
   138      0.213941   9 C  s               172      0.198065  11 C  s         
    12     -0.162162   2 C  s               144     -0.162200   9 C  px        

 Vector   30  Occ=2.000000D+00  E=-1.031529D+00
              MO Center=  1.5D+00, -4.0D-01, -5.9D-02, r^2= 9.2D+00
   Bfn.  Coefficient  Atom+Function         Bfn.  Coefficient  Atom+Function  
  ----- ------------  ---------------      ----- ------------  ---------------
   429      0.225702  27 S  s               457      0.185180  28 C  s         
   308     -0.179460  19 C  s               139      0.172378   9 C  s         

 Vector   31  Occ=2.000000D+00  E=-9.965327D-01
              MO Center= -5.2D-01,  3.6D+00, -1.1D-01, r^2= 5.2D+00
   Bfn.  Coefficient  Atom+Function         Bfn.  Coefficient  Atom+Function  
  ----- ------------  ---------------      ----- ------------  ---------------
    11      0.319565   2 C  s               172      0.162735  11 C  s         

 Vector   32  Occ=2.000000D+00  E=-9.629461D-01
              MO Center=  1.3D+00, -6.8D-01, -1.1D-01, r^2= 8.7D+00
   Bfn.  Coefficient  Atom+Function         Bfn.  Coefficient  Atom+Function  
  ----- ------------  ---------------      ----- ------------  ---------------
   457      0.215973  28 C  s               385     -0.176132  24 C  s         
   314     -0.167441  19 C  px              139     -0.163087   9 C  s         
   308      0.163769  19 C  s         

 Vector   33  Occ=2.000000D+00  E=-8.995493D-01
              MO Center= -1.9D+00,  1.0D+00,  2.4D-02, r^2= 7.2D+00
   Bfn.  Coefficient  Atom+Function         Bfn.  Coefficient  Atom+Function  
  ----- ------------  ---------------      ----- ------------  ---------------
   139      0.305376   9 C  s               144      0.258421   9 C  px        
   172     -0.230519  11 C  s               225     -0.196090  15 C  s         
   138      0.186736   9 C  s               276      0.184040  17 N  s         
   174     -0.173040  11 C  s               231     -0.169888  15 C  py        
   145     -0.157944   9 C  py              146     -0.155948   9 C  pz        

 Vector   34  Occ=2.000000D+00  E=-8.631275D-01
              MO Center=  1.5D+00, -1.2D+00, -4.9D-02, r^2= 8.9D+00
   Bfn.  Coefficient  Atom+Function         Bfn.  Coefficient  Atom+Function  
  ----- ------------  ---------------      ----- ------------  ---------------
   309      0.281681  19 C  s               342     -0.201525  21 C  s         
   343     -0.199710  21 C  s               457     -0.181984  28 C  s         
   429      0.177742  27 S  s               458     -0.169244  28 C  s         

 Vector   35  Occ=2.000000D+00  E=-8.281971D-01
              MO Center= -1.1D+00, -3.7D-01, -8.6D-02, r^2= 1.1D+01
   Bfn.  Coefficient  Atom+Function         Bfn.  Coefficient  Atom+Function  
  ----- ------------  ---------------      ----- ------------  ---------------
   107      0.197405   7 N  px              563      0.190653  34 N  py        
   278      0.178219  17 N  py               56     -0.166505   5 C  s         
   225      0.150569  15 C  s         

 Vector   36  Occ=2.000000D+00  E=-8.039747D-01
              MO Center= -9.4D-01,  7.4D-01, -6.6D-02, r^2= 1.2D+01
   Bfn.  Coefficient  Atom+Function         Bfn.  Coefficient  Atom+Function  
  ----- ------------  ---------------      ----- ------------  ---------------
   107      0.255486   7 N  px              128     -0.252689   8 H  s         
   105     -0.190579   7 N  s                54      0.165326   5 C  s         
   139      0.160599   9 C  s               109      0.154572   7 N  pz        
    80     -0.150008   6 O  s         

 Vector   37  Occ=2.000000D+00  E=-7.944387D-01
              MO Center= -8.4D-01, -1.2D+00, -9.8D-03, r^2= 3.9D+00
   Bfn.  Coefficient  Atom+Function         Bfn.  Coefficient  Atom+Function  
  ----- ------------  ---------------      ----- ------------  ---------------
   279     -0.292976  17 N  pz              298     -0.287521  18 H  s         
   225      0.268519  15 C  s               275     -0.225709  17 N  s         
   309      0.202820  19 C  s               333      0.185583  20 H  s         
   510     -0.184626  32 C  s               332      0.167626  20 H  s         
   250     -0.154070  16 O  s               299     -0.153191  18 H  s         

 Vector   38  Occ=2.000000D+00  E=-7.845396D-01
              MO Center=  1.8D+00, -4.8D-01, -8.1D-02, r^2= 7.1D+00
   Bfn.  Coefficient  Atom+Function         Bfn.  Coefficient  Atom+Function  
  ----- ------------  ---------------      ----- ------------  ---------------
   430      0.406051  27 S  s               386     -0.342240  24 C  s         
   343      0.300146  21 C  s               511      0.282618  32 C  s         
   429      0.278071  27 S  s               344     -0.233967  21 C  s         
   385     -0.185506  24 C  s                56      0.157628   5 C  s         
   418     -0.152952  26 H  s               409     -0.150776  25 H  s         

 Vector   39  Occ=2.000000D+00  E=-7.579734D-01
              MO Center= -7.5D-01, -2.9D+00, -3.4D-01, r^2= 7.7D+00
   Bfn.  Coefficient  Atom+Function         Bfn.  Coefficient  Atom+Function  
  ----- ------------  ---------------      ----- ------------  ---------------
   583     -0.284069  35 H  s               564      0.258453  34 N  pz        
   562     -0.216212  34 N  px              592      0.211510  36 H  s         
   386     -0.151471  24 C  s               584     -0.150880  35 H  s         

 Vector   40  Occ=2.000000D+00  E=-7.211000D-01
              MO Center= -1.4D+00, -1.2D-01, -1.9D-01, r^2= 9.8D+00
   Bfn.  Coefficient  Atom+Function         Bfn.  Coefficient  Atom+Function  
  ----- ------------  ---------------      ----- ------------  ---------------
   225      0.337141  15 C  s               145      0.307972   9 C  py        
   139     -0.244854   9 C  s                55      0.214380   5 C  s         
   228     -0.204647  15 C  py              592     -0.191155  36 H  s         
   563      0.180652  34 N  py              143      0.171581   9 C  pz        
   142      0.168820   9 C  py              109      0.160445   7 N  pz        

 Vector   41  Occ=2.000000D+00  E=-6.876385D-01
              MO Center= -9.7D-01,  1.3D+00, -1.3D-01, r^2= 8.2D+00
   Bfn.  Coefficient  Atom+Function         Bfn.  Coefficient  Atom+Function  
  ----- ------------  ---------------      ----- ------------  ---------------
   108     -0.177979   7 N  py              145      0.172191   9 C  py        
   139     -0.169627   9 C  s                13      0.163628   2 C  s         
   225      0.162782  15 C  s               254      0.159619  16 O  pz        
    56     -0.154719   5 C  s               309     -0.151831  19 C  s         

 Vector   42  Occ=2.000000D+00  E=-6.775697D-01
              MO Center= -5.2D-01,  1.3D+00,  3.8D-01, r^2= 1.0D+01
   Bfn.  Coefficient  Atom+Function         Bfn.  Coefficient  Atom+Function  
  ----- ------------  ---------------      ----- ------------  ---------------
    80     -0.224535   6 O  s                83      0.215857   6 O  py        
    57      0.212695   5 C  px               84     -0.183330   6 O  pz        
    12      0.176039   2 C  s                18     -0.164768   2 C  py        

 Vector   43  Occ=2.000000D+00  E=-6.745593D-01
              MO Center= -9.9D-01, -1.1D+00,  2.7D-01, r^2= 9.7D+00
   Bfn.  Coefficient  Atom+Function         Bfn.  Coefficient  Atom+Function  
  ----- ------------  ---------------      ----- ------------  ---------------
   535      0.181795  33 O  s               309      0.178288  19 C  s         
   513     -0.175622  32 C  py              537     -0.167701  33 O  px        
   539      0.160857  33 O  pz              231      0.158131  15 C  py        
   510     -0.151101  32 C  s         

 Vector   44  Occ=2.000000D+00  E=-6.572908D-01
              MO Center= -2.5D-01, -6.0D-01,  7.7D-02, r^2= 8.6D+00
   Bfn.  Coefficient  Atom+Function         Bfn.  Coefficient  Atom+Function  
  ----- ------------  ---------------      ----- ------------  ---------------
   139      0.293509   9 C  s               145     -0.236176   9 C  py        
   314      0.184655  19 C  px              277      0.177741  17 N  px        
   225     -0.167538  15 C  s               231     -0.166670  15 C  py        
   315      0.163101  19 C  py              375     -0.156644  23 H  s         

 Vector   45  Occ=2.000000D+00  E=-6.348642D-01
              MO Center= -5.3D-01, -7.6D-01, -7.2D-02, r^2= 7.5D+00
   Bfn.  Coefficient  Atom+Function         Bfn.  Coefficient  Atom+Function  
  ----- ------------  ---------------      ----- ------------  ---------------
   343     -0.433234  21 C  s               309      0.417995  19 C  s         
   314      0.290783  19 C  px              278      0.201435  17 N  py        
   276     -0.193647  17 N  s               345     -0.189832  21 C  px        
   311      0.185762  19 C  px              315     -0.167611  19 C  py        

 Vector   46  Occ=2.000000D+00  E=-6.240797D-01
              MO Center= -4.6D-01,  1.7D+00, -2.8D-01, r^2= 9.8D+00
   Bfn.  Coefficient  Atom+Function         Bfn.  Coefficient  Atom+Function  
  ----- ------------  ---------------      ----- ------------  ---------------
   254      0.225460  16 O  pz              139     -0.195034   9 C  s         
    16      0.183432   2 C  pz              225      0.180891  15 C  s         
     1     -0.165970   1 H  s                35      0.165873   3 H  s         
   250     -0.155078  16 O  s                59      0.153202   5 C  pz        

 Vector   47  Occ=2.000000D+00  E=-6.143656D-01
              MO Center=  3.1D-02, -1.4D+00,  8.6D-02, r^2= 8.2D+00
   Bfn.  Coefficient  Atom+Function         Bfn.  Coefficient  Atom+Function  
  ----- ------------  ---------------      ----- ------------  ---------------
   139      0.224247   9 C  s               539     -0.186445  33 O  pz        
   390     -0.182686  24 C  pz              309      0.180085  19 C  s         
   516     -0.169982  32 C  py              347     -0.165442  21 C  pz        
   514      0.162152  32 C  pz              535     -0.154974  33 O  s         
   537      0.154740  33 O  px        

 Vector   48  Occ=2.000000D+00  E=-6.094744D-01
              MO Center= -1.2D+00,  1.0D+00, -2.2D-01, r^2= 1.1D+01
   Bfn.  Coefficient  Atom+Function         Bfn.  Coefficient  Atom+Function  
  ----- ------------  ---------------      ----- ------------  ---------------
   254      0.237957  16 O  pz              250     -0.167420  16 O  s         
   177      0.164578  11 C  pz              229     -0.165064  15 C  pz        
    35     -0.157361   3 H  s         

 Vector   49  Occ=2.000000D+00  E=-5.967331D-01
              MO Center= -8.5D-01, -9.7D-01, -4.8D-02, r^2= 1.1D+01
   Bfn.  Coefficient  Atom+Function         Bfn.  Coefficient  Atom+Function  
  ----- ------------  ---------------      ----- ------------  ---------------
   512      0.195452  32 C  px              539      0.194116  33 O  pz        
   225     -0.166612  15 C  s                56     -0.153867   5 C  s         

 Vector   50  Occ=2.000000D+00  E=-5.870044D-01
              MO Center= -1.1D+00,  2.3D+00,  2.6D-01, r^2= 7.6D+00
   Bfn.  Coefficient  Atom+Function         Bfn.  Coefficient  Atom+Function  
  ----- ------------  ---------------      ----- ------------  ---------------
   139     -0.228247   9 C  s                82      0.225981   6 O  px        
   176      0.221896  11 C  py              214     -0.222895  14 H  s         
    58      0.217241   5 C  py              145      0.208334   9 C  py        
   215     -0.186095  14 H  s                59     -0.160823   5 C  pz        
    84      0.154263   6 O  pz               80      0.153301   6 O  s         

 Vector   51  Occ=2.000000D+00  E=-5.776715D-01
              MO Center=  8.5D-01,  2.0D+00, -5.1D-02, r^2= 1.2D+01
   Bfn.  Coefficient  Atom+Function         Bfn.  Coefficient  Atom+Function  
  ----- ------------  ---------------      ----- ------------  ---------------
   387     -0.221441  24 C  s                45      0.214935   4 H  s         
   482     -0.214389  29 H  s               460     -0.211861  28 C  px        
   481     -0.189466  29 H  s                44      0.183913   4 H  s         
    16      0.177937   2 C  pz              214      0.168382  14 H  s         
     1     -0.160265   1 H  s                13     -0.158415   2 C  s         

 Vector   52  Occ=2.000000D+00  E=-5.756998D-01
              MO Center=  1.3D+00, -1.2D-01, -1.3D-01, r^2= 1.2D+01
   Bfn.  Coefficient  Atom+Function         Bfn.  Coefficient  Atom+Function  
  ----- ------------  ---------------      ----- ------------  ---------------
   462      0.269561  28 C  pz              511      0.232931  32 C  s         
   386     -0.229415  24 C  s               344     -0.213891  21 C  s         
   490     -0.202664  30 H  s               499      0.200430  31 H  s         
    56      0.166746   5 C  s         

 Vector   53  Occ=2.000000D+00  E=-5.728525D-01
              MO Center=  1.7D+00,  1.4D+00,  6.7D-02, r^2= 1.2D+01
   Bfn.  Coefficient  Atom+Function         Bfn.  Coefficient  Atom+Function  
  ----- ------------  ---------------      ----- ------------  ---------------
   482      0.280631  29 H  s               460      0.272954  28 C  px        
   481      0.241026  29 H  s                45      0.183025   4 H  s         
    82      0.167842   6 O  px        

 Vector   54  Occ=2.000000D+00  E=-5.614905D-01
              MO Center=  6.7D-01,  6.1D-01, -1.3D-01, r^2= 1.2D+01
   Bfn.  Coefficient  Atom+Function         Bfn.  Coefficient  Atom+Function  
  ----- ------------  ---------------      ----- ------------  ---------------
   462      0.205382  28 C  pz              499      0.166880  31 H  s         
    45     -0.153312   4 H  s               386     -0.153818  24 C  s         

 Vector   55  Occ=2.000000D+00  E=-5.534735D-01
              MO Center= -9.9D-01, -2.6D-01, -9.3D-02, r^2= 1.3D+01
   Bfn.  Coefficient  Atom+Function         Bfn.  Coefficient  Atom+Function  
  ----- ------------  ---------------      ----- ------------  ---------------
   309      0.258263  19 C  s               333     -0.251608  20 H  s         
   196     -0.217087  12 H  s               197     -0.210379  12 H  s         
   343     -0.202917  21 C  s               376      0.169512  23 H  s         
   177     -0.166569  11 C  pz              176     -0.153247  11 C  py        

 Vector   56  Occ=2.000000D+00  E=-5.462313D-01
              MO Center= -1.1D+00,  2.2D+00,  2.1D-02, r^2= 9.5D+00
   Bfn.  Coefficient  Atom+Function         Bfn.  Coefficient  Atom+Function  
  ----- ------------  ---------------      ----- ------------  ---------------
   215      0.291620  14 H  s                14     -0.248078   2 C  px        
    55     -0.230459   5 C  s                12      0.227899   2 C  s         
    44     -0.226889   4 H  s               214      0.221682  14 H  s         
   176     -0.216065  11 C  py               73     -0.197590   5 C  dxy       
   108     -0.195646   7 N  py               45     -0.159871   4 H  s         

 Vector   57  Occ=2.000000D+00  E=-5.416342D-01
              MO Center= -1.2D+00,  5.9D-01, -1.1D-01, r^2= 1.0D+01
   Bfn.  Coefficient  Atom+Function         Bfn.  Coefficient  Atom+Function  
  ----- ------------  ---------------      ----- ------------  ---------------
   177      0.242737  11 C  pz              205     -0.233175  13 H  s         
   174     -0.216464  11 C  s               163     -0.213531  10 H  s         
   206     -0.183485  13 H  s               197      0.181308  12 H  s         
   147     -0.165807   9 C  px              162     -0.164484  10 H  s         
   143     -0.154626   9 C  pz        

 Vector   58  Occ=2.000000D+00  E=-5.247346D-01
              MO Center= -5.1D-01,  1.8D+00, -6.0D-02, r^2= 8.2D+00
   Bfn.  Coefficient  Atom+Function         Bfn.  Coefficient  Atom+Function  
  ----- ------------  ---------------      ----- ------------  ---------------
   419      0.216014  26 H  s               175      0.180197  11 C  px        
   141     -0.171934   9 C  px               84     -0.169106   6 O  pz        
     1     -0.167680   1 H  s                16      0.163584   2 C  pz        
   376      0.160872  23 H  s                83     -0.156654   6 O  py        

 Vector   59  Occ=2.000000D+00  E=-5.174461D-01
              MO Center=  4.0D-01, -5.3D-01,  6.4D-02, r^2= 8.5D+00
   Bfn.  Coefficient  Atom+Function         Bfn.  Coefficient  Atom+Function  
  ----- ------------  ---------------      ----- ------------  ---------------
   386      0.253938  24 C  s               389     -0.245787  24 C  py        
   346      0.231972  21 C  py              392     -0.174266  24 C  py        
   419     -0.163376  26 H  s               141     -0.155019   9 C  px        
   309      0.155277  19 C  s               482     -0.154072  29 H  s         

 Vector   60  Occ=2.000000D+00  E=-5.080926D-01
              MO Center= -2.3D-01,  9.5D-01, -2.5D-02, r^2= 8.5D+00
   Bfn.  Coefficient  Atom+Function         Bfn.  Coefficient  Atom+Function  
  ----- ------------  ---------------      ----- ------------  ---------------
   174      0.203084  11 C  s               178     -0.201248  11 C  px        
   376     -0.200252  23 H  s               419     -0.189368  26 H  s         
   139      0.185244   9 C  s                84     -0.174272   6 O  pz        
   163      0.170817  10 H  s               375     -0.168846  23 H  s         
   346      0.167757  21 C  py               56     -0.162543   5 C  s         

 Vector   61  Occ=2.000000D+00  E=-4.989723D-01
              MO Center=  8.5D-01, -1.2D+00, -1.0D-02, r^2= 5.5D+00
   Bfn.  Coefficient  Atom+Function         Bfn.  Coefficient  Atom+Function  
  ----- ------------  ---------------      ----- ------------  ---------------
   367      0.334852  22 H  s               347      0.286822  21 C  pz        
   366      0.270172  22 H  s               376     -0.264258  23 H  s         
   410      0.243179  25 H  s               333      0.216972  20 H  s         
   390     -0.201116  24 C  pz              409      0.180018  25 H  s         
    13     -0.175178   2 C  s               276     -0.164034  17 N  s         

 Vector   62  Occ=2.000000D+00  E=-4.820526D-01
              MO Center=  1.8D+00, -7.9D-01,  7.4D-03, r^2= 8.0D+00
   Bfn.  Coefficient  Atom+Function         Bfn.  Coefficient  Atom+Function  
  ----- ------------  ---------------      ----- ------------  ---------------
   435     -0.213404  27 S  px              388      0.211488  24 C  px        
   461      0.198986  28 C  py              464      0.193596  28 C  py        
   314      0.187626  19 C  px              343     -0.185329  21 C  s         
   436     -0.182668  27 S  py              391      0.170740  24 C  px        
   481      0.164326  29 H  s               538     -0.160447  33 O  py        

 Vector   63  Occ=2.000000D+00  E=-4.364211D-01
              MO Center= -1.1D+00, -1.4D+00,  9.5D-02, r^2= 8.0D+00
   Bfn.  Coefficient  Atom+Function         Bfn.  Coefficient  Atom+Function  
  ----- ------------  ---------------      ----- ------------  ---------------
   538      0.379436  33 O  py              309      0.327830  19 C  s         
   541      0.300581  33 O  py              253     -0.291544  16 O  py        
   256     -0.228962  16 O  py              343     -0.169036  21 C  s         
   333     -0.165061  20 H  s               231      0.157246  15 C  py        

 Vector   64  Occ=2.000000D+00  E=-4.307194D-01
              MO Center= -1.1D+00, -7.7D-01, -2.1D-01, r^2= 8.5D+00
   Bfn.  Coefficient  Atom+Function         Bfn.  Coefficient  Atom+Function  
  ----- ------------  ---------------      ----- ------------  ---------------
   253      0.327381  16 O  py              256      0.264303  16 O  py        
   139     -0.238179   9 C  s               538      0.218567  33 O  py        
   510     -0.200340  32 C  s               225      0.199276  15 C  s         
   537      0.196560  33 O  px              309      0.183128  19 C  s         
   252     -0.180471  16 O  px              516     -0.178044  32 C  py        

 Vector   65  Occ=2.000000D+00  E=-4.265423D-01
              MO Center= -1.0D+00, -2.8D+00,  2.2D-01, r^2= 7.9D+00
   Bfn.  Coefficient  Atom+Function         Bfn.  Coefficient  Atom+Function  
  ----- ------------  ---------------      ----- ------------  ---------------
   562      0.285579  34 N  px              565      0.241552  34 N  px        
   537     -0.239004  33 O  px              538      0.236657  33 O  py        
   564      0.236540  34 N  pz              309      0.223733  19 C  s         
   567      0.206396  34 N  pz              540     -0.191447  33 O  px        
   541      0.190397  33 O  py              539     -0.185987  33 O  pz        

 Vector   66  Occ=2.000000D+00  E=-4.245421D-01
              MO Center=  1.4D-01,  2.4D+00,  5.9D-01, r^2= 4.5D+00
   Bfn.  Coefficient  Atom+Function         Bfn.  Coefficient  Atom+Function  
  ----- ------------  ---------------      ----- ------------  ---------------
    83      0.387200   6 O  py               13      0.379665   2 C  s         
    82      0.344062   6 O  px               86      0.303330   6 O  py        
    85      0.281292   6 O  px               18      0.210536   2 C  py        
    56     -0.208769   5 C  s               226     -0.202547  15 C  s         
    64     -0.191181   5 C  py               15      0.189701   2 C  py        

 Vector   67  Occ=2.000000D+00  E=-4.166487D-01
              MO Center=  2.8D+00, -7.0D-01,  9.5D-02, r^2= 5.4D+00
   Bfn.  Coefficient  Atom+Function         Bfn.  Coefficient  Atom+Function  
  ----- ------------  ---------------      ----- ------------  ---------------
   430      0.396823  27 S  s               436     -0.297008  27 S  py        
   391     -0.242788  24 C  px              435      0.242331  27 S  px        
   464      0.227987  28 C  py              482     -0.212066  29 H  s         
   461      0.192381  28 C  py              388     -0.190490  24 C  px        
   438      0.162379  27 S  px              439     -0.160136  27 S  py        

 Vector   68  Occ=2.000000D+00  E=-4.020263D-01
              MO Center= -8.6D-01,  1.6D+00,  3.6D-02, r^2= 5.1D+00
   Bfn.  Coefficient  Atom+Function         Bfn.  Coefficient  Atom+Function  
  ----- ------------  ---------------      ----- ------------  ---------------
   109      0.279993   7 N  pz              112      0.251112   7 N  pz        
   253     -0.231904  16 O  py               84     -0.213724   6 O  pz        
   256     -0.201555  16 O  py               87     -0.170748   6 O  pz        
    83     -0.163681   6 O  py              277      0.162388  17 N  px        
   107     -0.156863   7 N  px              231      0.156575  15 C  py        

 Vector   69  Occ=2.000000D+00  E=-3.946223D-01
              MO Center= -7.1D-01, -3.5D-01, -2.9D-01, r^2= 5.1D+00
   Bfn.  Coefficient  Atom+Function         Bfn.  Coefficient  Atom+Function  
  ----- ------------  ---------------      ----- ------------  ---------------
   277     -0.328604  17 N  px              280     -0.317735  17 N  px        
   252      0.312367  16 O  px              255      0.253902  16 O  px        
   386     -0.187147  24 C  s               419      0.164014  26 H  s         
   344     -0.160047  21 C  s         

 Vector   70  Occ=2.000000D+00  E=-3.221787D-01
              MO Center=  3.4D+00, -6.9D-01,  9.1D-02, r^2= 2.2D+00
   Bfn.  Coefficient  Atom+Function         Bfn.  Coefficient  Atom+Function  
  ----- ------------  ---------------      ----- ------------  ---------------
   437      0.504436  27 S  pz              440      0.497004  27 S  pz        
   419     -0.236972  26 H  s               410      0.193457  25 H  s         
   491      0.157750  30 H  s               500     -0.151603  31 H  s         

 Vector   71  Occ=0.000000D+00  E= 2.748265D-02
              MO Center= -2.0D+00, -5.3D-01, -1.1D+00, r^2= 4.3D+01
   Bfn.  Coefficient  Atom+Function         Bfn.  Coefficient  Atom+Function  
  ----- ------------  ---------------      ----- ------------  ---------------
    56      2.571954   5 C  s               561     -2.373010  34 N  s         
   226      2.126388  15 C  s               511      1.854352  32 C  s         
   106     -1.774585   7 N  s               318     -1.722441  19 C  py        
   420      1.585201  26 H  s               173      1.521727  11 C  s         
   519     -1.502837  32 C  py              233     -1.426607  15 C  px        

 Vector   72  Occ=0.000000D+00  E= 2.956358D-02
              MO Center= -1.6D+00, -4.9D-01, -9.4D-01, r^2= 4.8D+01
   Bfn.  Coefficient  Atom+Function         Bfn.  Coefficient  Atom+Function  
  ----- ------------  ---------------      ----- ------------  ---------------
   318      3.253940  19 C  py              561      2.426973  34 N  s         
   234      2.248997  15 C  py              233     -2.133843  15 C  px        
   106     -2.086214   7 N  s               198     -2.046780  12 H  s         
   519      1.922158  32 C  py              585      1.571236  35 H  s         
    37     -1.407789   3 H  s               594      1.402463  36 H  s         

 Vector   73  Occ=0.000000D+00  E= 4.026580D-02
              MO Center=  4.9D-02,  3.3D+00, -3.5D-01, r^2= 3.9D+01
   Bfn.  Coefficient  Atom+Function         Bfn.  Coefficient  Atom+Function  
  ----- ------------  ---------------      ----- ------------  ---------------
    64      3.936038   5 C  py              147      3.618550   9 C  px        
    12      2.106356   2 C  s               198      2.101551  12 H  s         
    63      1.956587   5 C  px              483     -1.808682  29 H  s         
   318     -1.785648  19 C  py              174      1.747608  11 C  s         
   233      1.707010  15 C  px                3     -1.657608   1 H  s         

 Vector   74  Occ=0.000000D+00  E= 4.618625D-02
              MO Center= -9.5D-01,  1.9D+00,  2.2D-01, r^2= 3.8D+01
   Bfn.  Coefficient  Atom+Function         Bfn.  Coefficient  Atom+Function  
  ----- ------------  ---------------      ----- ------------  ---------------
   164      3.078597  10 H  s               207     -2.733920  13 H  s         
    56     -2.704968   5 C  s                13      2.152885   2 C  s         
   483      1.967648  29 H  s                46      1.905033   4 H  s         
   226     -1.912313  15 C  s               147     -1.714598   9 C  px        
   334     -1.680966  20 H  s               149     -1.619295   9 C  pz        

 Vector   75  Occ=0.000000D+00  E= 4.765842D-02
              MO Center=  6.5D-02,  2.0D+00, -5.5D-01, r^2= 4.8D+01
   Bfn.  Coefficient  Atom+Function         Bfn.  Coefficient  Atom+Function  
  ----- ------------  ---------------      ----- ------------  ---------------
    37      2.882209   3 H  s               483     -2.733986  29 H  s         
   147     -2.136708   9 C  px              334     -1.868485  20 H  s         
   216     -1.854652  14 H  s               106      1.759400   7 N  s         
   207     -1.693795  13 H  s               519      1.673228  32 C  py        
   466      1.660824  28 C  px              319     -1.536103  19 C  pz        

 Vector   76  Occ=0.000000D+00  E= 5.288747D-02
              MO Center= -9.0D-01, -3.5D+00, -1.2D+00, r^2= 3.4D+01
   Bfn.  Coefficient  Atom+Function         Bfn.  Coefficient  Atom+Function  
  ----- ------------  ---------------      ----- ------------  ---------------
   594      3.234946  36 H  s               585     -2.647723  35 H  s         
   411     -2.190224  25 H  s               198     -1.679772  12 H  s         
   317      1.687624  19 C  px              420      1.605502  26 H  s         
   164     -1.558275  10 H  s               351      1.499382  21 C  px        
   511      1.486164  32 C  s               344     -1.423203  21 C  s         

 Vector   77  Occ=0.000000D+00  E= 5.753980D-02
              MO Center=  6.8D-01,  9.9D-01, -1.7D-01, r^2= 4.7D+01
   Bfn.  Coefficient  Atom+Function         Bfn.  Coefficient  Atom+Function  
  ----- ------------  ---------------      ----- ------------  ---------------
   334     -3.512621  20 H  s               483      3.368404  29 H  s         
    13      3.307386   2 C  s               377      2.720838  23 H  s         
   130      2.503287   8 H  s               164     -2.447398  10 H  s         
   106      2.278642   7 N  s               216     -2.207113  14 H  s         
   174      2.194332  11 C  s               198      2.111546  12 H  s         

 Vector   78  Occ=0.000000D+00  E= 5.994415D-02
              MO Center=  3.2D-01,  7.3D-01,  4.4D-01, r^2= 4.0D+01
   Bfn.  Coefficient  Atom+Function         Bfn.  Coefficient  Atom+Function  
  ----- ------------  ---------------      ----- ------------  ---------------
   420      4.164536  26 H  s               164     -3.192761  10 H  s         
     3     -2.894934   1 H  s               368     -2.790431  22 H  s         
    46      2.623900   4 H  s                63     -2.019470   5 C  px        
   483      1.836183  29 H  s               377     -1.684704  23 H  s         
    37      1.635883   3 H  s               343      1.558703  21 C  s         

 Vector   79  Occ=0.000000D+00  E= 6.412155D-02
              MO Center= -5.9D-02,  9.1D-01, -2.4D-01, r^2= 4.3D+01
   Bfn.  Coefficient  Atom+Function         Bfn.  Coefficient  Atom+Function  
  ----- ------------  ---------------      ----- ------------  ---------------
   198      3.974327  12 H  s               207     -3.435001  13 H  s         
   511      3.259711  32 C  s               492      3.016720  30 H  s         
   368     -2.638774  22 H  s               344     -2.509221  21 C  s         
   501     -2.130041  31 H  s               343      2.101737  21 C  s         
   420      2.042583  26 H  s               519      2.039305  32 C  py        

 Vector   80  Occ=0.000000D+00  E= 6.734909D-02
              MO Center= -1.0D-01, -4.4D-01, -1.7D-01, r^2= 4.4D+01
   Bfn.  Coefficient  Atom+Function         Bfn.  Coefficient  Atom+Function  
  ----- ------------  ---------------      ----- ------------  ---------------
   377      5.620991  23 H  s                56      4.137609   5 C  s         
   164     -4.046775  10 H  s               334     -3.618928  20 H  s         
   174     -3.360671  11 C  s               319     -2.725985  19 C  pz        
   216      2.468788  14 H  s               106     -2.201307   7 N  s         
   149      2.181865   9 C  pz              130     -2.018161   8 H  s         

 Vector   81  Occ=0.000000D+00  E= 7.244998D-02
              MO Center= -7.3D-02,  1.9D+00, -2.7D-01, r^2= 4.6D+01
   Bfn.  Coefficient  Atom+Function         Bfn.  Coefficient  Atom+Function  
  ----- ------------  ---------------      ----- ------------  ---------------
    56      6.050374   5 C  s               234     -4.408514  15 C  py        
    37     -4.058126   3 H  s               216     -3.743995  14 H  s         
    46      3.491386   4 H  s               164      3.278746  10 H  s         
   276     -2.659219  17 N  s               113     -2.570121   7 N  px        
   114     -2.554154   7 N  py              207      2.464650  13 H  s         

 Vector   82  Occ=0.000000D+00  E= 7.639175D-02
              MO Center=  3.7D-01,  5.1D-01, -1.2D+00, r^2= 4.5D+01
   Bfn.  Coefficient  Atom+Function         Bfn.  Coefficient  Atom+Function  
  ----- ------------  ---------------      ----- ------------  ---------------
    13      4.376707   2 C  s               216     -3.413856  14 H  s         
   483     -3.291785  29 H  s               492      3.141285  30 H  s         
   420     -3.086230  26 H  s                 3     -2.957063   1 H  s         
   207      2.888750  13 H  s               334      2.767814  20 H  s         
   585     -2.765328  35 H  s               511     -2.584449  32 C  s         

 Vector   83  Occ=0.000000D+00  E= 8.310792D-02
              MO Center= -8.8D-01, -6.4D-02,  5.9D-01, r^2= 4.1D+01
   Bfn.  Coefficient  Atom+Function         Bfn.  Coefficient  Atom+Function  
  ----- ------------  ---------------      ----- ------------  ---------------
   368      5.960315  22 H  s               334      5.256117  20 H  s         
   164     -4.871862  10 H  s               377     -4.740681  23 H  s         
   198      4.707958  12 H  s               353     -3.682736  21 C  pz        
   234      3.350878  15 C  py              319      3.268907  19 C  pz        
   207     -3.202653  13 H  s               318      3.164574  19 C  py        

 Vector   84  Occ=0.000000D+00  E= 8.911660D-02
              MO Center=  2.9D-01,  1.4D-01, -3.3D-01, r^2= 4.3D+01
   Bfn.  Coefficient  Atom+Function         Bfn.  Coefficient  Atom+Function  
  ----- ------------  ---------------      ----- ------------  ---------------
   164      4.005099  10 H  s               431     -3.970234  27 S  s         
   130     -3.872007   8 H  s               492     -3.813055  30 H  s         
     3      3.625118   1 H  s               585     -3.487734  35 H  s         
   377      3.404366  23 H  s               334      3.103828  20 H  s         
   459      3.072568  28 C  s               300     -2.763425  18 H  s         

 Vector   85  Occ=0.000000D+00  E= 9.018198D-02
              MO Center= -2.4D-01,  1.3D+00, -6.2D-01, r^2= 4.2D+01
   Bfn.  Coefficient  Atom+Function         Bfn.  Coefficient  Atom+Function  
  ----- ------------  ---------------      ----- ------------  ---------------
    13      5.353290   2 C  s               130      4.381459   8 H  s         
   207     -4.324778  13 H  s               318     -4.233308  19 C  py        
   377      3.950542  23 H  s               276      3.772939  17 N  s         
   501      3.199378  31 H  s               368     -3.045514  22 H  s         
   511     -2.897822  32 C  s               585     -2.873574  35 H  s         

 Vector   86  Occ=0.000000D+00  E= 9.629680D-02
              MO Center=  1.2D+00, -1.2D-01,  3.1D-01, r^2= 3.6D+01
   Bfn.  Coefficient  Atom+Function         Bfn.  Coefficient  Atom+Function  
  ----- ------------  ---------------      ----- ------------  ---------------
   411      6.283918  25 H  s               501      5.586034  31 H  s         
   334     -5.242766  20 H  s               377     -3.855715  23 H  s         
   431     -3.622373  27 S  s               352     -3.013173  21 C  py        
   318      2.862998  19 C  py               56     -2.770616   5 C  s         
   351     -2.773620  21 C  px              216      2.740856  14 H  s         

 Vector   87  Occ=0.000000D+00  E= 9.813648D-02
              MO Center=  1.4D-01,  6.5D-01, -1.1D-01, r^2= 3.8D+01
   Bfn.  Coefficient  Atom+Function         Bfn.  Coefficient  Atom+Function  
  ----- ------------  ---------------      ----- ------------  ---------------
    56     11.853040   5 C  s                13     -7.394456   2 C  s         
   411      6.564240  25 H  s               174     -6.235124  11 C  s         
   226      4.914067  15 C  s               387     -3.975975  24 C  s         
   300      3.907079  18 H  s               106     -3.263964   7 N  s         
   492     -3.103570  30 H  s               235      3.082307  15 C  pz        

 Vector   88  Occ=0.000000D+00  E= 1.069482D-01
[...]
   106     -6.473551   7 N  s               276      6.239399  17 N  s         
   344     -5.798996  21 C  s               206      5.769663  13 H  s         
   285     -5.256626  17 N  pz               64     -5.079413   5 C  py        
   387      5.073612  24 C  s               226     -5.037357  15 C  s         

 Vector  176  Occ=0.000000D+00  E= 4.419436D-01
              MO Center=  2.1D-01, -2.7D-03,  2.5D-01, r^2= 2.0D+01
   Bfn.  Coefficient  Atom+Function         Bfn.  Coefficient  Atom+Function  
  ----- ------------  ---------------      ----- ------------  ---------------
   276     13.870184  17 N  s               173     -9.961676  11 C  s         
   344     -9.743870  21 C  s               459      9.209436  28 C  s         
   511      8.146461  32 C  s               561     -6.797139  34 N  s         
   233     -6.431299  15 C  px              353      6.460139  21 C  pz        
    13      6.072426   2 C  s               386     -6.089094  24 C  s         

 Vector  177  Occ=0.000000D+00  E= 4.469464D-01
              MO Center= -1.1D-01,  3.2D-01,  2.2D-01, r^2= 2.2D+01
   Bfn.  Coefficient  Atom+Function         Bfn.  Coefficient  Atom+Function  
  ----- ------------  ---------------      ----- ------------  ---------------
    13     10.574360   2 C  s               226     -8.725549  15 C  s         
    12      8.599134   2 C  s               511     -6.612570  32 C  s         
   394     -6.254181  24 C  px               36     -6.105984   3 H  s         
   284     -5.755803  17 N  py                2     -5.708020   1 H  s         
   353     -5.655353  21 C  pz              431      5.480804  27 S  s         

 Vector  178  Occ=0.000000D+00  E= 4.490125D-01
              MO Center= -4.1D-01,  1.2D+00, -2.0D-01, r^2= 2.2D+01
   Bfn.  Coefficient  Atom+Function         Bfn.  Coefficient  Atom+Function  
  ----- ------------  ---------------      ----- ------------  ---------------
   174     15.630401  11 C  s               318     10.232699  19 C  py        
   394      9.704331  24 C  px              351     -8.216401  21 C  px        
    12      8.118490   2 C  s               352     -7.085618  21 C  py        
    56     -6.832966   5 C  s               317      6.864611  19 C  px        
    13      6.631292   2 C  s                 2     -6.261418   1 H  s         

 Vector  179  Occ=0.000000D+00  E= 4.541091D-01
              MO Center= -5.5D-01,  8.4D-01, -1.7D-01, r^2= 2.2D+01
   Bfn.  Coefficient  Atom+Function         Bfn.  Coefficient  Atom+Function  
  ----- ------------  ---------------      ----- ------------  ---------------
    13     16.746824   2 C  s               233     11.571259  15 C  px        
   148     -9.006190   9 C  py              234     -8.422276  15 C  py        
   113     -8.319988   7 N  px               56      7.893272   5 C  s         
   276     -7.715368  17 N  s               226     -7.596885  15 C  s         
   140     -7.354395   9 C  s                64     -6.644548   5 C  py        

 Vector  180  Occ=0.000000D+00  E= 4.558454D-01
              MO Center=  6.9D-01, -4.3D-03, -4.7D-01, r^2= 2.2D+01
   Bfn.  Coefficient  Atom+Function         Bfn.  Coefficient  Atom+Function  
  ----- ------------  ---------------      ----- ------------  ---------------
   351      8.345872  21 C  px              318     -7.538334  19 C  py        
   343      6.777659  21 C  s               420      6.741892  26 H  s         
    13      6.490829   2 C  s                 2     -5.493894   1 H  s         
    12      5.423722   2 C  s               173      5.258784  11 C  s         
   233     -5.271532  15 C  px              511      5.279743  32 C  s         

 Vector  181  Occ=0.000000D+00  E= 4.577780D-01
              MO Center=  2.0D-01, -4.7D-02, -2.1D-01, r^2= 2.5D+01
   Bfn.  Coefficient  Atom+Function         Bfn.  Coefficient  Atom+Function  
  ----- ------------  ---------------      ----- ------------  ---------------
   387    -15.829700  24 C  s                56     15.431772   5 C  s         
   511    -15.236040  32 C  s               344      9.942522  21 C  s         
   343     -9.017940  21 C  s               174     -8.797609  11 C  s         
   226      7.951262  15 C  s               318     -7.707537  19 C  py        
   106     -7.386879   7 N  s               561      7.237026  34 N  s         

 Vector  182  Occ=0.000000D+00  E= 4.637623D-01
              MO Center=  8.6D-01,  5.9D-01, -3.3D-02, r^2= 2.3D+01
   Bfn.  Coefficient  Atom+Function         Bfn.  Coefficient  Atom+Function  
  ----- ------------  ---------------      ----- ------------  ---------------
    13      9.511089   2 C  s               387      8.683279  24 C  s         
    56     -8.416762   5 C  s               174      7.492238  11 C  s         
   226     -6.869229  15 C  s               284      6.262724  17 N  py        
   352     -6.176363  21 C  py              318      5.825858  19 C  py        
    12      5.516069   2 C  s               309      5.229780  19 C  s         

 Vector  183  Occ=0.000000D+00  E= 4.654036D-01
              MO Center= -4.2D-03,  1.6D+00,  9.2D-02, r^2= 2.4D+01
   Bfn.  Coefficient  Atom+Function         Bfn.  Coefficient  Atom+Function  
  ----- ------------  ---------------      ----- ------------  ---------------
    12      6.258691   2 C  s                36     -5.742236   3 H  s         
   235     -5.475776  15 C  pz              149      5.447856   9 C  pz        
   215      4.837331  14 H  s               234     -4.537784  15 C  py        
   173     -4.220872  11 C  s               115     -4.130828   7 N  pz        
    81      4.033159   6 O  s               491      3.783362  30 H  s         

 Vector  184  Occ=0.000000D+00  E= 4.704195D-01
              MO Center=  8.2D-01,  2.5D-01, -2.4D-01, r^2= 2.1D+01
   Bfn.  Coefficient  Atom+Function         Bfn.  Coefficient  Atom+Function  
  ----- ------------  ---------------      ----- ------------  ---------------
   276     10.846790  17 N  s               459     -8.842404  28 C  s         
   420      8.235322  26 H  s               491      7.689523  30 H  s         
   419      7.387518  26 H  s                12      7.127291   2 C  s         
   319     -6.233928  19 C  pz               13      6.126375   2 C  s         
   386     -6.037728  24 C  s               394      5.506832  24 C  px        

 Vector  185  Occ=0.000000D+00  E= 4.728661D-01
              MO Center=  1.5D-01, -1.3D-01, -1.6D-01, r^2= 2.2D+01
   Bfn.  Coefficient  Atom+Function         Bfn.  Coefficient  Atom+Function  
  ----- ------------  ---------------      ----- ------------  ---------------
   318    -15.788431  19 C  py              174     14.698945  11 C  s         
   459    -11.140413  28 C  s               147     10.136848   9 C  px        
   234     -9.300637  15 C  py              351      9.244468  21 C  px        
   387     -8.525715  24 C  s               317      8.218019  19 C  px        
   226      6.196571  15 C  s               395      6.026946  24 C  py        

 Vector  186  Occ=0.000000D+00  E= 4.808636D-01
              MO Center= -1.0D+00,  4.5D-01,  5.3D-02, r^2= 2.1D+01
   Bfn.  Coefficient  Atom+Function         Bfn.  Coefficient  Atom+Function  
  ----- ------------  ---------------      ----- ------------  ---------------
   174     19.788848  11 C  s               106    -11.259390   7 N  s         
    56    -10.912833   5 C  s               561    -10.743608  34 N  s         
   113      9.723829   7 N  px              511      9.756196  32 C  s         
   276     -8.711246  17 N  s               387      8.280108  24 C  s         
   147      8.131472   9 C  px              318      7.410939  19 C  py        

 Vector  187  Occ=0.000000D+00  E= 4.827546D-01
              MO Center= -1.4D+00,  7.4D-01, -4.0D-01, r^2= 2.3D+01
   Bfn.  Coefficient  Atom+Function         Bfn.  Coefficient  Atom+Function  
  ----- ------------  ---------------      ----- ------------  ---------------
   174     21.170042  11 C  s               318    -15.025043  19 C  py        
    56    -13.323634   5 C  s                13     11.321375   2 C  s         
   206    -10.364576  13 H  s               106      9.967968   7 N  s         
   173      9.653949  11 C  s               387     -9.087452  24 C  s         
   276      8.377774  17 N  s               233      7.447501  15 C  px        

 Vector  188  Occ=0.000000D+00  E= 4.854955D-01
              MO Center=  5.0D-01, -2.5D-01, -3.6D-01, r^2= 2.0D+01
   Bfn.  Coefficient  Atom+Function         Bfn.  Coefficient  Atom+Function  
  ----- ------------  ---------------      ----- ------------  ---------------
   387     13.233191  24 C  s               318     12.320957  19 C  py        
   343     11.103216  21 C  s                13      9.417323   2 C  s         
   511      9.323561  32 C  s               410     -7.234788  25 H  s         
   147     -7.150188   9 C  px              226     -6.950162  15 C  s         
   317      6.919168  19 C  px              344     -6.734602  21 C  s         

 Vector  189  Occ=0.000000D+00  E= 4.925603D-01
              MO Center=  6.1D-01, -2.4D-02,  3.9D-03, r^2= 2.1D+01
   Bfn.  Coefficient  Atom+Function         Bfn.  Coefficient  Atom+Function  
  ----- ------------  ---------------      ----- ------------  ---------------
    13     29.526220   2 C  s                56    -29.031899   5 C  s         
   226    -21.743736  15 C  s               387     16.964431  24 C  s         
    64    -11.436000   5 C  py              140    -10.946400   9 C  s         
   276     10.897552  17 N  s               284     10.445087  17 N  py        
   310     -8.514627  19 C  s               106      8.390706   7 N  s         

 Vector  190  Occ=0.000000D+00  E= 4.956802D-01
              MO Center= -8.8D-02,  9.3D-02, -9.0D-02, r^2= 2.2D+01
   Bfn.  Coefficient  Atom+Function         Bfn.  Coefficient  Atom+Function  
  ----- ------------  ---------------      ----- ------------  ---------------
   233      9.979842  15 C  px              148      8.559158   9 C  py        
   234     -7.846704  15 C  py              420     -6.060068  26 H  s         
   174      5.952034  11 C  s               283     -5.834397  17 N  px        
   344      5.554153  21 C  s               163      5.386416  10 H  s         
   343     -5.403334  21 C  s               511     -5.405557  32 C  s         

 Vector  191  Occ=0.000000D+00  E= 4.998691D-01
              MO Center=  5.9D-01,  7.5D-01,  7.4D-03, r^2= 2.4D+01
   Bfn.  Coefficient  Atom+Function         Bfn.  Coefficient  Atom+Function  
  ----- ------------  ---------------      ----- ------------  ---------------
    56    -24.724154   5 C  s                13     23.109150   2 C  s         
   174     19.134538  11 C  s               234    -11.670109  15 C  py        
   226    -10.136636  15 C  s               318     -9.487368  19 C  py        
   233      9.024070  15 C  px               64     -8.549810   5 C  py        
   140     -8.255043   9 C  s               173      8.009318  11 C  s         

 Vector  192  Occ=0.000000D+00  E= 5.031508D-01
              MO Center= -2.2D-01, -6.4D-02, -2.9D-01, r^2= 2.1D+01
   Bfn.  Coefficient  Atom+Function         Bfn.  Coefficient  Atom+Function  
  ----- ------------  ---------------      ----- ------------  ---------------
   174    -12.944727  11 C  s                56     11.802104   5 C  s         
   318     11.516627  19 C  py              387     11.371753  24 C  s         
   459    -10.530518  28 C  s               458     -7.798139  28 C  s         
   106     -6.721516   7 N  s               147     -6.394240   9 C  px        
   352     -6.315344  21 C  py              343      5.898350  21 C  s         


 center of mass
 --------------
 x =   0.00482598 y =  -0.06818162 z =   0.02045621

 moments of inertia (a.u.)
 ------------------
        5777.724807594825          -0.000000000001          -0.000000000000
          -0.000000000001        4433.401069840832          -0.000000000003
          -0.000000000000          -0.000000000003        9431.929059229988

  Mulliken analysis of the total density
  --------------------------------------

    Atom       Charge   Shell Charges
 -----------   ------   -------------------------------------------------------
    1 H    1     0.82   0.76  0.09 -0.00  0.03 -0.06
    2 C    6     6.45   2.01  0.66  0.32  0.21  2.07  1.02 -0.01  0.06  0.12
    3 H    1     0.83   0.76  0.09  0.01  0.03 -0.07
    4 H    1     0.98   0.76  0.23  0.01  0.03 -0.06
    5 C    6     4.98   2.01  0.68  0.09 -0.10  1.89  0.29 -0.12  0.24 -0.00
    6 O    8     8.77   2.01  0.82  0.99  0.15  2.79  1.84  0.16  0.01 -0.02
    7 N    7     7.60   2.01  0.72  0.83 -0.09  2.45  1.44  0.15  0.05  0.05
    8 H    1     0.95   0.77  0.20 -0.02  0.05 -0.05
    9 C    6     6.60   2.01  0.66  0.25  0.03  2.00  1.43 -0.09  0.14  0.19
   10 H    1     1.15   0.79  0.33  0.01  0.03 -0.00
   11 C    6     5.84   2.01  0.66  0.24  0.30  2.04  0.55 -0.03  0.07  0.01
   12 H    1     0.92   0.77  0.20  0.01  0.03 -0.09
   13 H    1     0.90   0.77  0.14  0.03  0.03 -0.08
   14 H    1     0.95   0.77  0.22  0.01  0.03 -0.08
   15 C    6     4.30   2.01  0.68 -0.15  0.07  1.88 -0.00 -0.04  0.23 -0.40
   16 O    8     8.88   2.01  0.82  1.04  0.17  2.79  1.88  0.16  0.01  0.00
   17 N    7     7.55   2.01  0.72  0.84 -0.11  2.45  1.47  0.05  0.05  0.07
   18 H    1     1.03   0.76  0.25 -0.00  0.05 -0.03
   19 C    6     6.23   2.01  0.66  0.29 -0.06  2.00  1.11  0.03  0.14  0.05
   20 H    1     1.12   0.78  0.33 -0.02  0.03 -0.00
   21 C    6     5.99   2.01  0.66  0.52 -0.08  2.03  0.57  0.13  0.09  0.06
   22 H    1     0.92   0.78  0.22 -0.03  0.03 -0.08
   23 H    1     0.98   0.79  0.25  0.01  0.03 -0.10
   24 C    6     6.01   2.01  0.66  0.31 -0.14  2.00  0.96  0.10  0.10  0.01
   25 H    1     1.03   0.78  0.29 -0.03  0.03 -0.03
   26 H    1     1.13   0.77  0.38  0.02  0.03 -0.08
   27 S   16    15.33   2.00  2.03  0.86  0.74  0.13  6.00  2.32  1.30  0.04  0.12 -0.21
   28 C    6     5.89   2.01  0.65  0.36 -0.10  2.00  0.95 -0.01  0.07 -0.03
   29 H    1     1.21   0.76  0.46 -0.02  0.03 -0.03
   30 H    1     1.07   0.76  0.27  0.02  0.03 -0.01
   31 H    1     1.07   0.75  0.27  0.02  0.03  0.00
   32 C    6     4.58   2.01  0.68  0.01  0.11  1.89 -0.18  0.00  0.23 -0.17
   33 O    8     8.80   2.01  0.82  1.03  0.17  2.79  1.84  0.13  0.01 -0.00
   34 N    7     7.20   2.01  0.72  0.82 -0.17  2.47  1.27  0.07  0.04 -0.02
   35 H    1     0.98   0.76  0.22 -0.01  0.05 -0.04
   36 H    1     0.98   0.75  0.20 -0.01  0.05 -0.02

       Multipole analysis of the density wrt the origin
       ------------------------------------------------

     L   x y z        total         open         nuclear
     -   - - -        -----         ----         -------
     0   0 0 0     -0.000000      0.000000    140.000000

     1   1 0 0     -1.158289      0.000000      0.000000
     1   0 1 0      0.479328      0.000000      0.000000
     1   0 0 1     -1.026438      0.000000      0.000000

     2   2 0 0    -84.946680      0.000000   2230.526998
     2   1 1 0     -3.856028      0.000000     -3.970134
     2   1 0 1     -1.154602      0.000000     -8.932841
     2   0 2 0    -62.445219      0.000000   2977.714934
     2   0 1 1      5.720028      0.000000      3.642087
     2   0 0 2    -88.880719      0.000000    223.520371


 Task  times  cpu:     4188.5s     wall:     4312.5s


                                NWChem Input Module
                                -------------------


 Summary of allocated global arrays
-----------------------------------
  No active global arrays


MA_summarize_allocated_blocks: starting scan ...
MA_summarize_allocated_blocks: scan completed: 0 heap blocks, 0 stack blocks
MA usage statistics:

	allocation statistics:
					      heap	     stack
					      ----	     -----
	current number of blocks	         0	         0
	maximum number of blocks	        16	        14
	current total bytes		         0	         0
	maximum total bytes		    138096	  33951752
	maximum total K-bytes		       139	     33952
	maximum total M-bytes		         1	        34


                                     CITATION
                                     --------
                Please cite the following reference when publishing
                           results obtained with NWChem:

          E. Apra, E. J. Bylaska, W. A. de Jong, N. Govind, K. Kowalski,
       T. P. Straatsma, M. Valiev, H. J. J. van Dam, Y. Alexeev, J. Anchell,
       V. Anisimov, F. W. Aquino, R. Atta-Fynn, J. Autschbach, N. P. Bauman,
     J. C. Becca, D. E. Bernholdt, K. Bhaskaran-Nair, S. Bogatko, P. Borowski,
         J. Boschen, J. Brabec, A. Bruner, E. Cauet, Y. Chen, G. N. Chuev,
      C. J. Cramer, J. Daily, M. J. O. Deegan, T. H. Dunning Jr., M. Dupuis,
   K. G. Dyall, G. I. Fann, S. A. Fischer, A. Fonari, H. Fruchtl, L. Gagliardi,
      J. Garza, N. Gawande, S. Ghosh, K. Glaesemann, A. W. Gotz, J. Hammond,
       V. Helms, E. D. Hermes, K. Hirao, S. Hirata, M. Jacquelin, L. Jensen,
   B. G. Johnson, H. Jonsson, R. A. Kendall, M. Klemm, R. Kobayashi, V. Konkov,
      S. Krishnamoorthy, M. Krishnan, Z. Lin, R. D. Lins, R. J. Littlefield,
      A. J. Logsdail, K. Lopata, W. Ma, A. V. Marenich, J. Martin del Campo,
   D. Mejia-Rodriguez, J. E. Moore, J. M. Mullin, T. Nakajima, D. R. Nascimento,
    J. A. Nichols, P. J. Nichols, J. Nieplocha, A. Otero-de-la-Roza, B. Palmer,
    A. Panyala, T. Pirojsirikul, B. Peng, R. Peverati, J. Pittner, L. Pollack,
   R. M. Richard, P. Sadayappan, G. C. Schatz, W. A. Shelton, D. W. Silverstein,
   D. M. A. Smith, T. A. Soares, D. Song, M. Swart, H. L. Taylor, G. S. Thomas,
            V. Tipparaju, D. G. Truhlar, K. Tsemekhman, T. Van Voorhis,
      A. Vazquez-Mayagoitia, P. Verma, O. Villa, A. Vishnu, K. D. Vogiatzis,
        D. Wang, J. H. Weare, M. J. Williamson, T. L. Windus, K. Wolinski,
        A. T. Wong, Q. Wu, C. Yang, Q. Yu, M. Zacharias, Z. Zhang, Y. Zhao,
                                and R. J. Harrison
                        "NWChem: Past, present, and future
                         J. Chem. Phys. 152, 184102 (2020)
                               doi:10.1063/5.0004997

                                      AUTHORS
                                      -------
  E. Apra, E. J. Bylaska, N. Govind, K. Kowalski, M. Valiev, D. Mejia-Rodriguez,
       A. Kunitsa, N. P. Bauman, A. Panyala, W. A. de Jong, T. P. Straatsma,
   H. J. J. van Dam, D. Wang, T. L. Windus, J. Hammond, J. Autschbach, A. Woods,
    K. Bhaskaran-Nair, J. Brabec, K. Lopata, S. A. Fischer, S. Krishnamoorthy,
     M. Jacquelin, W. Ma, M. Klemm, O. Villa, Y. Chen, V. Anisimov, F. Aquino,
     S. Hirata, M. T. Hackler, E. Hermes, L. Jensen, J. E. Moore, J. C. Becca,
      V. Konjkov, T. Risthaus, M. Malagoli, A. Marenich, A. Otero-de-la-Roza,
        J. Mullin, P. Nichols, R. Peverati, J. Pittner, Y. Zhao, P.-D. Fan,
        A. Fonari, M. J. Williamson, R. J. Harrison, J. R. Rehr, M. Dupuis,
     D. Silverstein, D. M. A. Smith, J. Nieplocha, V. Tipparaju, M. Krishnan,
     B. E. Van Kuiken, A. Vazquez-Mayagoitia, M. Swart, Q. Wu, T. Van Voorhis,
     A. A. Auer, M. Nooijen, L. D. Crosby, E. Brown, G. Cisneros, G. I. Fann,
   H. Fruchtl, J. Garza, K. Hirao, R. A. Kendall, J. A. Nichols, K. Tsemekhman,
    K. Wolinski, J. Anchell, D. E. Bernholdt, P. Borowski, T. Clark, D. Clerc,
   H. Dachsel, M. J. O. Deegan, K. Dyall, D. Elwood, E. Glendening, M. Gutowski,
   A. C. Hess, J. Jaffe, B. G. Johnson, J. Ju, R. Kobayashi, R. Kutteh, Z. Lin,
   R. Littlefield, X. Long, B. Meng, T. Nakajima, S. Niu, L. Pollack, M. Rosing,
   K. Glaesemann, G. Sandrone, M. Stave, H. Taylor, G. Thomas, J. H. van Lenthe,
                               A. T. Wong, Z. Zhang.

 Total times  cpu:     4188.6s     wall:     4312.9s
