export TMOUT=5400
export TMPDIR=/tmp
export PTMPDIR=/tmp/ptmp
 argument  1 = ALA_TRP_1.nw
                                         
                                         


             Northwest Computational Chemistry Package (NWChem) 7.2.0
             --------------------------------------------------------


                    Environmental Molecular Sciences Laboratory
                       Pacific Northwest National Laboratory
                                Richland, WA 99352

                              Copyright (c) 1994-2022
                       Pacific Northwest National Laboratory
                            Battelle Memorial Institute

             NWChem is an open-source computational chemistry package
                        distributed under the terms of the
                      Educational Community License (ECL) 2.0
             A copy of the license is included with this distribution
                              in the LICENSE.TXT file

                                  ACKNOWLEDGMENT
                                  --------------

            This software and its documentation were developed at the
            EMSL at Pacific Northwest National Laboratory, a multiprogram
            national laboratory, operated for the U.S. Department of Energy
            by Battelle under Contract Number DE-AC05-76RL01830. Support
            for this work was provided by the Department of Energy Office
            of Biological and Environmental Research, Office of Basic
            Energy Sciences, and the Office of Advanced Scientific Computing.


           Job information
           ---------------

    hostname        = nova18-41
    program         = /opt/rit/el9/20230413/app/linux-rhel9-x86_64_v3/gcc-11.2.1/nwchem-7.2.0-oxtctbuhfuzyfaoziquq6bki22grib3g/bin/nwchem
    date            = Mon Jun 30 12:41:32 2025

    compiled        = Wed_May_17_23:46:39_2023
    source          = /tmp/root/spack-stage/spack-stage-nwchem-7.2.0-oxtctbuhfuzyfaoziquq6bki22grib3g/spack-src
    nwchem branch   = 7.2.0
    nwchem revision = d0d141fd
    ga revision     = 5.8.0
    use scalapack   = T
    input           = ALA_TRP_1.nw
    prefix          = ALA_TRP_1.
    data base       = ./ALA_TRP_1.db
    status          = startup
    nproc           =        8
    time left       =     -1s



           Memory information
           ------------------

    heap     =   26214400 doubles =    200.0 Mbytes
    stack    =   26214397 doubles =    200.0 Mbytes
    global   =   52428800 doubles =    400.0 Mbytes (distinct from heap & stack)
    total    =  104857597 doubles =    800.0 Mbytes
    verify   = yes
    hardfail = no 


           Directory information
           ---------------------

  0 permanent = .
  0 scratch   = .




                                NWChem Input Module
                                -------------------



 Scaling coordinates for geometry "geometry" by  1.889725989
 (inverse scale =  0.529177249)

 C1  symmetry detected

          ------
          auto-z
          ------
  no constraints, skipping    0.0000000000000000     
  no constraints, skipping    0.0000000000000000     


                             Geometry "geometry" -> ""
                             -------------------------

 Output coordinates in angstroms (scale by  1.889725989 to convert to a.u.)

  No.       Tag          Charge          X              Y              Z
 ---- ---------------- ---------- -------------- -------------- --------------
    1 H                    1.0000     2.98550141     0.28070280    -2.08017806
    2 C                    6.0000     3.40524723    -0.68436909    -1.80822825
    3 H                    1.0000     4.42131918    -0.55617481    -1.44015759
    4 H                    1.0000     3.41618273    -1.33591667    -2.68182838
    5 C                    6.0000     2.56009270    -1.32314208    -0.73201411
    6 O                    8.0000     2.01413992    -2.39830604    -0.93929178
    7 N                    7.0000     2.43196191    -0.64864388     0.41010702
    8 H                    1.0000     2.88300385     0.24793734     0.48636508
    9 C                    6.0000     1.77431363    -1.18164476     1.61301633
   10 H                    1.0000     2.28930170    -2.09734954     1.90752279
   11 C                    6.0000     1.94985909    -0.14797576     2.73168392
   12 H                    1.0000     1.51765371    -0.53614674     3.65567244
   13 H                    1.0000     3.01018081     0.04957782     2.89677615
   14 H                    1.0000     1.44154971     0.78152150     2.46728000
   15 C                    6.0000     0.28404281    -1.55107462     1.43384199
   16 O                    8.0000    -0.26551002    -2.29353772     2.24206921
   17 N                    7.0000    -0.36740253    -1.04593355     0.38318816
   18 H                    1.0000     0.13909901    -0.41750982    -0.21693666
   19 C                    6.0000    -1.76374883    -1.33762778     0.03474376
   20 H                    1.0000    -2.34376920    -1.37830098     0.95861120
   21 C                    6.0000    -2.31317314    -0.18383223    -0.81964477
   22 H                    1.0000    -1.90689455    -0.27365167    -1.82824984
   23 H                    1.0000    -3.39681611    -0.28561571    -0.89282287
   24 C                    6.0000    -1.98400198     1.18963801    -0.31217867
   25 C                    6.0000    -2.73534705     1.90921210     0.55064849
   26 H                    1.0000    -3.69046488     1.58895609     0.95104831
   27 N                    7.0000    -2.08273714     3.08493145     0.86741072
   28 H                    1.0000    -2.45820344     3.77556400     1.50197808
   29 C                    6.0000    -0.85980211     3.17262618     0.23636355
   30 C                    6.0000     0.16319578     4.13245029     0.25567664
   31 H                    1.0000     0.06509737     5.02063675     0.86063822
   32 C                    6.0000     1.30843101     3.92646211    -0.53201691
   33 H                    1.0000     2.09992436     4.66349624    -0.53901488
   34 C                    6.0000     1.41449460     2.77219084    -1.32906292
   35 H                    1.0000     2.28525165     2.63684960    -1.95448590
   36 C                    6.0000     0.38363190     1.81043001    -1.33571134
   37 H                    1.0000     0.46294448     0.93984265    -1.96978245
   38 C                    6.0000    -0.77706340     1.98347664    -0.54710098
   39 C                    6.0000    -1.96613684    -2.69380066    -0.66809848
   40 O                    8.0000    -3.09467126    -3.08580016    -0.93781772
   41 N                    7.0000    -0.90784414    -3.42382799    -1.00182841
   42 H                    1.0000    -1.06136473    -4.31010458    -1.45204751
   43 H                    1.0000     0.02677467    -3.09696011    -0.79371769

      Atomic Mass 
      ----------- 

      H                  1.007825
      C                 12.000000
      O                 15.994910
      N                 14.003070


 Effective nuclear repulsion energy (a.u.)    2027.9604652504

            Nuclear Dipole moment (a.u.) 
            ----------------------------
        X                 Y               Z
 ---------------- ---------------- ----------------
    -0.0000000000    -0.0000000000    -0.0000000000



                                Z-matrix (autoz)
                                -------- 

 Units are Angstrom for bonds and degrees for angles

      Type          Name      I     J     K     L     M      Value
      ----------- --------  ----- ----- ----- ----- ----- ----------
    1 Stretch                  1     2                       1.08697
    2 Stretch                  2     3                       1.08826
    3 Stretch                  2     4                       1.08987
    4 Stretch                  2     5                       1.51015
    5 Stretch                  5     6                       1.22352
    6 Stretch                  5     7                       1.33259
    7 Stretch                  7     8                       1.00653
    8 Stretch                  7     9                       1.47091
    9 Stretch                  9    10                       1.09108
   10 Stretch                  9    11                       1.53320
   11 Stretch                  9    15                       1.54580
   12 Stretch                 11    12                       1.09144
   13 Stretch                 11    13                       1.09113
   14 Stretch                 11    14                       1.09190
   15 Stretch                 15    16                       1.22739
   16 Stretch                 15    17                       1.33545
   17 Stretch                 17    18                       1.00579
   18 Stretch                 17    19                       1.46843
   19 Stretch                 19    20                       1.09161
   20 Stretch                 19    21                       1.53723
   21 Stretch                 19    39                       1.54083
   22 Stretch                 21    22                       1.09106
   23 Stretch                 21    23                       1.09087
   24 Stretch                 21    24                       1.50077
   25 Stretch                 24    25                       1.35158
   26 Stretch                 24    38                       1.46358
   27 Stretch                 25    26                       1.08404
   28 Stretch                 25    27                       1.38150
   29 Stretch                 27    28                       1.01026
   30 Stretch                 27    29                       1.37894
   31 Stretch                 29    30                       1.40291
   32 Stretch                 29    38                       1.42644
   33 Stretch                 30    31                       1.07911
   34 Stretch                 30    32                       1.40515
   35 Stretch                 32    33                       1.08154
   36 Stretch                 32    34                       1.40672
   37 Stretch                 34    35                       1.08060
   38 Stretch                 34    36                       1.40986
   39 Stretch                 36    37                       1.07993
   40 Stretch                 36    38                       1.41388
   41 Stretch                 39    40                       1.22475
   42 Stretch                 39    41                       1.32827
   43 Stretch                 41    42                       1.00586
   44 Stretch                 41    43                       1.01176
   45 Bend                     1     2     3               109.91206
   46 Bend                     1     2     4               109.51843
   47 Bend                     1     2     5               109.73891
   48 Bend                     2     5     6               120.04563
   49 Bend                     2     5     7               116.77616
   50 Bend                     3     2     4               109.39984
   51 Bend                     3     2     5               109.34885
   52 Bend                     4     2     5               108.90398
   53 Bend                     5     7     8               118.21032
   54 Bend                     5     7     9               124.08944
   55 Bend                     6     5     7               123.16642
   56 Bend                     7     9    10               108.28995
   57 Bend                     7     9    11               107.52955
   58 Bend                     7     9    15               115.01472
   59 Bend                     8     7     9               117.46267
   60 Bend                     9    11    12               109.42500
   61 Bend                     9    11    13               110.10391
   62 Bend                     9    11    14               110.11669
   63 Bend                     9    15    16               119.99329
   64 Bend                     9    15    17               118.10444
   65 Bend                    10     9    11               108.35105
   66 Bend                    10     9    15               106.60394
   67 Bend                    11     9    15               110.85963
   68 Bend                    12    11    13               108.73049
   69 Bend                    12    11    14               108.86899
   70 Bend                    13    11    14               109.56616
   71 Bend                    15    17    18               117.39412
   72 Bend                    15    17    19               125.12857
   73 Bend                    16    15    17               121.90161
   74 Bend                    17    19    20               108.16991
   75 Bend                    17    19    21               108.82363
   76 Bend                    17    19    39               114.07797
   77 Bend                    18    17    19               117.47724
   78 Bend                    19    21    22               108.59726
   79 Bend                    19    21    23               108.80181
   80 Bend                    19    21    24               114.87083
   81 Bend                    19    39    40               120.21161
   82 Bend                    19    39    41               119.58384
   83 Bend                    20    19    21               107.96570
   84 Bend                    20    19    39               106.46715
   85 Bend                    21    19    39               111.10920
   86 Bend                    21    24    25               125.53279
   87 Bend                    21    24    38               128.53468
   88 Bend                    22    21    23               107.47019
   89 Bend                    22    21    24               107.83339
   90 Bend                    23    21    24               109.02353
   91 Bend                    24    25    26               124.63166
   92 Bend                    24    25    27               109.68575
   93 Bend                    24    38    29               108.43164
   94 Bend                    24    38    36               134.43656
   95 Bend                    25    24    38               105.79059
   96 Bend                    25    27    28               123.38379
   97 Bend                    25    27    29               111.60095
   98 Bend                    26    25    27               125.65796
   99 Bend                    27    29    30               133.14984
  100 Bend                    27    29    38               104.46426
  101 Bend                    28    27    29               125.00025
  102 Bend                    29    30    31               120.30133
  103 Bend                    29    30    32               119.09775
  104 Bend                    29    38    36               117.12896
  105 Bend                    30    29    38               122.38583
  106 Bend                    30    32    33               120.01188
  107 Bend                    30    32    34               119.95751
  108 Bend                    31    30    32               120.59821
  109 Bend                    32    34    35               119.43649
  110 Bend                    32    34    36               120.48330
  111 Bend                    33    32    34               120.02158
  112 Bend                    34    36    37               119.93369
  113 Bend                    34    36    38               120.93898
  114 Bend                    35    34    36               120.06785
  115 Bend                    37    36    38               119.10682
  116 Bend                    39    41    42               118.36732
  117 Bend                    39    41    43               120.44792
  118 Bend                    40    39    41               120.19296
  119 Bend                    42    41    43               121.17911
  120 Torsion                  1     2     5     6         119.11234
  121 Torsion                  1     2     5     7         -59.67784
  122 Torsion                  2     5     7     8           1.28081
  123 Torsion                  2     5     7     9        -172.96657
  124 Torsion                  3     2     5     6        -120.25720
  125 Torsion                  3     2     5     7          60.95262
  126 Torsion                  4     2     5     6          -0.76095
  127 Torsion                  4     2     5     7        -179.55113
  128 Torsion                  5     7     9    10          58.16780
  129 Torsion                  5     7     9    11         175.04883
  130 Torsion                  5     7     9    15         -60.93250
  131 Torsion                  6     5     7     8        -177.46811
  132 Torsion                  6     5     7     9           8.28451
  133 Torsion                  7     9    11    12        -177.04537
  134 Torsion                  7     9    11    13         -57.59504
  135 Torsion                  7     9    11    14          63.32630
  136 Torsion                  7     9    15    16         162.01913
  137 Torsion                  7     9    15    17         -17.68871
  138 Torsion                  8     7     9    10        -116.11922
  139 Torsion                  8     7     9    11           0.76182
  140 Torsion                  8     7     9    15         124.78048
  141 Torsion                  9    15    17    18          -2.53675
  142 Torsion                  9    15    17    19         177.36657
  143 Torsion                 10     9    11    12         -60.20428
  144 Torsion                 10     9    11    13          59.24605
  145 Torsion                 10     9    11    14        -179.83261
  146 Torsion                 10     9    15    16          41.98479
  147 Torsion                 10     9    15    17        -137.72305
  148 Torsion                 11     9    15    16         -75.73887
  149 Torsion                 11     9    15    17         104.55329
  150 Torsion                 12    11     9    15          56.44838
  151 Torsion                 13    11     9    15         175.89872
  152 Torsion                 14    11     9    15         -63.17994
  153 Torsion                 15    17    19    20          39.43429
  154 Torsion                 15    17    19    21         156.49015
  155 Torsion                 15    17    19    39         -78.82319
  156 Torsion                 16    15    17    18         177.76130
  157 Torsion                 16    15    17    19          -2.33538
  158 Torsion                 17    19    21    22          75.71982
  159 Torsion                 17    19    21    23        -167.59011
  160 Torsion                 17    19    21    24         -45.08633
  161 Torsion                 17    19    39    40         175.69419
  162 Torsion                 17    19    39    41          -5.54181
  163 Torsion                 18    17    19    20        -140.66247
  164 Torsion                 18    17    19    21         -23.60661
  165 Torsion                 18    17    19    39         101.08006
  166 Torsion                 19    21    24    25         -89.92598
  167 Torsion                 19    21    24    38          85.11486
  168 Torsion                 19    39    41    42         179.42942
  169 Torsion                 19    39    41    43           0.28364
  170 Torsion                 20    19    21    22        -167.09426
  171 Torsion                 20    19    21    23         -50.40419
  172 Torsion                 20    19    21    24          72.09959
  173 Torsion                 20    19    39    40          56.46853
  174 Torsion                 20    19    39    41        -124.76747
  175 Torsion                 21    19    39    40         -60.84696
  176 Torsion                 21    19    39    41         117.91705
  177 Torsion                 21    24    25    26          -2.41378
  178 Torsion                 21    24    25    27         175.86601
  179 Torsion                 21    24    38    29        -174.72649
  180 Torsion                 21    24    38    36           4.62100
  181 Torsion                 22    21    19    39         -50.69579
  182 Torsion                 22    21    24    25         148.84976
  183 Torsion                 22    21    24    38         -36.10940
  184 Torsion                 23    21    19    39          65.99428
  185 Torsion                 23    21    24    25          32.45831
  186 Torsion                 23    21    24    38        -152.50086
  187 Torsion                 24    21    19    39        -171.50194
  188 Torsion                 24    25    27    28        -179.61415
  189 Torsion                 24    25    27    29          -0.96111
  190 Torsion                 24    38    29    27          -1.60060
  191 Torsion                 24    38    29    30         178.48418
  192 Torsion                 24    38    36    34        -178.66556
  193 Torsion                 24    38    36    37           2.98282
  194 Torsion                 25    24    38    29           1.08105
  195 Torsion                 25    24    38    36        -179.57146
  196 Torsion                 25    27    29    30        -178.51505
  197 Torsion                 25    27    29    38           1.58309
  198 Torsion                 26    25    24    38        -178.38415
  199 Torsion                 26    25    27    28          -1.35620
  200 Torsion                 26    25    27    29         177.29684
  201 Torsion                 27    25    24    38          -0.10436
  202 Torsion                 27    29    30    31           0.08254
  203 Torsion                 27    29    30    32        -179.32263
  204 Torsion                 27    29    38    36         178.92290
  205 Torsion                 28    27    29    30           0.11192
  206 Torsion                 28    27    29    38        -179.78995
  207 Torsion                 29    30    32    33         179.14330
  208 Torsion                 29    30    32    34           0.23665
  209 Torsion                 29    38    36    34           0.63888
  210 Torsion                 29    38    36    37        -177.71274
  211 Torsion                 30    29    38    36          -0.99232
  212 Torsion                 30    32    34    35         178.14691
  213 Torsion                 30    32    34    36          -0.57503
  214 Torsion                 31    30    29    38         179.97001
  215 Torsion                 31    30    32    33          -0.26005
  216 Torsion                 31    30    32    34        -179.16670
  217 Torsion                 32    30    29    38           0.56485
  218 Torsion                 32    34    36    37         178.45809
  219 Torsion                 32    34    36    38           0.12000
  220 Torsion                 33    32    34    35          -0.75963
  221 Torsion                 33    32    34    36        -179.48157
  222 Torsion                 35    34    36    37          -0.25577
  223 Torsion                 35    34    36    38        -178.59387
  224 Torsion                 40    39    41    42          -1.80634
  225 Torsion                 40    39    41    43         179.04788


            XYZ format geometry
            -------------------
    43
 geometry
 H                     2.98550141     0.28070280    -2.08017806
 C                     3.40524723    -0.68436909    -1.80822825
 H                     4.42131918    -0.55617481    -1.44015759
 H                     3.41618273    -1.33591667    -2.68182838
 C                     2.56009270    -1.32314208    -0.73201411
 O                     2.01413992    -2.39830604    -0.93929178
 N                     2.43196191    -0.64864388     0.41010702
 H                     2.88300385     0.24793734     0.48636508
 C                     1.77431363    -1.18164476     1.61301633
 H                     2.28930170    -2.09734954     1.90752279
 C                     1.94985909    -0.14797576     2.73168392
 H                     1.51765371    -0.53614674     3.65567244
 H                     3.01018081     0.04957782     2.89677615
 H                     1.44154971     0.78152150     2.46728000
 C                     0.28404281    -1.55107462     1.43384199
 O                    -0.26551002    -2.29353772     2.24206921
 N                    -0.36740253    -1.04593355     0.38318816
 H                     0.13909901    -0.41750982    -0.21693666
 C                    -1.76374883    -1.33762778     0.03474376
 H                    -2.34376920    -1.37830098     0.95861120
 C                    -2.31317314    -0.18383223    -0.81964477
 H                    -1.90689455    -0.27365167    -1.82824984
 H                    -3.39681611    -0.28561571    -0.89282287
 C                    -1.98400198     1.18963801    -0.31217867
 C                    -2.73534705     1.90921210     0.55064849
 H                    -3.69046488     1.58895609     0.95104831
 N                    -2.08273714     3.08493145     0.86741072
 H                    -2.45820344     3.77556400     1.50197808
 C                    -0.85980211     3.17262618     0.23636355
 C                     0.16319578     4.13245029     0.25567664
 H                     0.06509737     5.02063675     0.86063822
 C                     1.30843101     3.92646211    -0.53201691
 H                     2.09992436     4.66349624    -0.53901488
 C                     1.41449460     2.77219084    -1.32906292
 H                     2.28525165     2.63684960    -1.95448590
 C                     0.38363190     1.81043001    -1.33571134
 H                     0.46294448     0.93984265    -1.96978245
 C                    -0.77706340     1.98347664    -0.54710098
 C                    -1.96613684    -2.69380066    -0.66809848
 O                    -3.09467126    -3.08580016    -0.93781772
 N                    -0.90784414    -3.42382799    -1.00182841
 H                    -1.06136473    -4.31010458    -1.45204751
 H                     0.02677467    -3.09696011    -0.79371769

 ==============================================================================
                                internuclear distances
 ------------------------------------------------------------------------------
       center one      |      center two      | atomic units |  angstroms
 ------------------------------------------------------------------------------
    2 C                |   1 H                |     2.05408  |     1.08697
    3 H                |   2 C                |     2.05652  |     1.08826
    4 H                |   2 C                |     2.05955  |     1.08987
    5 C                |   2 C                |     2.85377  |     1.51015
    6 O                |   5 C                |     2.31212  |     1.22352
    7 N                |   5 C                |     2.51824  |     1.33259
    8 H                |   7 N                |     1.90207  |     1.00653
    9 C                |   7 N                |     2.77962  |     1.47091
   10 H                |   9 C                |     2.06185  |     1.09108
   11 C                |   9 C                |     2.89733  |     1.53320
   12 H                |  11 C                |     2.06252  |     1.09144
   13 H                |  11 C                |     2.06194  |     1.09113
   14 H                |  11 C                |     2.06340  |     1.09190
   15 C                |   9 C                |     2.92113  |     1.54580
   16 O                |  15 C                |     2.31943  |     1.22739
   17 N                |  15 C                |     2.52363  |     1.33545
   18 H                |  17 N                |     1.90066  |     1.00579
   19 C                |  17 N                |     2.77493  |     1.46843
   20 H                |  19 C                |     2.06284  |     1.09161
   21 C                |  19 C                |     2.90495  |     1.53723
   22 H                |  21 C                |     2.06181  |     1.09106
   23 H                |  21 C                |     2.06145  |     1.09087
   24 C                |  21 C                |     2.83603  |     1.50077
   25 C                |  24 C                |     2.55412  |     1.35158
   26 H                |  25 C                |     2.04853  |     1.08404
   27 N                |  25 C                |     2.61066  |     1.38150
   28 H                |  27 N                |     1.90911  |     1.01026
   29 C                |  27 N                |     2.60582  |     1.37894
   30 C                |  29 C                |     2.65112  |     1.40291
   31 H                |  30 C                |     2.03922  |     1.07911
   32 C                |  30 C                |     2.65535  |     1.40515
   33 H                |  32 C                |     2.04382  |     1.08154
   34 C                |  32 C                |     2.65832  |     1.40672
   35 H                |  34 C                |     2.04203  |     1.08060
   36 C                |  34 C                |     2.66425  |     1.40986
   37 H                |  36 C                |     2.04078  |     1.07993
   38 C                |  24 C                |     2.76577  |     1.46358
   38 C                |  29 C                |     2.69559  |     1.42644
   38 C                |  36 C                |     2.67185  |     1.41388
   39 C                |  19 C                |     2.91174  |     1.54083
   40 O                |  39 C                |     2.31443  |     1.22475
   41 N                |  39 C                |     2.51006  |     1.32827
   42 H                |  41 N                |     1.90080  |     1.00586
   43 H                |  41 N                |     1.91196  |     1.01176
 ------------------------------------------------------------------------------
                         number of included internuclear distances:         44
 ==============================================================================



 ==============================================================================
                                 internuclear angles
 ------------------------------------------------------------------------------
        center 1       |       center 2       |       center 3       |  degrees
 ------------------------------------------------------------------------------
    1 H                |   2 C                |   3 H                |   109.91
    1 H                |   2 C                |   4 H                |   109.52
    1 H                |   2 C                |   5 C                |   109.74
    3 H                |   2 C                |   4 H                |   109.40
    3 H                |   2 C                |   5 C                |   109.35
    4 H                |   2 C                |   5 C                |   108.90
    2 C                |   5 C                |   6 O                |   120.05
    2 C                |   5 C                |   7 N                |   116.78
    6 O                |   5 C                |   7 N                |   123.17
    5 C                |   7 N                |   8 H                |   118.21
    5 C                |   7 N                |   9 C                |   124.09
    8 H                |   7 N                |   9 C                |   117.46
    7 N                |   9 C                |  10 H                |   108.29
    7 N                |   9 C                |  11 C                |   107.53
    7 N                |   9 C                |  15 C                |   115.01
   10 H                |   9 C                |  11 C                |   108.35
   10 H                |   9 C                |  15 C                |   106.60
   11 C                |   9 C                |  15 C                |   110.86
    9 C                |  11 C                |  12 H                |   109.42
    9 C                |  11 C                |  13 H                |   110.10
    9 C                |  11 C                |  14 H                |   110.12
   12 H                |  11 C                |  13 H                |   108.73
   12 H                |  11 C                |  14 H                |   108.87
   13 H                |  11 C                |  14 H                |   109.57
    9 C                |  15 C                |  16 O                |   119.99
    9 C                |  15 C                |  17 N                |   118.10
   16 O                |  15 C                |  17 N                |   121.90
   15 C                |  17 N                |  18 H                |   117.39
   15 C                |  17 N                |  19 C                |   125.13
   18 H                |  17 N                |  19 C                |   117.48
   17 N                |  19 C                |  20 H                |   108.17
   17 N                |  19 C                |  21 C                |   108.82
   17 N                |  19 C                |  39 C                |   114.08
   20 H                |  19 C                |  21 C                |   107.97
   20 H                |  19 C                |  39 C                |   106.47
   21 C                |  19 C                |  39 C                |   111.11
   19 C                |  21 C                |  22 H                |   108.60
   19 C                |  21 C                |  23 H                |   108.80
   19 C                |  21 C                |  24 C                |   114.87
   22 H                |  21 C                |  23 H                |   107.47
   22 H                |  21 C                |  24 C                |   107.83
   23 H                |  21 C                |  24 C                |   109.02
   21 C                |  24 C                |  25 C                |   125.53
   21 C                |  24 C                |  38 C                |   128.53
   25 C                |  24 C                |  38 C                |   105.79
   24 C                |  25 C                |  26 H                |   124.63
   24 C                |  25 C                |  27 N                |   109.69
   26 H                |  25 C                |  27 N                |   125.66
   25 C                |  27 N                |  28 H                |   123.38
   25 C                |  27 N                |  29 C                |   111.60
   28 H                |  27 N                |  29 C                |   125.00
   27 N                |  29 C                |  30 C                |   133.15
   27 N                |  29 C                |  38 C                |   104.46
   30 C                |  29 C                |  38 C                |   122.39
   29 C                |  30 C                |  31 H                |   120.30
   29 C                |  30 C                |  32 C                |   119.10
   31 H                |  30 C                |  32 C                |   120.60
   30 C                |  32 C                |  33 H                |   120.01
   30 C                |  32 C                |  34 C                |   119.96
   33 H                |  32 C                |  34 C                |   120.02
   32 C                |  34 C                |  35 H                |   119.44
   32 C                |  34 C                |  36 C                |   120.48
   35 H                |  34 C                |  36 C                |   120.07
   34 C                |  36 C                |  37 H                |   119.93
   34 C                |  36 C                |  38 C                |   120.94
   37 H                |  36 C                |  38 C                |   119.11
   24 C                |  38 C                |  29 C                |   108.43
   24 C                |  38 C                |  36 C                |   134.44
   29 C                |  38 C                |  36 C                |   117.13
   19 C                |  39 C                |  40 O                |   120.21
   19 C                |  39 C                |  41 N                |   119.58
   40 O                |  39 C                |  41 N                |   120.19
   39 C                |  41 N                |  42 H                |   118.37
   39 C                |  41 N                |  43 H                |   120.45
   42 H                |  41 N                |  43 H                |   121.18
 ------------------------------------------------------------------------------
                            number of included internuclear angles:         75
 ==============================================================================



  library name resolved from: environment
  library file name is: </opt/rit/el9/20230413/app/linux-rhel9-x86_64_v3/gcc-11.2.1/nwchem-7.2.0-oxtctbuhfuzyfaoziquq6bki22grib3g/share/nwchem/libraries/>
  


 Summary of "ao basis" -> "" (cartesian)
 ------------------------------------------------------------------------------
       Tag                 Description            Shells   Functions and Types
 ---------------- ------------------------------  ------  ---------------------
 *                        aug-cc-pvdz                 on all atoms 


                      Basis "ao basis" -> "ao basis" (cartesian)
                      -----
  H (Hydrogen)
  ------------
            Exponent  Coefficients 
       -------------- ---------------------------------------------------------
  1 S  1.30100000E+01  0.019685
  1 S  1.96200000E+00  0.137977
  1 S  4.44600000E-01  0.478148

  2 S  1.22000000E-01  1.000000

  3 S  2.97400000E-02  1.000000

  4 P  7.27000000E-01  1.000000

  5 P  1.41000000E-01  1.000000

  C (Carbon)
  ----------
            Exponent  Coefficients 
       -------------- ---------------------------------------------------------
  1 S  6.66500000E+03  0.000692
  1 S  1.00000000E+03  0.005329
  1 S  2.28000000E+02  0.027077
  1 S  6.47100000E+01  0.101718
  1 S  2.10600000E+01  0.274740
  1 S  7.49500000E+00  0.448564
  1 S  2.79700000E+00  0.285074
  1 S  5.21500000E-01  0.015204

  2 S  6.66500000E+03 -0.000146
  2 S  1.00000000E+03 -0.001154
  2 S  2.28000000E+02 -0.005725
  2 S  6.47100000E+01 -0.023312
  2 S  2.10600000E+01 -0.063955
  2 S  7.49500000E+00 -0.149981
  2 S  2.79700000E+00 -0.127262
  2 S  5.21500000E-01  0.544529

  3 S  1.59600000E-01  1.000000

  4 S  4.69000000E-02  1.000000

  5 P  9.43900000E+00  0.038109
  5 P  2.00200000E+00  0.209480
  5 P  5.45600000E-01  0.508557

  6 P  1.51700000E-01  1.000000

  7 P  4.04100000E-02  1.000000

  8 D  5.50000000E-01  1.000000

  9 D  1.51000000E-01  1.000000

  O (Oxygen)
  ----------
            Exponent  Coefficients 
       -------------- ---------------------------------------------------------
  1 S  1.17200000E+04  0.000710
  1 S  1.75900000E+03  0.005470
  1 S  4.00800000E+02  0.027837
  1 S  1.13700000E+02  0.104800
  1 S  3.70300000E+01  0.283062
  1 S  1.32700000E+01  0.448719
  1 S  5.02500000E+00  0.270952
  1 S  1.01300000E+00  0.015458

  2 S  1.17200000E+04 -0.000160
  2 S  1.75900000E+03 -0.001263
  2 S  4.00800000E+02 -0.006267
  2 S  1.13700000E+02 -0.025716
  2 S  3.70300000E+01 -0.070924
  2 S  1.32700000E+01 -0.165411
  2 S  5.02500000E+00 -0.116955
  2 S  1.01300000E+00  0.557368

  3 S  3.02300000E-01  1.000000

  4 S  7.89600000E-02  1.000000

  5 P  1.77000000E+01  0.043018
  5 P  3.85400000E+00  0.228913
  5 P  1.04600000E+00  0.508728

  6 P  2.75300000E-01  1.000000

  7 P  6.85600000E-02  1.000000

  8 D  1.18500000E+00  1.000000

  9 D  3.32000000E-01  1.000000

  N (Nitrogen)
  ------------
            Exponent  Coefficients 
       -------------- ---------------------------------------------------------
  1 S  9.04600000E+03  0.000700
  1 S  1.35700000E+03  0.005389
  1 S  3.09300000E+02  0.027406
  1 S  8.77300000E+01  0.103207
  1 S  2.85600000E+01  0.278723
  1 S  1.02100000E+01  0.448540
  1 S  3.83800000E+00  0.278238
  1 S  7.46600000E-01  0.015440

  2 S  9.04600000E+03 -0.000153
  2 S  1.35700000E+03 -0.001208
  2 S  3.09300000E+02 -0.005992
  2 S  8.77300000E+01 -0.024544
  2 S  2.85600000E+01 -0.067459
  2 S  1.02100000E+01 -0.158078
  2 S  3.83800000E+00 -0.121831
  2 S  7.46600000E-01  0.549003

  3 S  2.24800000E-01  1.000000

  4 S  6.12400000E-02  1.000000

  5 P  1.35500000E+01  0.039919
  5 P  2.91700000E+00  0.217169
  5 P  7.97300000E-01  0.510319

  6 P  2.18500000E-01  1.000000

  7 P  5.61100000E-02  1.000000

  8 D  8.17000000E-01  1.000000

  9 D  2.30000000E-01  1.000000



 Summary of "ao basis" -> "ao basis" (cartesian)
 ------------------------------------------------------------------------------
       Tag                 Description            Shells   Functions and Types
 ---------------- ------------------------------  ------  ---------------------
 H                        aug-cc-pvdz                5        9   3s2p
 C                        aug-cc-pvdz                9       25   4s3p2d
 O                        aug-cc-pvdz                9       25   4s3p2d
 N                        aug-cc-pvdz                9       25   4s3p2d


                                 NWChem SCF Module
                                 -----------------



  ao basis        = "ao basis"
  functions       =   755
  atoms           =    43
  closed shells   =    84
  open shells     =     0
  charge          =   0.00
  wavefunction    = RHF 
  input vectors   = atomic
  output vectors  = ./ALA_TRP_1.movecs
  use symmetry    = F
  symmetry adapt  = F


 Summary of "ao basis" -> "ao basis" (cartesian)
 ------------------------------------------------------------------------------
       Tag                 Description            Shells   Functions and Types
 ---------------- ------------------------------  ------  ---------------------
 H                        aug-cc-pvdz                5        9   3s2p
 C                        aug-cc-pvdz                9       25   4s3p2d
 O                        aug-cc-pvdz                9       25   4s3p2d
 N                        aug-cc-pvdz                9       25   4s3p2d



 Forming initial guess at       2.6s


 !! The overlap matrix has  20 vectors deemed linearly dependent with
    eigenvalues:
 2.23D-07 7.34D-07 1.03D-06 1.30D-06 1.57D-06 1.90D-06 2.32D-06 2.50D-06
 3.13D-06 3.22D-06 4.12D-06 4.45D-06 4.77D-06 5.44D-06 6.49D-06 7.24D-06
 7.73D-06 7.97D-06 9.45D-06 9.75D-06


      Superposition of Atomic Density Guess
      -------------------------------------

 Sum of atomic energies:       -1054.17033381

      Non-variational initial energy
      ------------------------------

 Total energy =   -1070.167935
 1-e energy   =   -5461.758768
 2-e energy   =    2363.630368
 HOMO         =      -0.236099
 LUMO         =      -0.031306


 Starting SCF solution at     514.8s



 ----------------------------------------------
         Quadratically convergent ROHF

 Convergence threshold     :          1.000E-04
 Maximum no. of iterations :           30
 Final Fock-matrix accuracy:          1.000E-10
 ----------------------------------------------


              iter       energy          gnorm     gmax       time
             ----- ------------------- --------- --------- --------
                 1    -1059.6693351932  2.58D+00  1.52D-01   1032.0
                 2    -1060.0453995879  9.76D-01  5.11D-02   2112.5
                 3    -1060.1262961123  7.13D-02  3.84D-03   3691.7
                 4    -1060.1270326530  2.38D-03  1.53D-04   6936.9
                 5    -1060.1270335832  7.83D-06  8.89D-07  11983.8


       Final RHF  results 
       ------------------ 

         Total SCF energy =  -1060.127033583166
      One-electron energy =  -5477.471164845570
      Two-electron energy =   2389.383666011959
 Nuclear repulsion energy =   2027.960465250444

        Time for solution =  11482.2s


             Final eigenvalues
             -----------------

              1      
    1  -20.5456
    2  -20.5239
    3  -20.5027
    4  -15.6275
    5  -15.6172
    6  -15.5941
    7  -15.5674
    8  -11.3742
    9  -11.3580
   10  -11.3386
   11  -11.3064
   12  -11.2974
   13  -11.2901
   14  -11.2890
   15  -11.2653
   16  -11.2635
   17  -11.2622
   18  -11.2579
   19  -11.2575
   20  -11.2564
   21  -11.2519
   22  -11.2517
   23  -11.2447
   24   -1.4094
   25   -1.3835
   26   -1.3648
   27   -1.3141
   28   -1.2675
   29   -1.2428
   30   -1.1918
   31   -1.1491
   32   -1.1023
   33   -1.0733
   34   -1.0383
   35   -1.0176
   36   -1.0083
   37   -0.9968
   38   -0.9166
   39   -0.8899
   40   -0.8660
   41   -0.8302
   42   -0.8276
   43   -0.8019
   44   -0.7837
   45   -0.7690
   46   -0.7453
   47   -0.7280
   48   -0.7203
   49   -0.6993
   50   -0.6914
   51   -0.6884
   52   -0.6700
   53   -0.6589
   54   -0.6358
   55   -0.6337
   56   -0.6220
   57   -0.6125
   58   -0.6098
   59   -0.6035
   60   -0.5948
   61   -0.5918
   62   -0.5874
   63   -0.5841
   64   -0.5797
   65   -0.5676
   66   -0.5556
   67   -0.5513
   68   -0.5487
   69   -0.5364
   70   -0.5326
   71   -0.5206
   72   -0.5147
   73   -0.4996
   74   -0.4913
   75   -0.4847
   76   -0.4450
   77   -0.4436
   78   -0.4279
   79   -0.4039
   80   -0.3940
   81   -0.3875
   82   -0.3790
   83   -0.3214
   84   -0.3021
   85    0.0194
   86    0.0253
   87    0.0351
   88    0.0362
   89    0.0459
   90    0.0479
   91    0.0528
   92    0.0568
   93    0.0605
   94    0.0636

                       ROHF Final Molecular Orbital Analysis
                       -------------------------------------

 Vector   24  Occ=2.000000D+00  E=-1.409388D+00
              MO Center=  2.1D+00, -1.9D+00, -6.4D-01, r^2= 1.2D+00
   Bfn.  Coefficient  Atom+Function         Bfn.  Coefficient  Atom+Function  
  ----- ------------  ---------------      ----- ------------  ---------------
    80      0.350224   6 O  s                79      0.343266   6 O  s         
    54      0.242708   5 C  s                12      0.167105   2 C  s         

 Vector   25  Occ=2.000000D+00  E=-1.383495D+00
              MO Center= -1.2D-01, -2.0D+00,  1.6D+00, r^2= 1.8D+00
   Bfn.  Coefficient  Atom+Function         Bfn.  Coefficient  Atom+Function  
  ----- ------------  ---------------      ----- ------------  ---------------
   250      0.361366  16 O  s               249      0.334489  16 O  s         
   224      0.239802  15 C  s         

 Vector   26  Occ=2.000000D+00  E=-1.364828D+00
              MO Center= -2.5D+00, -3.0D+00, -7.5D-01, r^2= 1.4D+00
   Bfn.  Coefficient  Atom+Function         Bfn.  Coefficient  Atom+Function  
  ----- ------------  ---------------      ----- ------------  ---------------
   690      0.375946  40 O  s               689      0.346943  40 O  s         
   664      0.242397  39 C  s         

 Vector   27  Occ=2.000000D+00  E=-1.314076D+00
              MO Center= -1.9D+00,  2.8D+00,  5.7D-01, r^2= 1.3D+00
   Bfn.  Coefficient  Atom+Function         Bfn.  Coefficient  Atom+Function  
  ----- ------------  ---------------      ----- ------------  ---------------
   445      0.484671  27 N  s               444      0.331450  27 N  s         
   478      0.173507  29 C  s               410      0.162951  25 C  s         

 Vector   28  Occ=2.000000D+00  E=-1.267549D+00
              MO Center=  2.0D+00, -1.0D+00,  3.4D-01, r^2= 2.4D+00
   Bfn.  Coefficient  Atom+Function         Bfn.  Coefficient  Atom+Function  
  ----- ------------  ---------------      ----- ------------  ---------------
   105      0.394642   7 N  s               104      0.327172   7 N  s         
    80     -0.214223   6 O  s                79     -0.176636   6 O  s         
   128      0.150249   8 H  s               139     -0.150415   9 C  s         

 Vector   29  Occ=2.000000D+00  E=-1.242788D+00
              MO Center= -2.8D-01, -1.3D+00,  4.7D-01, r^2= 2.9D+00
   Bfn.  Coefficient  Atom+Function         Bfn.  Coefficient  Atom+Function  
  ----- ------------  ---------------      ----- ------------  ---------------
   275      0.363126  17 N  s               274      0.319286  17 N  s         
   250     -0.195232  16 O  s               309     -0.188848  19 C  s         
   249     -0.158523  16 O  s         

 Vector   30  Occ=2.000000D+00  E=-1.191784D+00
              MO Center= -1.2D+00, -3.1D+00, -8.5D-01, r^2= 1.7D+00
   Bfn.  Coefficient  Atom+Function         Bfn.  Coefficient  Atom+Function  
  ----- ------------  ---------------      ----- ------------  ---------------
   715      0.383582  41 N  s               714      0.367112  41 N  s         
   309     -0.261066  19 C  s               667      0.203325  39 C  px        
   690     -0.199935  40 O  s               689     -0.168911  40 O  s         
   666      0.167747  39 C  s               747      0.160689  43 H  s         
   738      0.158665  42 H  s         

 Vector   31  Occ=2.000000D+00  E=-1.149145D+00
              MO Center=  2.2D-01,  2.9D+00, -5.2D-01, r^2= 2.9D+00
   Bfn.  Coefficient  Atom+Function         Bfn.  Coefficient  Atom+Function  
  ----- ------------  ---------------      ----- ------------  ---------------
   445      0.239801  27 N  s               571     -0.188031  34 C  s         
   537     -0.185602  32 C  s               605     -0.182079  36 C  s         
   503     -0.164936  30 C  s               639     -0.152900  38 C  s         

 Vector   32  Occ=2.000000D+00  E=-1.102287D+00
              MO Center= -1.5D+00,  1.0D+00, -9.8D-02, r^2= 5.3D+00
   Bfn.  Coefficient  Atom+Function         Bfn.  Coefficient  Atom+Function  
  ----- ------------  ---------------      ----- ------------  ---------------
   385      0.233535  24 C  s               342      0.197366  21 C  s         
   445     -0.168430  27 N  s         

 Vector   33  Occ=2.000000D+00  E=-1.073302D+00
              MO Center=  1.7D+00, -5.5D-01,  8.9D-01, r^2= 6.0D+00
   Bfn.  Coefficient  Atom+Function         Bfn.  Coefficient  Atom+Function  
  ----- ------------  ---------------      ----- ------------  ---------------
   138      0.229270   9 C  s               172      0.198620  11 C  s         

 Vector   34  Occ=2.000000D+00  E=-1.038322D+00
              MO Center= -5.7D-01,  9.1D-01, -2.7D-01, r^2= 8.3D+00
   Bfn.  Coefficient  Atom+Function         Bfn.  Coefficient  Atom+Function  
  ----- ------------  ---------------      ----- ------------  ---------------
   308      0.178130  19 C  s               342      0.172583  21 C  s         
   539     -0.171414  32 C  s               503      0.156761  30 C  s         

 Vector   35  Occ=2.000000D+00  E=-1.017630D+00
              MO Center= -1.0D-01,  2.9D+00, -3.6D-01, r^2= 4.3D+00
   Bfn.  Coefficient  Atom+Function         Bfn.  Coefficient  Atom+Function  
  ----- ------------  ---------------      ----- ------------  ---------------
   505      0.248965  30 C  s               573     -0.248398  34 C  s         
   571      0.231920  34 C  s               478     -0.213905  29 C  s         
   596      0.177169  35 H  s               445      0.168407  27 N  s         

 Vector   36  Occ=2.000000D+00  E=-1.008347D+00
              MO Center=  2.8D+00, -6.3D-01, -6.1D-01, r^2= 5.2D+00
   Bfn.  Coefficient  Atom+Function         Bfn.  Coefficient  Atom+Function  
  ----- ------------  ---------------      ----- ------------  ---------------
    11      0.315261   2 C  s                55      0.194971   5 C  s         
   172      0.165960  11 C  s         

 Vector   37  Occ=2.000000D+00  E=-9.968393D-01
              MO Center= -8.2D-01,  1.6D+00, -6.0D-02, r^2= 7.7D+00
   Bfn.  Coefficient  Atom+Function         Bfn.  Coefficient  Atom+Function  
  ----- ------------  ---------------      ----- ------------  ---------------
   410      0.181571  25 C  s               666      0.177549  39 C  s         
   539     -0.170809  32 C  s               630     -0.163116  37 H  s         
   605     -0.159171  36 C  s               537      0.156421  32 C  s         

 Vector   38  Occ=2.000000D+00  E=-9.165695D-01
              MO Center= -6.0D-01, -1.8D-01,  4.9D-01, r^2= 8.7D+00
   Bfn.  Coefficient  Atom+Function         Bfn.  Coefficient  Atom+Function  
  ----- ------------  ---------------      ----- ------------  ---------------
   139      0.240304   9 C  s               315      0.212333  19 C  py        
   342      0.207929  21 C  s               144     -0.184681   9 C  px        
   172     -0.159903  11 C  s         

 Vector   39  Occ=2.000000D+00  E=-8.898506D-01
              MO Center=  3.9D-01, -6.9D-01,  9.2D-01, r^2= 8.8D+00
   Bfn.  Coefficient  Atom+Function         Bfn.  Coefficient  Atom+Function  
  ----- ------------  ---------------      ----- ------------  ---------------
   309      0.206008  19 C  s               172     -0.189817  11 C  s         
   173     -0.186949  11 C  s               139      0.176162   9 C  s         
   138      0.174442   9 C  s         

 Vector   40  Occ=2.000000D+00  E=-8.659557D-01
              MO Center= -4.6D-01,  2.7D+00, -2.2D-01, r^2= 5.7D+00
   Bfn.  Coefficient  Atom+Function         Bfn.  Coefficient  Atom+Function  
  ----- ------------  ---------------      ----- ------------  ---------------
   573      0.366433  34 C  s               505     -0.277316  30 C  s         
   630      0.236701  37 H  s               528      0.179600  31 H  s         
   539      0.178655  32 C  s               503      0.174297  30 C  s         
   605      0.166478  36 C  s               447     -0.162566  27 N  px        
   435      0.158881  26 H  s               512     -0.155873  30 C  px        

 Vector   41  Occ=2.000000D+00  E=-8.301912D-01
              MO Center=  6.3D-01,  1.0D+00, -4.2D-02, r^2= 9.6D+00
   Bfn.  Coefficient  Atom+Function         Bfn.  Coefficient  Atom+Function  
  ----- ------------  ---------------      ----- ------------  ---------------
   109      0.171968   7 N  pz        

 Vector   42  Occ=2.000000D+00  E=-8.275610D-01
              MO Center=  1.2D+00,  6.4D-01, -7.2D-02, r^2= 9.4D+00
   Bfn.  Coefficient  Atom+Function         Bfn.  Coefficient  Atom+Function  
  ----- ------------  ---------------      ----- ------------  ---------------
   109      0.193569   7 N  pz              128      0.183837   8 H  s         
   108      0.175718   7 N  py              105      0.169331   7 N  s         
    54     -0.163818   5 C  s               139     -0.152603   9 C  s         

 Vector   43  Occ=2.000000D+00  E=-8.018936D-01
              MO Center=  2.0D-01, -1.1D+00,  4.2D-01, r^2= 5.5D+00
   Bfn.  Coefficient  Atom+Function         Bfn.  Coefficient  Atom+Function  
  ----- ------------  ---------------      ----- ------------  ---------------
   309      0.328864  19 C  s               299     -0.266104  18 H  s         
   279      0.247847  17 N  pz              298     -0.199305  18 H  s         
   105      0.185371   7 N  s               225      0.172955  15 C  s         
   316     -0.172173  19 C  pz               55     -0.166716   5 C  s         
   128      0.165797   8 H  s               224      0.165127  15 C  s         

 Vector   44  Occ=2.000000D+00  E=-7.836829D-01
              MO Center= -1.1D+00, -1.3D+00, -4.7D-01, r^2= 8.9D+00
   Bfn.  Coefficient  Atom+Function         Bfn.  Coefficient  Atom+Function  
  ----- ------------  ---------------      ----- ------------  ---------------
   717     -0.207368  41 N  px              664      0.193877  39 C  s         
   666     -0.190862  39 C  s               718      0.177819  41 N  py        
   738     -0.173200  42 H  s               671     -0.163855  39 C  py        
   315     -0.155325  19 C  py        

 Vector   45  Occ=2.000000D+00  E=-7.689981D-01
              MO Center= -1.2D+00,  8.0D-01, -6.4D-02, r^2= 8.2D+00
   Bfn.  Coefficient  Atom+Function         Bfn.  Coefficient  Atom+Function  
  ----- ------------  ---------------      ----- ------------  ---------------
   225      0.207778  15 C  s               299     -0.178764  18 H  s         
   314      0.170348  19 C  px              298     -0.151237  18 H  s         
   385      0.151989  24 C  s               505     -0.151597  30 C  s         

 Vector   46  Occ=2.000000D+00  E=-7.452984D-01
              MO Center= -7.2D-01,  1.7D+00,  3.3D-02, r^2= 9.7D+00
   Bfn.  Coefficient  Atom+Function         Bfn.  Coefficient  Atom+Function  
  ----- ------------  ---------------      ----- ------------  ---------------
   468      0.219236  28 H  s               630     -0.198826  37 H  s         
   448      0.183414  27 N  py              505      0.172868  30 C  s         
   449      0.164686  27 N  pz              573     -0.164594  34 C  s         
   629     -0.153519  37 H  s         

 Vector   47  Occ=2.000000D+00  E=-7.280192D-01
              MO Center= -5.0D-01, -1.6D+00, -4.5D-01, r^2= 9.3D+00
   Bfn.  Coefficient  Atom+Function         Bfn.  Coefficient  Atom+Function  
  ----- ------------  ---------------      ----- ------------  ---------------
   717      0.266035  41 N  px              747      0.254758  43 H  s         
   666      0.221758  39 C  s               748      0.170304  43 H  s         
   315     -0.166870  19 C  py              668      0.157098  39 C  py        
   665     -0.154335  39 C  s               738     -0.151026  42 H  s         

 Vector   48  Occ=2.000000D+00  E=-7.202584D-01
              MO Center=  1.2D+00, -9.9D-01,  4.1D-01, r^2= 7.1D+00
   Bfn.  Coefficient  Atom+Function         Bfn.  Coefficient  Atom+Function  
  ----- ------------  ---------------      ----- ------------  ---------------
   144      0.352966   9 C  px              225      0.318439  15 C  s         
   108     -0.228854   7 N  py              145      0.189065   9 C  py        
   128     -0.186865   8 H  s               141      0.185025   9 C  px        
   139     -0.180336   9 C  s                55      0.172560   5 C  s         
   227     -0.159994  15 C  px        

 Vector   49  Occ=2.000000D+00  E=-6.992844D-01
              MO Center=  5.8D-01, -1.1D+00,  2.6D-01, r^2= 8.9D+00
   Bfn.  Coefficient  Atom+Function         Bfn.  Coefficient  Atom+Function  
  ----- ------------  ---------------      ----- ------------  ---------------
   107      0.174855   7 N  px              162      0.163096  10 H  s         

 Vector   50  Occ=2.000000D+00  E=-6.914031D-01
              MO Center= -5.4D-01,  1.8D+00, -2.0D-01, r^2= 1.0D+01
   Bfn.  Coefficient  Atom+Function         Bfn.  Coefficient  Atom+Function  
  ----- ------------  ---------------      ----- ------------  ---------------
   447      0.203792  27 N  px              414     -0.183704  25 C  py        
   538      0.168666  32 C  s               630      0.161142  37 H  s         
   645      0.159634  38 C  px              646      0.160395  38 C  py        
   561      0.157974  33 H  s         

 Vector   51  Occ=2.000000D+00  E=-6.884168D-01
              MO Center=  1.4D+00, -1.3D+00, -4.1D-01, r^2= 7.9D+00
   Bfn.  Coefficient  Atom+Function         Bfn.  Coefficient  Atom+Function  
  ----- ------------  ---------------      ----- ------------  ---------------
    83     -0.244229   6 O  py               80      0.229302   6 O  s         
    59      0.196280   5 C  pz               82     -0.150987   6 O  px        

 Vector   52  Occ=2.000000D+00  E=-6.700300D-01
              MO Center=  1.5D-01,  2.6D+00, -5.3D-01, r^2= 7.7D+00
   Bfn.  Coefficient  Atom+Function         Bfn.  Coefficient  Atom+Function  
  ----- ------------  ---------------      ----- ------------  ---------------
   574      0.239953  34 C  px              595      0.222446  35 H  s         
   540      0.201144  32 C  px              596      0.197901  35 H  s         
   434      0.175804  26 H  s               539     -0.164601  32 C  s         
   413     -0.159911  25 C  px        

 Vector   53  Occ=2.000000D+00  E=-6.589227D-01
              MO Center= -1.3D-01, -1.6D+00,  2.0D-01, r^2= 9.1D+00
   Bfn.  Coefficient  Atom+Function         Bfn.  Coefficient  Atom+Function  
  ----- ------------  ---------------      ----- ------------  ---------------
   277      0.188038  17 N  px               12      0.162799   2 C  s         
   314     -0.156293  19 C  px        

 Vector   54  Occ=2.000000D+00  E=-6.358128D-01
              MO Center= -7.5D-01, -1.1D+00,  1.3D-01, r^2= 9.9D+00
   Bfn.  Coefficient  Atom+Function         Bfn.  Coefficient  Atom+Function  
  ----- ------------  ---------------      ----- ------------  ---------------
   738     -0.159406  42 H  s               718      0.156122  41 N  py        
   250      0.155038  16 O  s               254      0.155179  16 O  pz        

 Vector   55  Occ=2.000000D+00  E=-6.336666D-01
              MO Center=  2.3D+00, -5.9D-01, -7.7D-01, r^2= 7.2D+00
   Bfn.  Coefficient  Atom+Function         Bfn.  Coefficient  Atom+Function  
  ----- ------------  ---------------      ----- ------------  ---------------
   139     -0.263732   9 C  s                14      0.246727   2 C  px        
    35      0.212680   3 H  s                 1     -0.210134   1 H  s         
     2     -0.171275   1 H  s         

 Vector   56  Occ=2.000000D+00  E=-6.220493D-01
              MO Center= -1.8D-01,  2.0D+00, -1.5D-01, r^2= 8.6D+00
   Bfn.  Coefficient  Atom+Function         Bfn.  Coefficient  Atom+Function  
  ----- ------------  ---------------      ----- ------------  ---------------
   630      0.210238  37 H  s               507     -0.207802  30 C  py        
   505      0.193869  30 C  s               609     -0.188480  36 C  py        
   528     -0.180645  31 H  s               482      0.171255  29 C  py        
   629      0.171250  37 H  s               485      0.165760  29 C  py        
   527     -0.164593  31 H  s         

 Vector   57  Occ=2.000000D+00  E=-6.124985D-01
              MO Center= -6.0D-02, -1.4D-02,  5.2D-01, r^2= 1.1D+01
   Bfn.  Coefficient  Atom+Function         Bfn.  Coefficient  Atom+Function  
  ----- ------------  ---------------      ----- ------------  ---------------
   250     -0.146740  16 O  s               299      0.146000  18 H  s         
   254     -0.141208  16 O  pz              175      0.138208  11 C  px        
   449      0.137089  27 N  pz              205      0.133351  13 H  s         

 Vector   58  Occ=2.000000D+00  E=-6.098087D-01
              MO Center=  1.6D-01,  2.3D+00, -2.9D-01, r^2= 7.8D+00
   Bfn.  Coefficient  Atom+Function         Bfn.  Coefficient  Atom+Function  
  ----- ------------  ---------------      ----- ------------  ---------------
   484      0.166276  29 C  px              630      0.163735  37 H  s         
   527     -0.162371  31 H  s               610     -0.161859  36 C  pz        
   647      0.158899  38 C  pz              541      0.154175  32 C  py        
   646      0.154386  38 C  py              483     -0.150515  29 C  pz        

 Vector   59  Occ=2.000000D+00  E=-6.035068D-01
              MO Center= -7.9D-01,  8.1D-01,  6.7D-03, r^2= 1.1D+01
   Bfn.  Coefficient  Atom+Function         Bfn.  Coefficient  Atom+Function  
  ----- ------------  ---------------      ----- ------------  ---------------
   449      0.184703  27 N  pz              666      0.173398  39 C  s         
   300     -0.157779  18 H  s               283      0.150100  17 N  px        

 Vector   60  Occ=2.000000D+00  E=-5.947850D-01
              MO Center=  1.4D+00, -8.1D-01,  2.9D-02, r^2= 9.3D+00
   Bfn.  Coefficient  Atom+Function         Bfn.  Coefficient  Atom+Function  
  ----- ------------  ---------------      ----- ------------  ---------------
    83      0.235733   6 O  py               45     -0.201749   4 H  s         
    58     -0.198187   5 C  py               84      0.169992   6 O  pz        
    13      0.158764   2 C  s                15      0.152808   2 C  py        

 Vector   61  Occ=2.000000D+00  E=-5.918116D-01
              MO Center= -1.4D+00, -1.1D+00,  1.1D-01, r^2= 9.9D+00
   Bfn.  Coefficient  Atom+Function         Bfn.  Coefficient  Atom+Function  
  ----- ------------  ---------------      ----- ------------  ---------------
   692      0.239358  40 O  px              253      0.187464  16 O  py        
   667     -0.185164  39 C  px              690     -0.173656  40 O  s         
   229      0.158390  15 C  pz        

 Vector   62  Occ=2.000000D+00  E=-5.874181D-01
              MO Center=  8.6D-01, -3.7D-01, -1.2D-01, r^2= 1.2D+01
   Bfn.  Coefficient  Atom+Function         Bfn.  Coefficient  Atom+Function  
  ----- ------------  ---------------      ----- ------------  ---------------
    44     -0.220736   4 H  s                45     -0.212515   4 H  s         
    15      0.203779   2 C  py              300     -0.186324  18 H  s         
   177     -0.177340  11 C  pz               13      0.157463   2 C  s         

 Vector   63  Occ=2.000000D+00  E=-5.840972D-01
              MO Center=  1.0D+00, -5.9D-01,  2.1D-01, r^2= 1.2D+01
   Bfn.  Coefficient  Atom+Function         Bfn.  Coefficient  Atom+Function  
  ----- ------------  ---------------      ----- ------------  ---------------
    44      0.218603   4 H  s                16     -0.191046   2 C  pz        
   197      0.189112  12 H  s                45      0.177430   4 H  s         
   196      0.162325  12 H  s               106      0.159960   7 N  s         

 Vector   64  Occ=2.000000D+00  E=-5.797462D-01
              MO Center= -1.1D+00,  2.6D-01,  1.5D-01, r^2= 1.1D+01
   Bfn.  Coefficient  Atom+Function         Bfn.  Coefficient  Atom+Function  
  ----- ------------  ---------------      ----- ------------  ---------------
   413     -0.150466  25 C  px              692     -0.150204  40 O  px        

 Vector   65  Occ=2.000000D+00  E=-5.675615D-01
              MO Center= -9.8D-01, -8.6D-01,  4.3D-02, r^2= 1.1D+01
   Bfn.  Coefficient  Atom+Function         Bfn.  Coefficient  Atom+Function  
  ----- ------------  ---------------      ----- ------------  ---------------
   692      0.186030  40 O  px              312      0.167679  19 C  py        
   669     -0.162892  39 C  pz              345      0.154788  21 C  px        

 Vector   66  Occ=2.000000D+00  E=-5.555551D-01
              MO Center=  1.1D+00,  2.4D-01,  3.5D-01, r^2= 1.2D+01
   Bfn.  Coefficient  Atom+Function         Bfn.  Coefficient  Atom+Function  
  ----- ------------  ---------------      ----- ------------  ---------------
   214      0.203452  14 H  s               215      0.184978  14 H  s         
   562     -0.176340  33 H  s               175     -0.172476  11 C  px        
   206     -0.166091  13 H  s               176      0.162946  11 C  py        
   139     -0.159757   9 C  s               561     -0.150504  33 H  s         

 Vector   67  Occ=2.000000D+00  E=-5.512743D-01
              MO Center=  1.4D+00, -2.2D-01, -6.7D-02, r^2= 1.1D+01
   Bfn.  Coefficient  Atom+Function         Bfn.  Coefficient  Atom+Function  
  ----- ------------  ---------------      ----- ------------  ---------------
   197      0.216970  12 H  s                35      0.171165   3 H  s         
   107     -0.170736   7 N  px              196      0.161750  12 H  s         
   630      0.157009  37 H  s                16      0.154190   2 C  pz        
   110     -0.152074   7 N  px        

 Vector   68  Occ=2.000000D+00  E=-5.486719D-01
              MO Center=  1.6D+00, -4.6D-01,  7.6D-01, r^2= 9.8D+00
   Bfn.  Coefficient  Atom+Function         Bfn.  Coefficient  Atom+Function  
  ----- ------------  ---------------      ----- ------------  ---------------
   197      0.261293  12 H  s               196      0.253936  12 H  s         
   177      0.240835  11 C  pz              109      0.173338   7 N  pz        
    44     -0.167643   4 H  s               143     -0.160017   9 C  pz        
   206     -0.155600  13 H  s         

 Vector   69  Occ=2.000000D+00  E=-5.364290D-01
              MO Center= -6.9D-01,  6.0D-01, -6.0D-01, r^2= 1.0D+01
   Bfn.  Coefficient  Atom+Function         Bfn.  Coefficient  Atom+Function  
  ----- ------------  ---------------      ----- ------------  ---------------
   596      0.269277  35 H  s               389     -0.194695  24 C  py        
   595      0.180076  35 H  s               573     -0.169767  34 C  s         
   346      0.162754  21 C  py              366     -0.161751  22 H  s         
   347      0.158017  21 C  pz              668      0.156070  39 C  py        

 Vector   70  Occ=2.000000D+00  E=-5.326142D-01
              MO Center=  7.5D-01, -6.1D-01,  1.0D+00, r^2= 8.8D+00
   Bfn.  Coefficient  Atom+Function         Bfn.  Coefficient  Atom+Function  
  ----- ------------  ---------------      ----- ------------  ---------------
   254      0.212464  16 O  pz              205      0.191968  13 H  s         
   206      0.191447  13 H  s               175      0.189278  11 C  px        
   215     -0.187825  14 H  s         

 Vector   71  Occ=2.000000D+00  E=-5.206364D-01
              MO Center= -1.3D+00, -6.0D-01, -3.7D-01, r^2= 9.3D+00
   Bfn.  Coefficient  Atom+Function         Bfn.  Coefficient  Atom+Function  
  ----- ------------  ---------------      ----- ------------  ---------------
   719      0.175739  41 N  pz              345      0.165644  21 C  px        
   346     -0.156413  21 C  py              694      0.151216  40 O  pz        

 Vector   72  Occ=2.000000D+00  E=-5.147180D-01
              MO Center=  5.5D-01, -4.5D-02,  2.3D-01, r^2= 9.9D+00
   Bfn.  Coefficient  Atom+Function         Bfn.  Coefficient  Atom+Function  
  ----- ------------  ---------------      ----- ------------  ---------------
   596     -0.206946  35 H  s               142      0.203278   9 C  py        
   367     -0.178646  22 H  s               162     -0.176959  10 H  s         
   176     -0.171500  11 C  py              630      0.170662  37 H  s         
   366     -0.154957  22 H  s               347      0.153130  21 C  pz        

 Vector   73  Occ=2.000000D+00  E=-4.996094D-01
              MO Center= -3.6D-01,  1.1D-01,  4.8D-02, r^2= 1.1D+01
   Bfn.  Coefficient  Atom+Function         Bfn.  Coefficient  Atom+Function  
  ----- ------------  ---------------      ----- ------------  ---------------
   309      0.262624  19 C  s               630     -0.245022  37 H  s         
   343     -0.193084  21 C  s               392      0.187727  24 C  py        
   528     -0.179294  31 H  s               332      0.170500  20 H  s         
   313      0.155525  19 C  pz              578     -0.150275  34 C  py        

 Vector   74  Occ=2.000000D+00  E=-4.912843D-01
              MO Center= -1.2D+00,  5.7D-01, -3.2D-01, r^2= 8.6D+00
   Bfn.  Coefficient  Atom+Function         Bfn.  Coefficient  Atom+Function  
  ----- ------------  ---------------      ----- ------------  ---------------
   630     -0.265635  37 H  s               376      0.246790  23 H  s         
   367     -0.203350  22 H  s               643     -0.204063  38 C  py        
   573     -0.201926  34 C  s               528     -0.183510  31 H  s         
   482      0.182223  29 C  py              388      0.175788  24 C  px        
   332     -0.168290  20 H  s               646     -0.160813  38 C  py        

 Vector   75  Occ=2.000000D+00  E=-4.847197D-01
              MO Center=  6.2D-02,  2.8D+00, -4.3D-01, r^2= 5.1D+00
   Bfn.  Coefficient  Atom+Function         Bfn.  Coefficient  Atom+Function  
  ----- ------------  ---------------      ----- ------------  ---------------
   300      0.334138  18 H  s               395      0.222052  24 C  py        
   449      0.187301  27 N  pz              576     -0.184702  34 C  pz        
   542     -0.172615  32 C  pz              452      0.161182  27 N  pz        
   610     -0.154055  36 C  pz        

 Vector   76  Occ=2.000000D+00  E=-4.450226D-01
              MO Center=  1.3D+00, -1.6D+00,  1.5D-01, r^2= 6.1D+00
   Bfn.  Coefficient  Atom+Function         Bfn.  Coefficient  Atom+Function  
  ----- ------------  ---------------      ----- ------------  ---------------
    82      0.305586   6 O  px               85      0.240368   6 O  px        
   139      0.224723   9 C  s               107     -0.201758   7 N  px        
   110     -0.202193   7 N  px              106     -0.191242   7 N  s         
   254     -0.190878  16 O  pz              109     -0.189607   7 N  pz        
   252     -0.180754  16 O  px               84     -0.178399   6 O  pz        

 Vector   77  Occ=2.000000D+00  E=-4.436088D-01
              MO Center=  1.7D+00, -1.8D+00, -1.0D-01, r^2= 4.7D+00
   Bfn.  Coefficient  Atom+Function         Bfn.  Coefficient  Atom+Function  
  ----- ------------  ---------------      ----- ------------  ---------------
    84      0.437995   6 O  pz               87      0.348655   6 O  pz        
   300      0.278115  18 H  s               252     -0.235464  16 O  px        
   255     -0.186816  16 O  px               13     -0.165079   2 C  s         
   233      0.164856  15 C  px              108      0.161274   7 N  py        
   139      0.157595   9 C  s         

 Vector   78  Occ=2.000000D+00  E=-4.279135D-01
              MO Center= -1.1D+00, -2.1D+00,  2.1D-01, r^2= 6.9D+00
   Bfn.  Coefficient  Atom+Function         Bfn.  Coefficient  Atom+Function  
  ----- ------------  ---------------      ----- ------------  ---------------
   333      0.363911  20 H  s               693      0.316617  40 O  py        
   309     -0.258422  19 C  s               696      0.254773  40 O  py        
   252      0.229331  16 O  px              253     -0.209984  16 O  py        
   255      0.179022  16 O  px              279      0.167022  17 N  pz        
   692     -0.163246  40 O  px              256     -0.161150  16 O  py        

 Vector   79  Occ=2.000000D+00  E=-4.039199D-01
              MO Center=  8.2D-01, -1.6D+00,  9.7D-01, r^2= 5.5D+00
   Bfn.  Coefficient  Atom+Function         Bfn.  Coefficient  Atom+Function  
  ----- ------------  ---------------      ----- ------------  ---------------
   252      0.314758  16 O  px              107     -0.276487   7 N  px        
   110     -0.249348   7 N  px              255      0.244191  16 O  px        
   106     -0.223616   7 N  s               254      0.196148  16 O  pz        
   144      0.194170   9 C  px              141      0.188276   9 C  px        
   163      0.170377  10 H  s               257      0.169104  16 O  pz        

 Vector   80  Occ=2.000000D+00  E=-3.939849D-01
              MO Center= -8.2D-01,  2.0D+00, -2.7D-01, r^2= 6.4D+00
   Bfn.  Coefficient  Atom+Function         Bfn.  Coefficient  Atom+Function  
  ----- ------------  ---------------      ----- ------------  ---------------
   390      0.187295  24 C  pz              508     -0.172005  30 C  pz        
   644      0.171391  38 C  pz              284     -0.156224  17 N  py        
   315     -0.154476  19 C  py        

 Vector   81  Occ=2.000000D+00  E=-3.875353D-01
              MO Center= -1.8D+00, -3.1D+00, -8.8D-01, r^2= 2.8D+00
   Bfn.  Coefficient  Atom+Function         Bfn.  Coefficient  Atom+Function  
  ----- ------------  ---------------      ----- ------------  ---------------
   694      0.392966  40 O  pz              719     -0.369064  41 N  pz        
   722     -0.328302  41 N  pz              697      0.307196  40 O  pz        
   718      0.207349  41 N  py              139      0.175762   9 C  s         
   721      0.162043  41 N  py              333      0.157084  20 H  s         
   666     -0.152695  39 C  s         

 Vector   82  Occ=2.000000D+00  E=-3.790280D-01
              MO Center= -1.3D+00, -2.0D+00,  1.3D-01, r^2= 5.1D+00
   Bfn.  Coefficient  Atom+Function         Bfn.  Coefficient  Atom+Function  
  ----- ------------  ---------------      ----- ------------  ---------------
   693      0.330707  40 O  py              278     -0.275684  17 N  py        
   696      0.259143  40 O  py              281     -0.257296  17 N  py        
   253      0.201287  16 O  py              279     -0.188300  17 N  pz        
   282     -0.179862  17 N  pz              671     -0.160181  39 C  py        
   256      0.157513  16 O  py        

 Vector   83  Occ=2.000000D+00  E=-3.213629D-01
              MO Center= -1.8D-01,  2.8D+00, -3.4D-01, r^2= 4.3D+00
   Bfn.  Coefficient  Atom+Function         Bfn.  Coefficient  Atom+Function  
  ----- ------------  ---------------      ----- ------------  ---------------
   650     -0.220149  38 C  pz              576     -0.218142  34 C  pz        
   483      0.209703  29 C  pz              579     -0.195267  34 C  pz        
   644      0.182567  38 C  pz              486      0.163079  29 C  pz        
   489      0.162321  29 C  pz              647      0.153626  38 C  pz        
   449     -0.150802  27 N  pz        

 Vector   84  Occ=2.000000D+00  E=-3.020903D-01
              MO Center= -9.5D-01,  2.3D+00, -1.9D-01, r^2= 5.5D+00
   Bfn.  Coefficient  Atom+Function         Bfn.  Coefficient  Atom+Function  
  ----- ------------  ---------------      ----- ------------  ---------------
   390      0.219583  24 C  pz              393      0.182917  24 C  pz        
   415      0.180078  25 C  pz              610     -0.170793  36 C  pz        
   449     -0.161893  27 N  pz              508      0.155272  30 C  pz        
   418      0.150379  25 C  pz              452     -0.150321  27 N  pz        

 Vector   85  Occ=0.000000D+00  E= 1.938488D-02
              MO Center=  3.0D+00,  3.3D+00,  5.3D-01, r^2= 3.0D+01
   Bfn.  Coefficient  Atom+Function         Bfn.  Coefficient  Atom+Function  
  ----- ------------  ---------------      ----- ------------  ---------------
   300      6.672340  18 H  s               539     -2.810029  32 C  s         
   563     -2.448640  33 H  s               394      2.244697  24 C  px        
   649      2.197743  38 C  py              607      2.071263  36 C  s         
   207     -1.915994  13 H  s               488      1.796015  29 C  py        
    37     -1.780065   3 H  s               233      1.742290  15 C  px        

 Vector   86  Occ=0.000000D+00  E= 2.529775D-02
              MO Center= -3.4D-01,  3.5D+00,  1.3D+00, r^2= 3.7D+01
   Bfn.  Coefficient  Atom+Function         Bfn.  Coefficient  Atom+Function  
  ----- ------------  ---------------      ----- ------------  ---------------
   446      2.672673  27 N  s               487      2.683617  29 C  px        
   573     -2.604956  34 C  s               529      2.366696  31 H  s         
   300      2.076593  18 H  s               597     -2.034803  35 H  s         
   436      1.849956  26 H  s               470      1.847858  28 H  s         
   650     -1.849907  38 C  pz              505      1.793295  30 C  s         

 Vector   87  Occ=0.000000D+00  E= 3.512991D-02
              MO Center=  1.6D+00,  3.0D+00,  5.8D-01, r^2= 4.4D+01
   Bfn.  Coefficient  Atom+Function         Bfn.  Coefficient  Atom+Function  
  ----- ------------  ---------------      ----- ------------  ---------------
   563     -3.919585  33 H  s               487      3.877089  29 C  px        
   505     -3.590321  30 C  s               539     -3.197728  32 C  s         
   547      2.811643  32 C  py              488      2.599198  29 C  py        
   446      2.326927  27 N  s               436      2.298517  26 H  s         
   235     -2.207432  15 C  pz              614      1.890518  36 C  px        

 Vector   88  Occ=0.000000D+00  E= 3.615969D-02
              MO Center=  2.8D+00,  7.1D-01, -3.5D-01, r^2= 3.7D+01
   Bfn.  Coefficient  Atom+Function         Bfn.  Coefficient  Atom+Function  
  ----- ------------  ---------------      ----- ------------  ---------------
   106      4.145652   7 N  s                65     -3.257691   5 C  pz        
   597     -3.102794  35 H  s               207      2.725444  13 H  s         
    63      2.504811   5 C  px              235     -2.218608  15 C  pz        
   233     -2.071814  15 C  px              666     -2.076819  39 C  s         
   300      1.965863  18 H  s                46     -1.951181   4 H  s         

[...]
  ----- ------------  ---------------      ----- ------------  ---------------
   233     12.906005  15 C  px               65    -11.280543   5 C  pz        
   505      9.687867  30 C  s               666     -8.932062  39 C  s         
   716      8.385087  41 N  s               300      7.850860  18 H  s         
    13     -7.354389   2 C  s               352     -6.800694  21 C  py        
   276      6.294171  17 N  s               149     -5.951840   9 C  pz        

 Vector  213  Occ=0.000000D+00  E= 4.476325D-01
              MO Center= -8.3D-02,  5.3D-01, -2.7D-02, r^2= 2.2D+01
   Bfn.  Coefficient  Atom+Function         Bfn.  Coefficient  Atom+Function  
  ----- ------------  ---------------      ----- ------------  ---------------
   650    -12.548339  38 C  pz              446     12.372331  27 N  s         
   233     10.832423  15 C  px               56    -10.133012   5 C  s         
   106     -8.957373   7 N  s               319      8.590662  19 C  pz        
   300     -8.236005  18 H  s               666      7.251809  39 C  s         
   395     -7.028946  24 C  py              310      6.936387  19 C  s         

 Vector  214  Occ=0.000000D+00  E= 4.510877D-01
              MO Center=  5.4D-01,  4.5D-01, -6.3D-02, r^2= 2.4D+01
   Bfn.  Coefficient  Atom+Function         Bfn.  Coefficient  Atom+Function  
  ----- ------------  ---------------      ----- ------------  ---------------
   300     19.077135  18 H  s                13    -13.559416   2 C  s         
   394     10.901284  24 C  px              352     10.625268  21 C  py        
   319    -10.453505  19 C  pz              284     -9.048236  17 N  py        
    63      8.047761   5 C  px              233     -8.043543  15 C  px        
   226      7.881959  15 C  s               106      7.709416   7 N  s         

 Vector  215  Occ=0.000000D+00  E= 4.535518D-01
              MO Center=  1.1D+00, -6.8D-01, -4.7D-01, r^2= 2.2D+01
   Bfn.  Coefficient  Atom+Function         Bfn.  Coefficient  Atom+Function  
  ----- ------------  ---------------      ----- ------------  ---------------
   300     18.306378  18 H  s               115     11.080216   7 N  pz        
   174     -9.978926  11 C  s               319     -8.744866  19 C  pz        
    12     -8.587316   2 C  s               284     -8.305053  17 N  py        
     3     -7.703441   1 H  s               446     -7.557562  27 N  s         
   666     -7.530623  39 C  s               641     -6.844728  38 C  s         

 Vector  216  Occ=0.000000D+00  E= 4.583270D-01
              MO Center=  8.4D-01,  6.7D-01,  2.2D-01, r^2= 2.5D+01
   Bfn.  Coefficient  Atom+Function         Bfn.  Coefficient  Atom+Function  
  ----- ------------  ---------------      ----- ------------  ---------------
   505     10.222687  30 C  s               396      8.473513  24 C  pz        
   649     -8.296892  38 C  py              234     -8.159353  15 C  py        
   489     -7.601941  29 C  pz              395      7.060843  24 C  py        
   539      6.590660  32 C  s               216      6.304345  14 H  s         
   573     -6.024625  34 C  s               454      5.986262  27 N  py        

 Vector  217  Occ=0.000000D+00  E= 4.624637D-01
              MO Center= -9.5D-02,  9.7D-01, -3.4D-02, r^2= 2.2D+01
   Bfn.  Coefficient  Atom+Function         Bfn.  Coefficient  Atom+Function  
  ----- ------------  ---------------      ----- ------------  ---------------
   446     12.206516  27 N  s               489     -8.857183  29 C  pz        
   487      8.325381  29 C  px              573      7.627510  34 C  s         
   174     -6.610393  11 C  s               666      6.559788  39 C  s         
   317      6.099267  19 C  px              233      5.140876  15 C  px        
     2      5.100688   1 H  s               505     -4.850046  30 C  s         

 Vector  218  Occ=0.000000D+00  E= 4.656842D-01
              MO Center= -2.7D-01, -1.7D-01,  2.1D-01, r^2= 2.3D+01
   Bfn.  Coefficient  Atom+Function         Bfn.  Coefficient  Atom+Function  
  ----- ------------  ---------------      ----- ------------  ---------------
   666     16.753871  39 C  s               276    -11.335722  17 N  s         
   716    -11.142884  41 N  s               317      7.679356  19 C  px        
   318      7.411663  19 C  py              573      7.024838  34 C  s         
   226     -6.100108  15 C  s               487      6.114938  29 C  px        
   505     -5.975040  30 C  s               489     -5.922400  29 C  pz        

 Vector  219  Occ=0.000000D+00  E= 4.680068D-01
              MO Center=  7.9D-01, -1.2D-01, -3.8D-01, r^2= 2.3D+01
   Bfn.  Coefficient  Atom+Function         Bfn.  Coefficient  Atom+Function  
  ----- ------------  ---------------      ----- ------------  ---------------
   300     14.289638  18 H  s                 3     11.171134   1 H  s         
   412     10.834201  25 C  s               641    -10.228309  38 C  s         
   487     10.108116  29 C  px              395      9.693309  24 C  py        
     2      9.628205   1 H  s                13     -8.694772   2 C  s         
   480     -7.662938  29 C  s               649     -7.589129  38 C  py        

 Vector  220  Occ=0.000000D+00  E= 4.700415D-01
              MO Center= -1.7D-01, -3.7D-01,  1.9D-01, r^2= 2.2D+01
   Bfn.  Coefficient  Atom+Function         Bfn.  Coefficient  Atom+Function  
  ----- ------------  ---------------      ----- ------------  ---------------
   174     12.376504  11 C  s               317     -9.030513  19 C  px        
    56     -8.760235   5 C  s               283     -8.521638  17 N  px        
   395      7.762599  24 C  py              115     -6.847375   7 N  pz        
   353     -6.842313  21 C  pz              226      6.677327  15 C  s         
   173      6.327237  11 C  s               666     -6.062410  39 C  s         

 Vector  221  Occ=0.000000D+00  E= 4.737922D-01
              MO Center= -9.5D-02, -5.4D-01,  2.8D-01, r^2= 2.0D+01
   Bfn.  Coefficient  Atom+Function         Bfn.  Coefficient  Atom+Function  
  ----- ------------  ---------------      ----- ------------  ---------------
   276     25.742239  17 N  s               317    -16.693592  19 C  px        
   174    -15.258338  11 C  s               352      9.796598  21 C  py        
   396      8.935389  24 C  pz              310      8.660162  19 C  s         
   149      7.404827   9 C  pz              446     -7.350028  27 N  s         
   353     -6.790563  21 C  pz              394      6.739313  24 C  px        

 Vector  222  Occ=0.000000D+00  E= 4.766035D-01
              MO Center=  3.1D-01, -2.5D-01,  3.1D-01, r^2= 2.3D+01
   Bfn.  Coefficient  Atom+Function         Bfn.  Coefficient  Atom+Function  
  ----- ------------  ---------------      ----- ------------  ---------------
   666     38.278420  39 C  s               318     14.507878  19 C  py        
   283     12.953783  17 N  px              716    -11.925574  41 N  s         
   650    -10.802169  38 C  pz              539    -10.572069  32 C  s         
   233     10.315346  15 C  px              310      9.866728  19 C  s         
   487      9.466828  29 C  px              648     -9.157588  38 C  px        

 Vector  223  Occ=0.000000D+00  E= 4.822252D-01
              MO Center=  9.3D-02, -6.0D-01,  2.4D-02, r^2= 2.3D+01
   Bfn.  Coefficient  Atom+Function         Bfn.  Coefficient  Atom+Function  
  ----- ------------  ---------------      ----- ------------  ---------------
   716     11.509894  41 N  s               233      8.455625  15 C  px        
   149     -7.875942   9 C  pz              666     -7.750078  39 C  s         
   115     -7.280342   7 N  pz              283     -6.873639  17 N  px        
   673     -6.739047  39 C  px               56     -6.554340   5 C  s         
   539     -6.555529  32 C  s                13     -6.032414   2 C  s         

 Vector  224  Occ=0.000000D+00  E= 4.832286D-01
              MO Center=  2.7D-01,  1.8D-01,  3.0D-01, r^2= 2.4D+01
   Bfn.  Coefficient  Atom+Function         Bfn.  Coefficient  Atom+Function  
  ----- ------------  ---------------      ----- ------------  ---------------
   650     13.022979  38 C  pz              300    -10.499770  18 H  s         
    13     10.028089   2 C  s               616     -9.592415  36 C  pz        
   396     -8.863918  24 C  pz              412     -8.094990  25 C  s         
   420     -7.759491  25 C  py              233      7.605506  15 C  px        
   649      7.432690  38 C  py               12      6.791933   2 C  s         

 Vector  225  Occ=0.000000D+00  E= 4.865284D-01
              MO Center=  6.2D-01,  6.1D-01,  2.3D-01, r^2= 2.1D+01
   Bfn.  Coefficient  Atom+Function         Bfn.  Coefficient  Atom+Function  
  ----- ------------  ---------------      ----- ------------  ---------------
   666     24.731682  39 C  s               412    -10.101584  25 C  s         
   233      9.485152  15 C  px              318      8.961801  19 C  py        
    12     -8.568353   2 C  s               317      8.229276  19 C  px        
    13     -7.888872   2 C  s               648     -7.784865  38 C  px        
   310      7.173460  19 C  s               716     -6.815266  41 N  s         

 Vector  226  Occ=0.000000D+00  E= 4.904647D-01
              MO Center= -1.9D-03, -8.5D-02,  3.0D-01, r^2= 2.0D+01
   Bfn.  Coefficient  Atom+Function         Bfn.  Coefficient  Atom+Function  
  ----- ------------  ---------------      ----- ------------  ---------------
   352     12.223588  21 C  py              276     10.946347  17 N  s         
   396     10.663394  24 C  pz              367      9.527629  22 H  s         
   319     -7.901652  19 C  pz              387     -7.564554  24 C  s         
   149      7.272531   9 C  pz              394      6.795697  24 C  px        
   317     -6.560533  19 C  px              376      5.623209  23 H  s         

 Vector  227  Occ=0.000000D+00  E= 4.942171D-01
              MO Center= -7.2D-02, -8.1D-02, -5.7D-01, r^2= 2.0D+01
   Bfn.  Coefficient  Atom+Function         Bfn.  Coefficient  Atom+Function  
  ----- ------------  ---------------      ----- ------------  ---------------
   666     22.442038  39 C  s               300    -11.732180  18 H  s         
   505     -8.881308  30 C  s               573      7.903810  34 C  s         
    13      6.714213   2 C  s               487      6.318766  29 C  px        
   319     -6.161255  19 C  pz              489     -6.054322  29 C  pz        
    12      5.920245   2 C  s               691     -5.940874  40 O  s         

 Vector  228  Occ=0.000000D+00  E= 5.004067D-01
              MO Center=  2.4D-01,  9.4D-01,  3.4D-01, r^2= 2.1D+01
   Bfn.  Coefficient  Atom+Function         Bfn.  Coefficient  Atom+Function  
  ----- ------------  ---------------      ----- ------------  ---------------
   174     11.002911  11 C  s               115     -8.822088   7 N  pz        
   317      8.558172  19 C  px               12      8.443130   2 C  s         
   387      7.824361  24 C  s               505     -6.519729  30 C  s         
   716      6.484806  41 N  s               650     -5.645588  38 C  pz        
   487      5.564839  29 C  px              113      5.493698   7 N  px        


 center of mass
 --------------
 x =  -0.07224636 y =  -0.03358867 z =   0.00096961

 moments of inertia (a.u.)
 ------------------
        7686.876971143897          -0.000000000002          -0.000000000002
          -0.000000000002        5744.121628306335          -0.000000000001
          -0.000000000002          -0.000000000001       10120.366657248915

  Mulliken analysis of the total density
  --------------------------------------

    Atom       Charge   Shell Charges
 -----------   ------   -------------------------------------------------------
    1 H    1     1.06   0.77  0.27  0.04  0.03 -0.04
    2 C    6     6.16   2.01  0.66  0.17  0.15  2.07  0.95 -0.01  0.06  0.11
    3 H    1     0.82   0.77  0.09  0.01  0.03 -0.07
    4 H    1     0.91   0.76  0.19 -0.00  0.03 -0.08
    5 C    6     5.24   2.01  0.68  0.14 -0.05  1.90  0.38 -0.05  0.24 -0.01
    6 O    8     8.86   2.01  0.82  1.00  0.21  2.80  1.85  0.17  0.02 -0.01
    7 N    7     7.43   2.01  0.72  0.82 -0.20  2.45  1.45  0.08  0.05  0.04
    8 H    1     0.90   0.77  0.16 -0.05  0.05 -0.03
    9 C    6     6.30   2.01  0.66  0.17 -0.03  1.99  1.23 -0.04  0.14  0.18
   10 H    1     1.17   0.78  0.32  0.02  0.03  0.02
   11 C    6     5.84   2.01  0.66  0.32  0.19  2.04  0.56 -0.03  0.07  0.02
   12 H    1     0.96   0.76  0.25 -0.01  0.03 -0.08
   13 H    1     0.96   0.77  0.24  0.01  0.03 -0.09
   14 H    1     0.93   0.77  0.15  0.04  0.03 -0.06
   15 C    6     4.67   2.01  0.68  0.03 -0.07  1.89  0.12  0.09  0.24 -0.31
   16 O    8     8.91   2.01  0.82  1.06  0.24  2.78  1.85  0.14  0.01 -0.00
   17 N    7     7.32   2.01  0.72  0.79 -0.09  2.46  1.41 -0.05  0.06  0.02
   18 H    1     1.00   0.77  0.28  0.03  0.06 -0.13
   19 C    6     6.32   2.01  0.67  0.13  0.05  1.99  1.16  0.11  0.14  0.06
   20 H    1     1.07   0.78  0.25 -0.01  0.03  0.02
   21 C    6     5.74   2.01  0.66  0.03 -0.02  2.05  0.87  0.03  0.10  0.02
   22 H    1     0.90   0.79  0.22 -0.05  0.03 -0.07
   23 H    1     1.02   0.77  0.29  0.01  0.03 -0.08
   24 C    6     6.24   2.01  0.65  0.17 -0.14  2.04  1.12  0.10  0.12  0.17
   25 C    6     4.86   2.01  0.66 -0.02 -0.07  1.99  0.33  0.03  0.12 -0.18
   26 H    1     1.35   0.77  0.57 -0.01  0.03 -0.01
   27 N    7     8.08   2.01  0.72  1.17 -0.04  2.44  1.53  0.04  0.06  0.16
   28 H    1     1.07   0.77  0.25  0.00  0.05 -0.00
   29 C    6     5.68   2.01  0.66  0.17 -0.04  2.00  0.46  0.30  0.15 -0.04
   30 C    6     5.23   2.01  0.66  0.13 -0.47  2.02  0.77  0.21  0.09 -0.18
   31 H    1     1.52   0.78  0.71 -0.00  0.03 -0.00
   32 C    6     5.51   2.01  0.66  0.17 -0.46  1.99  0.92  0.34  0.09 -0.22
   33 H    1     1.53   0.78  0.71 -0.01  0.03  0.02
   34 C    6     5.28   2.01  0.66  0.11 -0.30  2.01  0.74  0.20  0.09 -0.23
   35 H    1     1.63   0.78  0.81 -0.00  0.03  0.02
   36 C    6     5.27   2.01  0.66  0.14 -0.16  2.00  0.79 -0.02  0.10 -0.24
   37 H    1     1.75   0.79  0.91  0.03  0.03  0.00
   38 C    6     6.09   2.01  0.66  0.27 -0.22  2.02  1.30 -0.12  0.12  0.04
   39 C    6     4.52   2.01  0.68  0.08 -0.01  1.89 -0.20 -0.03  0.24 -0.14
   40 O    8     8.86   2.01  0.82  1.04  0.20  2.79  1.84  0.15  0.01 -0.01
   41 N    7     7.14   2.01  0.72  0.82 -0.23  2.46  1.22  0.11  0.04 -0.02
   42 H    1     1.03   0.76  0.24 -0.00  0.05 -0.03
   43 H    1     0.88   0.73  0.24 -0.02  0.06 -0.13

       Multipole analysis of the density wrt the origin
       ------------------------------------------------

     L   x y z        total         open         nuclear
     -   - - -        -----         ----         -------
     0   0 0 0     -0.000000      0.000000    168.000000

     1   1 0 0      2.133091      0.000000     -0.000000
     1   0 1 0      3.279609      0.000000     -0.000000
     1   0 0 1      0.244862      0.000000     -0.000000

     2   2 0 0    -96.745150      0.000000   2255.139519
     2   1 1 0    -11.908353      0.000000      1.842962
     2   1 0 1     -5.456515      0.000000    -10.707245
     2   0 2 0   -109.101030      0.000000   3210.012659
     2   0 1 1      9.133787      0.000000     18.135926
     2   0 0 2   -103.833960      0.000000    942.943338


 Task  times  cpu:    11996.1s     wall:    12260.9s


                                NWChem Input Module
                                -------------------


 Summary of allocated global arrays
-----------------------------------
  No active global arrays


MA_summarize_allocated_blocks: starting scan ...
MA_summarize_allocated_blocks: scan completed: 0 heap blocks, 0 stack blocks
MA usage statistics:

	allocation statistics:
					      heap	     stack
					      ----	     -----
	current number of blocks	         0	         0
	maximum number of blocks	        16	        14
	current total bytes		         0	         0
	maximum total bytes		    162000	  33964424
	maximum total K-bytes		       162	     33965
	maximum total M-bytes		         1	        34


                                     CITATION
                                     --------
                Please cite the following reference when publishing
                           results obtained with NWChem:

          E. Apra, E. J. Bylaska, W. A. de Jong, N. Govind, K. Kowalski,
       T. P. Straatsma, M. Valiev, H. J. J. van Dam, Y. Alexeev, J. Anchell,
       V. Anisimov, F. W. Aquino, R. Atta-Fynn, J. Autschbach, N. P. Bauman,
     J. C. Becca, D. E. Bernholdt, K. Bhaskaran-Nair, S. Bogatko, P. Borowski,
         J. Boschen, J. Brabec, A. Bruner, E. Cauet, Y. Chen, G. N. Chuev,
      C. J. Cramer, J. Daily, M. J. O. Deegan, T. H. Dunning Jr., M. Dupuis,
   K. G. Dyall, G. I. Fann, S. A. Fischer, A. Fonari, H. Fruchtl, L. Gagliardi,
      J. Garza, N. Gawande, S. Ghosh, K. Glaesemann, A. W. Gotz, J. Hammond,
       V. Helms, E. D. Hermes, K. Hirao, S. Hirata, M. Jacquelin, L. Jensen,
   B. G. Johnson, H. Jonsson, R. A. Kendall, M. Klemm, R. Kobayashi, V. Konkov,
      S. Krishnamoorthy, M. Krishnan, Z. Lin, R. D. Lins, R. J. Littlefield,
      A. J. Logsdail, K. Lopata, W. Ma, A. V. Marenich, J. Martin del Campo,
   D. Mejia-Rodriguez, J. E. Moore, J. M. Mullin, T. Nakajima, D. R. Nascimento,
    J. A. Nichols, P. J. Nichols, J. Nieplocha, A. Otero-de-la-Roza, B. Palmer,
    A. Panyala, T. Pirojsirikul, B. Peng, R. Peverati, J. Pittner, L. Pollack,
   R. M. Richard, P. Sadayappan, G. C. Schatz, W. A. Shelton, D. W. Silverstein,
   D. M. A. Smith, T. A. Soares, D. Song, M. Swart, H. L. Taylor, G. S. Thomas,
            V. Tipparaju, D. G. Truhlar, K. Tsemekhman, T. Van Voorhis,
      A. Vazquez-Mayagoitia, P. Verma, O. Villa, A. Vishnu, K. D. Vogiatzis,
        D. Wang, J. H. Weare, M. J. Williamson, T. L. Windus, K. Wolinski,
        A. T. Wong, Q. Wu, C. Yang, Q. Yu, M. Zacharias, Z. Zhang, Y. Zhao,
                                and R. J. Harrison
                        "NWChem: Past, present, and future
                         J. Chem. Phys. 152, 184102 (2020)
                               doi:10.1063/5.0004997

                                      AUTHORS
                                      -------
  E. Apra, E. J. Bylaska, N. Govind, K. Kowalski, M. Valiev, D. Mejia-Rodriguez,
       A. Kunitsa, N. P. Bauman, A. Panyala, W. A. de Jong, T. P. Straatsma,
   H. J. J. van Dam, D. Wang, T. L. Windus, J. Hammond, J. Autschbach, A. Woods,
    K. Bhaskaran-Nair, J. Brabec, K. Lopata, S. A. Fischer, S. Krishnamoorthy,
     M. Jacquelin, W. Ma, M. Klemm, O. Villa, Y. Chen, V. Anisimov, F. Aquino,
     S. Hirata, M. T. Hackler, E. Hermes, L. Jensen, J. E. Moore, J. C. Becca,
      V. Konjkov, T. Risthaus, M. Malagoli, A. Marenich, A. Otero-de-la-Roza,
        J. Mullin, P. Nichols, R. Peverati, J. Pittner, Y. Zhao, P.-D. Fan,
        A. Fonari, M. J. Williamson, R. J. Harrison, J. R. Rehr, M. Dupuis,
     D. Silverstein, D. M. A. Smith, J. Nieplocha, V. Tipparaju, M. Krishnan,
     B. E. Van Kuiken, A. Vazquez-Mayagoitia, M. Swart, Q. Wu, T. Van Voorhis,
     A. A. Auer, M. Nooijen, L. D. Crosby, E. Brown, G. Cisneros, G. I. Fann,
   H. Fruchtl, J. Garza, K. Hirao, R. A. Kendall, J. A. Nichols, K. Tsemekhman,
    K. Wolinski, J. Anchell, D. E. Bernholdt, P. Borowski, T. Clark, D. Clerc,
   H. Dachsel, M. J. O. Deegan, K. Dyall, D. Elwood, E. Glendening, M. Gutowski,
   A. C. Hess, J. Jaffe, B. G. Johnson, J. Ju, R. Kobayashi, R. Kutteh, Z. Lin,
   R. Littlefield, X. Long, B. Meng, T. Nakajima, S. Niu, L. Pollack, M. Rosing,
   K. Glaesemann, G. Sandrone, M. Stave, H. Taylor, G. Thomas, J. H. van Lenthe,
                               A. T. Wong, Z. Zhang.

 Total times  cpu:    11996.2s     wall:    12261.5s
