export TMOUT=5400
export TMPDIR=/tmp
export PTMPDIR=/tmp/ptmp
 argument  1 = ALA_TYR_3.nw
                                         
                                         


             Northwest Computational Chemistry Package (NWChem) 7.2.0
             --------------------------------------------------------


                    Environmental Molecular Sciences Laboratory
                       Pacific Northwest National Laboratory
                                Richland, WA 99352

                              Copyright (c) 1994-2022
                       Pacific Northwest National Laboratory
                            Battelle Memorial Institute

             NWChem is an open-source computational chemistry package
                        distributed under the terms of the
                      Educational Community License (ECL) 2.0
             A copy of the license is included with this distribution
                              in the LICENSE.TXT file

                                  ACKNOWLEDGMENT
                                  --------------

            This software and its documentation were developed at the
            EMSL at Pacific Northwest National Laboratory, a multiprogram
            national laboratory, operated for the U.S. Department of Energy
            by Battelle under Contract Number DE-AC05-76RL01830. Support
            for this work was provided by the Department of Energy Office
            of Biological and Environmental Research, Office of Basic
            Energy Sciences, and the Office of Advanced Scientific Computing.


           Job information
           ---------------

    hostname        = nova18-wide-41
    program         = /opt/rit/el9/20230413/app/linux-rhel9-x86_64_v3/gcc-11.2.1/nwchem-7.2.0-oxtctbuhfuzyfaoziquq6bki22grib3g/bin/nwchem
    date            = Mon Jun 30 21:18:22 2025

    compiled        = Wed_May_17_23:46:39_2023
    source          = /tmp/root/spack-stage/spack-stage-nwchem-7.2.0-oxtctbuhfuzyfaoziquq6bki22grib3g/spack-src
    nwchem branch   = 7.2.0
    nwchem revision = d0d141fd
    ga revision     = 5.8.0
    use scalapack   = T
    input           = ALA_TYR_3.nw
    prefix          = ALA_TYR_3.
    data base       = ./ALA_TYR_3.db
    status          = startup
    nproc           =        1
    time left       =     -1s



           Memory information
           ------------------

    heap     =   26214398 doubles =    200.0 Mbytes
    stack    =   26214395 doubles =    200.0 Mbytes
    global   =   52428800 doubles =    400.0 Mbytes (distinct from heap & stack)
    total    =  104857593 doubles =    800.0 Mbytes
    verify   = yes
    hardfail = no 


           Directory information
           ---------------------

  0 permanent = .
  0 scratch   = .




                                NWChem Input Module
                                -------------------



 Scaling coordinates for geometry "geometry" by  1.889725989
 (inverse scale =  0.529177249)

 C1  symmetry detected

          ------
          auto-z
          ------
  no constraints, skipping    0.0000000000000000     
  no constraints, skipping    0.0000000000000000     


                             Geometry "geometry" -> ""
                             -------------------------

 Output coordinates in angstroms (scale by  1.889725989 to convert to a.u.)

  No.       Tag          Charge          X              Y              Z
 ---- ---------------- ---------- -------------- -------------- --------------
    1 H                    1.0000    -2.57858401    -5.47450423    -0.23352079
    2 C                    6.0000    -1.56651746    -5.21621907     0.07262799
    3 H                    1.0000    -0.85962882    -5.91316817    -0.37563688
    4 H                    1.0000    -1.48266847    -5.26102164     1.15656529
    5 C                    6.0000    -1.23962849    -3.81854953    -0.39442496
    6 O                    8.0000    -0.29068224    -3.62260890    -1.14619773
    7 N                    7.0000    -2.02159785    -2.83712080     0.05335912
    8 H                    1.0000    -2.75468441    -3.06034359     0.70505052
    9 C                    6.0000    -1.77374592    -1.42928103    -0.25482687
   10 H                    1.0000    -1.79176139    -1.30904445    -1.33957551
   11 C                    6.0000    -2.90186255    -0.57587429     0.33925293
   12 H                    1.0000    -2.91318965    -0.67727419     1.42548254
   13 H                    1.0000    -2.73961823     0.47253151     0.08481225
   14 H                    1.0000    -3.86374958    -0.89333026    -0.06549519
   15 C                    6.0000    -0.38927329    -0.98956250     0.25844903
   16 O                    8.0000    -0.06417911    -1.20017378     1.42546602
   17 N                    7.0000     0.41441947    -0.38523864    -0.62343737
   18 H                    1.0000     0.05541632    -0.24072217    -1.55275149
   19 C                    6.0000     1.81100904     0.01705723    -0.37791831
   20 H                    1.0000     2.18181876     0.40823641    -1.32460147
   21 C                    6.0000     1.87707894     1.18665522     0.62299392
   22 H                    1.0000     1.70384181     0.80234619     1.62901403
   23 H                    1.0000     2.88620397     1.60215382     0.61064107
   24 C                    6.0000     0.89019580     2.30808677     0.34700487
   25 C                    6.0000     1.17477780     3.27298404    -0.63889997
   26 H                    1.0000     2.10864404     3.22634746    -1.18279322
   27 C                    6.0000     0.24857414     4.29850898    -0.91350220
   28 H                    1.0000     0.46921371     5.03718793    -1.66782414
   29 C                    6.0000    -0.96785968     4.35681162    -0.19878019
   30 O                    8.0000    -1.86886411     5.34037360    -0.45795162
   31 H                    1.0000    -1.52765221     5.98577768    -1.07595001
   32 C                    6.0000    -1.25208302     3.39055613     0.78854824
   33 H                    1.0000    -2.18290141     3.44835997     1.33249385
   34 C                    6.0000    -0.32202937     2.36980396     1.06251945
   35 H                    1.0000    -0.53720501     1.62978576     1.82261649
   36 C                    6.0000     2.78239722    -1.13249377    -0.02089098
   37 O                    8.0000     3.93021051    -0.88657593     0.33057747
   38 N                    7.0000     2.38768001    -2.39561675    -0.14174071
   39 H                    1.0000     1.44527340    -2.61477459    -0.43372807
   40 H                    1.0000     3.03964049    -3.12173268     0.09986267

      Atomic Mass 
      ----------- 

      H                  1.007825
      C                 12.000000
      O                 15.994910
      N                 14.003070


 Effective nuclear repulsion energy (a.u.)    1727.3349029029

            Nuclear Dipole moment (a.u.) 
            ----------------------------
        X                 Y               Z
 ---------------- ---------------- ----------------
     0.0000000000    -0.0000000000     0.0000000000



                                Z-matrix (autoz)
                                -------- 

 Units are Angstrom for bonds and degrees for angles

      Type          Name      I     J     K     L     M      Value
      ----------- --------  ----- ----- ----- ----- ----- ----------
    1 Stretch                  1     2                       1.08845
    2 Stretch                  2     3                       1.08921
    3 Stretch                  2     4                       1.08810
    4 Stretch                  2     5                       1.50946
    5 Stretch                  5     6                       1.22640
    6 Stretch                  5     7                       1.33236
    7 Stretch                  7     8                       1.00596
    8 Stretch                  7     9                       1.46233
    9 Stretch                  9    10                       1.09154
   10 Stretch                  9    11                       1.53424
   11 Stretch                  9    15                       1.54064
   12 Stretch                 11    12                       1.09101
   13 Stretch                 11    13                       1.09097
   14 Stretch                 11    14                       1.09079
   15 Stretch                 15    16                       1.22962
   16 Stretch                 15    17                       1.33748
   17 Stretch                 17    18                       1.00667
   18 Stretch                 17    19                       1.47397
   19 Stretch                 19    20                       1.08937
   20 Stretch                 19    21                       1.54083
   21 Stretch                 19    36                       1.54678
   22 Stretch                 21    22                       1.09077
   23 Stretch                 21    23                       1.09139
   24 Stretch                 21    24                       1.51912
   25 Stretch                 24    25                       1.40855
   26 Stretch                 24    34                       1.40899
   27 Stretch                 25    26                       1.08171
   28 Stretch                 25    27                       1.40889
   29 Stretch                 27    28                       1.07858
   30 Stretch                 27    29                       1.41207
   31 Stretch                 29    30                       1.35881
   32 Stretch                 29    32                       1.41041
   33 Stretch                 30    31                       0.95650
   34 Stretch                 32    33                       1.07965
   35 Stretch                 32    34                       1.40783
   36 Stretch                 34    35                       1.08244
   37 Stretch                 36    37                       1.22535
   38 Stretch                 36    38                       1.32887
   39 Stretch                 38    39                       1.01065
   40 Stretch                 38    40                       1.00532
   41 Bend                     1     2     3               109.62455
   42 Bend                     1     2     4               110.00349
   43 Bend                     1     2     5               109.51512
   44 Bend                     2     5     6               120.34286
   45 Bend                     2     5     7               116.80558
   46 Bend                     3     2     4               109.48862
   47 Bend                     3     2     5               108.94086
   48 Bend                     4     2     5               109.24882
   49 Bend                     5     7     8               118.81454
   50 Bend                     5     7     9               122.60566
   51 Bend                     6     5     7               122.85098
   52 Bend                     7     9    10               108.22134
   53 Bend                     7     9    11               109.22523
   54 Bend                     7     9    15               110.90837
   55 Bend                     8     7     9               118.27332
   56 Bend                     9    11    12               109.96552
   57 Bend                     9    11    13               109.56536
   58 Bend                     9    11    14               110.04983
   59 Bend                     9    15    16               120.32440
   60 Bend                     9    15    17               116.69741
   61 Bend                    10     9    11               108.14352
   62 Bend                    10     9    15               108.32926
   63 Bend                    11     9    15               111.90073
   64 Bend                    12    11    13               108.84814
   65 Bend                    12    11    14               109.46486
   66 Bend                    13    11    14               108.92189
   67 Bend                    15    17    18               117.33962
   68 Bend                    15    17    19               125.65100
   69 Bend                    16    15    17               122.97786
   70 Bend                    17    19    20               106.00814
   71 Bend                    17    19    21               110.85520
   72 Bend                    17    19    36               115.50843
   73 Bend                    18    17    19               116.90348
   74 Bend                    19    21    22               108.95767
   75 Bend                    19    21    23               108.74028
   76 Bend                    19    21    24               114.48678
   77 Bend                    19    36    37               120.35275
   78 Bend                    19    36    38               119.92669
   79 Bend                    20    19    21               106.10153
   80 Bend                    20    19    36               104.69596
   81 Bend                    21    19    36               112.78449
   82 Bend                    21    24    25               120.10634
   83 Bend                    21    24    34               119.93355
   84 Bend                    22    21    23               106.94315
   85 Bend                    22    21    24               108.93392
   86 Bend                    23    21    24               108.51649
   87 Bend                    24    25    26               119.79026
   88 Bend                    24    25    27               120.14784
   89 Bend                    24    34    32               120.08637
   90 Bend                    24    34    35               119.84636
   91 Bend                    25    24    34               119.95119
   92 Bend                    25    27    28               120.02256
   93 Bend                    25    27    29               119.84946
   94 Bend                    26    25    27               120.06159
   95 Bend                    27    29    30               120.30225
   96 Bend                    27    29    32               119.97584
   97 Bend                    28    27    29               120.12797
   98 Bend                    29    30    31               112.03094
   99 Bend                    29    32    33               119.32397
  100 Bend                    29    32    34               119.98849
  101 Bend                    30    29    32               119.72190
  102 Bend                    32    34    35               120.06722
  103 Bend                    33    32    34               120.68604
  104 Bend                    36    38    39               120.62184
  105 Bend                    36    38    40               118.16780
  106 Bend                    37    36    38               119.67541
  107 Bend                    39    38    40               121.16656
  108 Torsion                  1     2     5     6        -120.77472
  109 Torsion                  1     2     5     7          59.49486
  110 Torsion                  2     5     7     8           2.81287
  111 Torsion                  2     5     7     9         176.34069
  112 Torsion                  3     2     5     6          -0.88390
  113 Torsion                  3     2     5     7         179.38568
  114 Torsion                  4     2     5     6         118.68287
  115 Torsion                  4     2     5     7         -61.04755
  116 Torsion                  5     7     9    10          59.03782
  117 Torsion                  5     7     9    11         176.55413
  118 Torsion                  5     7     9    15         -59.65930
  119 Torsion                  6     5     7     8        -176.91020
  120 Torsion                  6     5     7     9          -3.38237
  121 Torsion                  7     9    11    12          62.23003
  122 Torsion                  7     9    11    13        -178.17304
  123 Torsion                  7     9    11    14         -58.43342
  124 Torsion                  7     9    15    16         -51.65138
  125 Torsion                  7     9    15    17         128.14497
  126 Torsion                  8     7     9    10        -127.40105
  127 Torsion                  8     7     9    11          -9.88473
  128 Torsion                  8     7     9    15         113.90184
  129 Torsion                  9    15    17    18           1.30614
  130 Torsion                  9    15    17    19        -174.82216
  131 Torsion                 10     9    11    12         179.79535
  132 Torsion                 10     9    11    13         -60.60771
  133 Torsion                 10     9    11    14          59.13191
  134 Torsion                 10     9    15    16        -170.28330
  135 Torsion                 10     9    15    17           9.51304
  136 Torsion                 11     9    15    16          70.59030
  137 Torsion                 11     9    15    17        -109.61335
  138 Torsion                 12    11     9    15         -60.96867
  139 Torsion                 13    11     9    15          58.62827
  140 Torsion                 14    11     9    15         178.36789
  141 Torsion                 15    17    19    20         175.88033
  142 Torsion                 15    17    19    21         -69.40771
  143 Torsion                 15    17    19    36          60.45559
  144 Torsion                 16    15    17    18        -178.90342
  145 Torsion                 16    15    17    19           4.96828
  146 Torsion                 17    19    21    22          76.34290
  147 Torsion                 17    19    21    23        -167.43033
  148 Torsion                 17    19    21    24         -45.89540
  149 Torsion                 17    19    36    37        -172.69188
  150 Torsion                 17    19    36    38           9.75978
  151 Torsion                 18    17    19    20          -0.26306
  152 Torsion                 18    17    19    21         114.44891
  153 Torsion                 18    17    19    36        -115.68780
  154 Torsion                 19    21    24    25         -80.20489
  155 Torsion                 19    21    24    34          98.70853
  156 Torsion                 19    36    38    39          -2.21978
  157 Torsion                 19    36    38    40        -179.84046
  158 Torsion                 20    19    21    22        -169.00361
  159 Torsion                 20    19    21    23         -52.77685
  160 Torsion                 20    19    21    24          68.75808
  161 Torsion                 20    19    36    37          71.13805
  162 Torsion                 20    19    36    38        -106.41029
  163 Torsion                 21    19    36    37         -43.76927
  164 Torsion                 21    19    36    38         138.68239
  165 Torsion                 21    24    25    26          -1.42722
  166 Torsion                 21    24    25    27         178.77650
  167 Torsion                 21    24    34    32        -178.59032
  168 Torsion                 21    24    34    35           1.33420
  169 Torsion                 22    21    19    36         -54.94649
  170 Torsion                 22    21    24    25         157.54387
  171 Torsion                 22    21    24    34         -23.54270
  172 Torsion                 23    21    19    36          61.28028
  173 Torsion                 23    21    24    25          41.45267
  174 Torsion                 23    21    24    34        -139.63391
  175 Torsion                 24    21    19    36        -177.18480
  176 Torsion                 24    25    27    28         179.90729
  177 Torsion                 24    25    27    29          -0.06720
  178 Torsion                 24    34    32    29          -0.30830
  179 Torsion                 24    34    32    33        -179.85851
  180 Torsion                 25    24    34    32           0.32481
  181 Torsion                 25    24    34    35        -179.75068
  182 Torsion                 25    27    29    30        -179.87247
  183 Torsion                 25    27    29    32           0.08371
  184 Torsion                 26    25    24    34         179.65955
  185 Torsion                 26    25    27    28           0.11156
  186 Torsion                 26    25    27    29        -179.86293
  187 Torsion                 27    25    24    34          -0.13673
  188 Torsion                 27    29    30    31          -6.14294
  189 Torsion                 27    29    32    33         179.66014
  190 Torsion                 27    29    32    34           0.10380
  191 Torsion                 28    27    29    30           0.15306
  192 Torsion                 28    27    29    32        -179.89076
  193 Torsion                 29    32    34    35         179.76736
  194 Torsion                 30    29    32    33          -0.38342
  195 Torsion                 30    29    32    34        -179.93977
  196 Torsion                 31    30    29    32         173.90076
  197 Torsion                 33    32    34    35           0.21715
  198 Torsion                 37    36    38    39        -179.78481
  199 Torsion                 37    36    38    40           2.59451


            XYZ format geometry
            -------------------
    40
 geometry
 H                    -2.57858401    -5.47450423    -0.23352079
 C                    -1.56651746    -5.21621907     0.07262799
 H                    -0.85962882    -5.91316817    -0.37563688
 H                    -1.48266847    -5.26102164     1.15656529
 C                    -1.23962849    -3.81854953    -0.39442496
 O                    -0.29068224    -3.62260890    -1.14619773
 N                    -2.02159785    -2.83712080     0.05335912
 H                    -2.75468441    -3.06034359     0.70505052
 C                    -1.77374592    -1.42928103    -0.25482687
 H                    -1.79176139    -1.30904445    -1.33957551
 C                    -2.90186255    -0.57587429     0.33925293
 H                    -2.91318965    -0.67727419     1.42548254
 H                    -2.73961823     0.47253151     0.08481225
 H                    -3.86374958    -0.89333026    -0.06549519
 C                    -0.38927329    -0.98956250     0.25844903
 O                    -0.06417911    -1.20017378     1.42546602
 N                     0.41441947    -0.38523864    -0.62343737
 H                     0.05541632    -0.24072217    -1.55275149
 C                     1.81100904     0.01705723    -0.37791831
 H                     2.18181876     0.40823641    -1.32460147
 C                     1.87707894     1.18665522     0.62299392
 H                     1.70384181     0.80234619     1.62901403
 H                     2.88620397     1.60215382     0.61064107
 C                     0.89019580     2.30808677     0.34700487
 C                     1.17477780     3.27298404    -0.63889997
 H                     2.10864404     3.22634746    -1.18279322
 C                     0.24857414     4.29850898    -0.91350220
 H                     0.46921371     5.03718793    -1.66782414
 C                    -0.96785968     4.35681162    -0.19878019
 O                    -1.86886411     5.34037360    -0.45795162
 H                    -1.52765221     5.98577768    -1.07595001
 C                    -1.25208302     3.39055613     0.78854824
 H                    -2.18290141     3.44835997     1.33249385
 C                    -0.32202937     2.36980396     1.06251945
 H                    -0.53720501     1.62978576     1.82261649
 C                     2.78239722    -1.13249377    -0.02089098
 O                     3.93021051    -0.88657593     0.33057747
 N                     2.38768001    -2.39561675    -0.14174071
 H                     1.44527340    -2.61477459    -0.43372807
 H                     3.03964049    -3.12173268     0.09986267

 ==============================================================================
                                internuclear distances
 ------------------------------------------------------------------------------
       center one      |      center two      | atomic units |  angstroms
 ------------------------------------------------------------------------------
    2 C                |   1 H                |     2.05687  |     1.08845
    3 H                |   2 C                |     2.05830  |     1.08921
    4 H                |   2 C                |     2.05621  |     1.08810
    5 C                |   2 C                |     2.85247  |     1.50946
    6 O                |   5 C                |     2.31756  |     1.22640
    7 N                |   5 C                |     2.51780  |     1.33236
    8 H                |   7 N                |     1.90098  |     1.00596
    9 C                |   7 N                |     2.76341  |     1.46233
   10 H                |   9 C                |     2.06271  |     1.09154
   11 C                |   9 C                |     2.89929  |     1.53424
   12 H                |  11 C                |     2.06171  |     1.09101
   13 H                |  11 C                |     2.06164  |     1.09097
   14 H                |  11 C                |     2.06130  |     1.09079
   15 C                |   9 C                |     2.91139  |     1.54064
   16 O                |  15 C                |     2.32365  |     1.22962
   17 N                |  15 C                |     2.52747  |     1.33748
   18 H                |  17 N                |     1.90234  |     1.00667
   19 C                |  17 N                |     2.78540  |     1.47397
   20 H                |  19 C                |     2.05861  |     1.08937
   21 C                |  19 C                |     2.91174  |     1.54083
   22 H                |  21 C                |     2.06126  |     1.09077
   23 H                |  21 C                |     2.06242  |     1.09139
   24 C                |  21 C                |     2.87072  |     1.51912
   25 C                |  24 C                |     2.66178  |     1.40855
   26 H                |  25 C                |     2.04414  |     1.08171
   27 C                |  25 C                |     2.66241  |     1.40889
   28 H                |  27 C                |     2.03822  |     1.07858
   29 C                |  27 C                |     2.66842  |     1.41207
   30 O                |  29 C                |     2.56778  |     1.35881
   31 H                |  30 O                |     1.80752  |     0.95650
   32 C                |  29 C                |     2.66528  |     1.41041
   33 H                |  32 C                |     2.04024  |     1.07965
   34 C                |  24 C                |     2.66261  |     1.40899
   34 C                |  32 C                |     2.66042  |     1.40783
   35 H                |  34 C                |     2.04551  |     1.08244
   36 C                |  19 C                |     2.92299  |     1.54678
   37 O                |  36 C                |     2.31557  |     1.22535
   38 N                |  36 C                |     2.51119  |     1.32887
   39 H                |  38 N                |     1.90985  |     1.01065
   40 H                |  38 N                |     1.89978  |     1.00532
 ------------------------------------------------------------------------------
                         number of included internuclear distances:         40
 ==============================================================================



 ==============================================================================
                                 internuclear angles
 ------------------------------------------------------------------------------
        center 1       |       center 2       |       center 3       |  degrees
 ------------------------------------------------------------------------------
    1 H                |   2 C                |   3 H                |   109.62
    1 H                |   2 C                |   4 H                |   110.00
    1 H                |   2 C                |   5 C                |   109.52
    3 H                |   2 C                |   4 H                |   109.49
    3 H                |   2 C                |   5 C                |   108.94
    4 H                |   2 C                |   5 C                |   109.25
    2 C                |   5 C                |   6 O                |   120.34
    2 C                |   5 C                |   7 N                |   116.81
    6 O                |   5 C                |   7 N                |   122.85
    5 C                |   7 N                |   8 H                |   118.81
    5 C                |   7 N                |   9 C                |   122.61
    8 H                |   7 N                |   9 C                |   118.27
    7 N                |   9 C                |  10 H                |   108.22
    7 N                |   9 C                |  11 C                |   109.23
    7 N                |   9 C                |  15 C                |   110.91
   10 H                |   9 C                |  11 C                |   108.14
   10 H                |   9 C                |  15 C                |   108.33
   11 C                |   9 C                |  15 C                |   111.90
    9 C                |  11 C                |  12 H                |   109.97
    9 C                |  11 C                |  13 H                |   109.57
    9 C                |  11 C                |  14 H                |   110.05
   12 H                |  11 C                |  13 H                |   108.85
   12 H                |  11 C                |  14 H                |   109.46
   13 H                |  11 C                |  14 H                |   108.92
    9 C                |  15 C                |  16 O                |   120.32
    9 C                |  15 C                |  17 N                |   116.70
   16 O                |  15 C                |  17 N                |   122.98
   15 C                |  17 N                |  18 H                |   117.34
   15 C                |  17 N                |  19 C                |   125.65
   18 H                |  17 N                |  19 C                |   116.90
   17 N                |  19 C                |  20 H                |   106.01
   17 N                |  19 C                |  21 C                |   110.86
   17 N                |  19 C                |  36 C                |   115.51
   20 H                |  19 C                |  21 C                |   106.10
   20 H                |  19 C                |  36 C                |   104.70
   21 C                |  19 C                |  36 C                |   112.78
   19 C                |  21 C                |  22 H                |   108.96
   19 C                |  21 C                |  23 H                |   108.74
   19 C                |  21 C                |  24 C                |   114.49
   22 H                |  21 C                |  23 H                |   106.94
   22 H                |  21 C                |  24 C                |   108.93
   23 H                |  21 C                |  24 C                |   108.52
   21 C                |  24 C                |  25 C                |   120.11
   21 C                |  24 C                |  34 C                |   119.93
   25 C                |  24 C                |  34 C                |   119.95
   24 C                |  25 C                |  26 H                |   119.79
   24 C                |  25 C                |  27 C                |   120.15
   26 H                |  25 C                |  27 C                |   120.06
   25 C                |  27 C                |  28 H                |   120.02
   25 C                |  27 C                |  29 C                |   119.85
   28 H                |  27 C                |  29 C                |   120.13
   27 C                |  29 C                |  30 O                |   120.30
   27 C                |  29 C                |  32 C                |   119.98
   30 O                |  29 C                |  32 C                |   119.72
   29 C                |  30 O                |  31 H                |   112.03
   29 C                |  32 C                |  33 H                |   119.32
   29 C                |  32 C                |  34 C                |   119.99
   33 H                |  32 C                |  34 C                |   120.69
   24 C                |  34 C                |  32 C                |   120.09
   24 C                |  34 C                |  35 H                |   119.85
   32 C                |  34 C                |  35 H                |   120.07
   19 C                |  36 C                |  37 O                |   120.35
   19 C                |  36 C                |  38 N                |   119.93
   37 O                |  36 C                |  38 N                |   119.68
   36 C                |  38 N                |  39 H                |   120.62
   36 C                |  38 N                |  40 H                |   118.17
   39 H                |  38 N                |  40 H                |   121.17
 ------------------------------------------------------------------------------
                            number of included internuclear angles:         67
 ==============================================================================



  library name resolved from: environment
  library file name is: </opt/rit/el9/20230413/app/linux-rhel9-x86_64_v3/gcc-11.2.1/nwchem-7.2.0-oxtctbuhfuzyfaoziquq6bki22grib3g/share/nwchem/libraries/>
  


 Summary of "ao basis" -> "" (cartesian)
 ------------------------------------------------------------------------------
       Tag                 Description            Shells   Functions and Types
 ---------------- ------------------------------  ------  ---------------------
 *                        aug-cc-pvdz                 on all atoms 


                      Basis "ao basis" -> "ao basis" (cartesian)
                      -----
  H (Hydrogen)
  ------------
            Exponent  Coefficients 
       -------------- ---------------------------------------------------------
  1 S  1.30100000E+01  0.019685
  1 S  1.96200000E+00  0.137977
  1 S  4.44600000E-01  0.478148

  2 S  1.22000000E-01  1.000000

  3 S  2.97400000E-02  1.000000

  4 P  7.27000000E-01  1.000000

  5 P  1.41000000E-01  1.000000

  C (Carbon)
  ----------
            Exponent  Coefficients 
       -------------- ---------------------------------------------------------
  1 S  6.66500000E+03  0.000692
  1 S  1.00000000E+03  0.005329
  1 S  2.28000000E+02  0.027077
  1 S  6.47100000E+01  0.101718
  1 S  2.10600000E+01  0.274740
  1 S  7.49500000E+00  0.448564
  1 S  2.79700000E+00  0.285074
  1 S  5.21500000E-01  0.015204

  2 S  6.66500000E+03 -0.000146
  2 S  1.00000000E+03 -0.001154
  2 S  2.28000000E+02 -0.005725
  2 S  6.47100000E+01 -0.023312
  2 S  2.10600000E+01 -0.063955
  2 S  7.49500000E+00 -0.149981
  2 S  2.79700000E+00 -0.127262
  2 S  5.21500000E-01  0.544529

  3 S  1.59600000E-01  1.000000

  4 S  4.69000000E-02  1.000000

  5 P  9.43900000E+00  0.038109
  5 P  2.00200000E+00  0.209480
  5 P  5.45600000E-01  0.508557

  6 P  1.51700000E-01  1.000000

  7 P  4.04100000E-02  1.000000

  8 D  5.50000000E-01  1.000000

  9 D  1.51000000E-01  1.000000

  O (Oxygen)
  ----------
            Exponent  Coefficients 
       -------------- ---------------------------------------------------------
  1 S  1.17200000E+04  0.000710
  1 S  1.75900000E+03  0.005470
  1 S  4.00800000E+02  0.027837
  1 S  1.13700000E+02  0.104800
  1 S  3.70300000E+01  0.283062
  1 S  1.32700000E+01  0.448719
  1 S  5.02500000E+00  0.270952
  1 S  1.01300000E+00  0.015458

  2 S  1.17200000E+04 -0.000160
  2 S  1.75900000E+03 -0.001263
  2 S  4.00800000E+02 -0.006267
  2 S  1.13700000E+02 -0.025716
  2 S  3.70300000E+01 -0.070924
  2 S  1.32700000E+01 -0.165411
  2 S  5.02500000E+00 -0.116955
  2 S  1.01300000E+00  0.557368

  3 S  3.02300000E-01  1.000000

  4 S  7.89600000E-02  1.000000

  5 P  1.77000000E+01  0.043018
  5 P  3.85400000E+00  0.228913
  5 P  1.04600000E+00  0.508728

  6 P  2.75300000E-01  1.000000

  7 P  6.85600000E-02  1.000000

  8 D  1.18500000E+00  1.000000

  9 D  3.32000000E-01  1.000000

  N (Nitrogen)
  ------------
            Exponent  Coefficients 
       -------------- ---------------------------------------------------------
  1 S  9.04600000E+03  0.000700
  1 S  1.35700000E+03  0.005389
  1 S  3.09300000E+02  0.027406
  1 S  8.77300000E+01  0.103207
  1 S  2.85600000E+01  0.278723
  1 S  1.02100000E+01  0.448540
  1 S  3.83800000E+00  0.278238
  1 S  7.46600000E-01  0.015440

  2 S  9.04600000E+03 -0.000153
  2 S  1.35700000E+03 -0.001208
  2 S  3.09300000E+02 -0.005992
  2 S  8.77300000E+01 -0.024544
  2 S  2.85600000E+01 -0.067459
  2 S  1.02100000E+01 -0.158078
  2 S  3.83800000E+00 -0.121831
  2 S  7.46600000E-01  0.549003

  3 S  2.24800000E-01  1.000000

  4 S  6.12400000E-02  1.000000

  5 P  1.35500000E+01  0.039919
  5 P  2.91700000E+00  0.217169
  5 P  7.97300000E-01  0.510319

  6 P  2.18500000E-01  1.000000

  7 P  5.61100000E-02  1.000000

  8 D  8.17000000E-01  1.000000

  9 D  2.30000000E-01  1.000000



 Summary of "ao basis" -> "ao basis" (cartesian)
 ------------------------------------------------------------------------------
       Tag                 Description            Shells   Functions and Types
 ---------------- ------------------------------  ------  ---------------------
 H                        aug-cc-pvdz                5        9   3s2p
 C                        aug-cc-pvdz                9       25   4s3p2d
 O                        aug-cc-pvdz                9       25   4s3p2d
 N                        aug-cc-pvdz                9       25   4s3p2d


                                 NWChem SCF Module
                                 -----------------



  ao basis        = "ao basis"
  functions       =   696
  atoms           =    40
  closed shells   =    78
  open shells     =     0
  charge          =   0.00
  wavefunction    = RHF 
  input vectors   = atomic
  output vectors  = ./ALA_TYR_3.movecs
  use symmetry    = F
  symmetry adapt  = F


 Summary of "ao basis" -> "ao basis" (cartesian)
 ------------------------------------------------------------------------------
       Tag                 Description            Shells   Functions and Types
 ---------------- ------------------------------  ------  ---------------------
 H                        aug-cc-pvdz                5        9   3s2p
 C                        aug-cc-pvdz                9       25   4s3p2d
 O                        aug-cc-pvdz                9       25   4s3p2d
 N                        aug-cc-pvdz                9       25   4s3p2d



 Forming initial guess at       1.0s


 !! The overlap matrix has  14 vectors deemed linearly dependent with
    eigenvalues:
 1.00D-06 1.62D-06 1.77D-06 2.38D-06 3.00D-06 3.19D-06 4.65D-06 5.15D-06
 5.23D-06 6.12D-06 6.73D-06 7.87D-06 8.14D-06 9.87D-06


      Superposition of Atomic Density Guess
      -------------------------------------

 Sum of atomic energies:        -998.80105847

      Non-variational initial energy
      ------------------------------

 Total energy =   -1012.619476
 1-e energy   =   -4789.961688
 2-e energy   =    2050.007309
 HOMO         =      -0.254777
 LUMO         =      -0.024253


 Starting SCF solution at    1060.8s



 ----------------------------------------------
         Quadratically convergent ROHF

 Convergence threshold     :          1.000E-04
 Maximum no. of iterations :           30
 Final Fock-matrix accuracy:          1.000E-10
 ----------------------------------------------


              iter       energy          gnorm     gmax       time
             ----- ------------------- --------- --------- --------
                 1    -1003.7778750416  2.58D+00  1.80D-01   2175.7
                 2    -1004.1448322743  9.28D-01  4.52D-02   4309.0
                 3    -1004.2182668049  6.69D-02  4.51D-03   6831.9
                 4    -1004.2189029224  2.00D-03  1.05D-04  12320.4
                 5    -1004.2189035048  5.46D-06  1.24D-06  20234.5


       Final RHF  results 
       ------------------ 

         Total SCF energy =  -1004.218903504846
      One-electron energy =  -4805.036758019787
      Two-electron energy =   2073.482951612046
 Nuclear repulsion energy =   1727.334902902895

        Time for solution =  19181.8s


             Final eigenvalues
             -----------------

              1      
    1  -20.6035
    2  -20.5434
    3  -20.5347
    4  -20.5064
    5  -15.6156
    6  -15.6085
    7  -15.5688
    8  -11.3722
    9  -11.3662
   10  -11.3453
   11  -11.3177
   12  -11.3116
   13  -11.2995
   14  -11.2562
   15  -11.2541
   16  -11.2538
   17  -11.2504
   18  -11.2486
   19  -11.2455
   20  -11.2450
   21  -11.2332
   22   -1.4170
   23   -1.4074
   24   -1.3913
   25   -1.3683
   26   -1.2629
   27   -1.2528
   28   -1.1948
   29   -1.1504
   30   -1.0817
   31   -1.0570
   32   -1.0217
   33   -1.0079
   34   -0.9967
   35   -0.9149
   36   -0.8875
   37   -0.8517
   38   -0.8320
   39   -0.8105
   40   -0.8085
   41   -0.7647
   42   -0.7425
   43   -0.7391
   44   -0.7238
   45   -0.7001
   46   -0.6884
   47   -0.6773
   48   -0.6724
   49   -0.6459
   50   -0.6359
   51   -0.6244
   52   -0.6183
   53   -0.6128
   54   -0.6029
   55   -0.5971
   56   -0.5939
   57   -0.5928
   58   -0.5859
   59   -0.5799
   60   -0.5757
   61   -0.5625
   62   -0.5540
   63   -0.5504
   64   -0.5420
   65   -0.5278
   66   -0.5154
   67   -0.5070
   68   -0.4943
   69   -0.4892
   70   -0.4711
   71   -0.4439
   72   -0.4413
   73   -0.4270
   74   -0.4094
   75   -0.3941
   76   -0.3849
   77   -0.3435
   78   -0.3084
   79    0.0228
   80    0.0285
   81    0.0373
   82    0.0386
   83    0.0454
   84    0.0469
   85    0.0547
   86    0.0580
   87    0.0623
   88    0.0633

                       ROHF Final Molecular Orbital Analysis
                       -------------------------------------

 Vector   22  Occ=2.000000D+00  E=-1.417041D+00
              MO Center= -1.7D+00,  5.2D+00, -4.9D-01, r^2= 6.0D-01
   Bfn.  Coefficient  Atom+Function         Bfn.  Coefficient  Atom+Function  
  ----- ------------  ---------------      ----- ------------  ---------------
   504      0.460739  30 O  s               503      0.409611  30 O  s         
   480     -0.281528  29 C  s               527      0.194963  31 H  s         
   445     -0.157484  27 C  s         

 Vector   23  Occ=2.000000D+00  E=-1.407400D+00
              MO Center= -6.9D-01, -3.2D+00, -5.4D-01, r^2= 2.1D+00
   Bfn.  Coefficient  Atom+Function         Bfn.  Coefficient  Atom+Function  
  ----- ------------  ---------------      ----- ------------  ---------------
    80      0.325455   6 O  s                79      0.317789   6 O  s         
    54      0.225991   5 C  s                12      0.194082   2 C  s         

 Vector   24  Occ=2.000000D+00  E=-1.391305D+00
              MO Center= -9.8D-02, -1.4D+00,  5.6D-01, r^2= 2.5D+00
   Bfn.  Coefficient  Atom+Function         Bfn.  Coefficient  Atom+Function  
  ----- ------------  ---------------      ----- ------------  ---------------
   250      0.343456  16 O  s               249      0.317441  16 O  s         
   224      0.225383  15 C  s         

 Vector   25  Occ=2.000000D+00  E=-1.368299D+00
              MO Center=  3.3D+00, -1.1D+00,  2.0D-01, r^2= 1.2D+00
   Bfn.  Coefficient  Atom+Function         Bfn.  Coefficient  Atom+Function  
  ----- ------------  ---------------      ----- ------------  ---------------
   631      0.377796  37 O  s               630      0.349249  37 O  s         
   605      0.244076  36 C  s         

 Vector   26  Occ=2.000000D+00  E=-1.262922D+00
              MO Center= -1.7D+00, -2.8D+00, -1.2D-01, r^2= 1.7D+00
   Bfn.  Coefficient  Atom+Function         Bfn.  Coefficient  Atom+Function  
  ----- ------------  ---------------      ----- ------------  ---------------
   105      0.421484   7 N  s               104      0.342501   7 N  s         
    80     -0.218638   6 O  s                79     -0.182663   6 O  s         
   128      0.156947   8 H  s                57     -0.150092   5 C  px        

 Vector   27  Occ=2.000000D+00  E=-1.252759D+00
              MO Center=  4.9D-01, -5.6D-01, -2.5D-01, r^2= 2.0D+00
   Bfn.  Coefficient  Atom+Function         Bfn.  Coefficient  Atom+Function  
  ----- ------------  ---------------      ----- ------------  ---------------
   275      0.379322  17 N  s               274      0.339901  17 N  s         
   250     -0.228289  16 O  s               249     -0.177807  16 O  s         
   229     -0.171951  15 C  pz              309     -0.159490  19 C  s         
   298      0.156603  18 H  s         

 Vector   28  Occ=2.000000D+00  E=-1.194777D+00
              MO Center=  2.5D+00, -2.0D+00, -8.9D-02, r^2= 1.5D+00
   Bfn.  Coefficient  Atom+Function         Bfn.  Coefficient  Atom+Function  
  ----- ------------  ---------------      ----- ------------  ---------------
   656      0.387898  38 N  s               655      0.369758  38 N  s         
   631     -0.205578  37 O  s               309     -0.193543  19 C  s         
   630     -0.173205  37 O  s               612      0.168470  36 C  py        
   679      0.163513  39 H  s               688      0.159433  40 H  s         
   609     -0.158558  36 C  py        

 Vector   29  Occ=2.000000D+00  E=-1.150412D+00
              MO Center=  1.7D-01,  3.1D+00,  1.1D-01, r^2= 2.8D+00
   Bfn.  Coefficient  Atom+Function         Bfn.  Coefficient  Atom+Function  
  ----- ------------  ---------------      ----- ------------  ---------------
   385      0.202529  24 C  s               410      0.180264  25 C  s         
   571      0.176568  34 C  s               444      0.156158  27 C  s         
   537      0.154814  32 C  s         

 Vector   30  Occ=2.000000D+00  E=-1.081732D+00
              MO Center= -1.0D+00, -1.1D+00, -2.4D-02, r^2= 7.8D+00
   Bfn.  Coefficient  Atom+Function         Bfn.  Coefficient  Atom+Function  
  ----- ------------  ---------------      ----- ------------  ---------------
   138      0.214362   9 C  s               172      0.174555  11 C  s         

 Vector   31  Occ=2.000000D+00  E=-1.057023D+00
              MO Center=  3.8D-02,  6.9D-01,  8.4D-02, r^2= 1.1D+01
   Bfn.  Coefficient  Atom+Function         Bfn.  Coefficient  Atom+Function  
  ----- ------------  ---------------      ----- ------------  ---------------
   387      0.264615  24 C  s               342     -0.200914  21 C  s         
   446     -0.158038  27 C  s               539     -0.152347  32 C  s         

 Vector   32  Occ=2.000000D+00  E=-1.021716D+00
              MO Center= -5.6D-02,  3.4D+00,  3.8D-02, r^2= 2.9D+00
   Bfn.  Coefficient  Atom+Function         Bfn.  Coefficient  Atom+Function  
  ----- ------------  ---------------      ----- ------------  ---------------
   446      0.257659  27 C  s               539     -0.234384  32 C  s         
   412      0.222086  25 C  s               444     -0.218920  27 C  s         
   537      0.214639  32 C  s               410     -0.209447  25 C  s         
   571      0.205847  34 C  s               573     -0.184073  34 C  s         
   469     -0.162608  28 H  s               435     -0.159157  26 H  s         

 Vector   33  Occ=2.000000D+00  E=-1.007935D+00
              MO Center= -1.4D+00, -3.4D+00,  2.2D-02, r^2= 9.5D+00
   Bfn.  Coefficient  Atom+Function         Bfn.  Coefficient  Atom+Function  
  ----- ------------  ---------------      ----- ------------  ---------------
    11      0.307387   2 C  s               174      0.163450  11 C  s         
    58     -0.159917   5 C  py        

 Vector   34  Occ=2.000000D+00  E=-9.966682D-01
              MO Center=  7.7D-02,  1.1D+00, -5.6D-02, r^2= 1.0D+01
   Bfn.  Coefficient  Atom+Function         Bfn.  Coefficient  Atom+Function  
  ----- ------------  ---------------      ----- ------------  ---------------
   308      0.198001  19 C  s               385     -0.161996  24 C  s         
   478      0.160919  29 C  s               144     -0.155957   9 C  px        

 Vector   35  Occ=2.000000D+00  E=-9.149474D-01
              MO Center= -6.9D-01,  2.2D-01,  1.6D-01, r^2= 9.1D+00
   Bfn.  Coefficient  Atom+Function         Bfn.  Coefficient  Atom+Function  
  ----- ------------  ---------------      ----- ------------  ---------------
   144      0.292728   9 C  px              139      0.257022   9 C  s         
   172     -0.189750  11 C  s               230      0.190006  15 C  px        
   342      0.182912  21 C  s               315      0.159674  19 C  py        
   309      0.152043  19 C  s         

 Vector   36  Occ=2.000000D+00  E=-8.875275D-01
              MO Center= -9.4D-02,  6.5D-02,  6.2D-02, r^2= 1.1D+01
   Bfn.  Coefficient  Atom+Function         Bfn.  Coefficient  Atom+Function  
  ----- ------------  ---------------      ----- ------------  ---------------
   315      0.244306  19 C  py              144     -0.210017   9 C  px        
   139     -0.159105   9 C  s               342      0.152876  21 C  s         
   172      0.150629  11 C  s               349      0.150335  21 C  py        

 Vector   37  Occ=2.000000D+00  E=-8.516596D-01
              MO Center= -4.7D-02,  3.5D+00, -1.1D-01, r^2= 4.4D+00
   Bfn.  Coefficient  Atom+Function         Bfn.  Coefficient  Atom+Function  
  ----- ------------  ---------------      ----- ------------  ---------------
   539      0.340914  32 C  s               607     -0.276653  36 C  s         
   435     -0.213502  26 H  s               412      0.196226  25 C  s         
   446     -0.191373  27 C  s               596      0.184066  35 H  s         
   469      0.177414  28 H  s               410     -0.175929  25 C  s         
   444      0.175815  27 C  s               481      0.166439  29 C  px        

 Vector   38  Occ=2.000000D+00  E=-8.320099D-01
              MO Center= -7.1D-01, -2.0D+00, -1.3D-01, r^2= 7.4D+00
   Bfn.  Coefficient  Atom+Function         Bfn.  Coefficient  Atom+Function  
  ----- ------------  ---------------      ----- ------------  ---------------
   309      0.211109  19 C  s               108     -0.189258   7 N  py        
   107      0.175230   7 N  px               54      0.172580   5 C  s         
   128     -0.157559   8 H  s               139      0.156042   9 C  s         

 Vector   39  Occ=2.000000D+00  E=-8.105190D-01
              MO Center= -6.1D-01, -2.0D-01, -1.0D-01, r^2= 1.1D+01
   Bfn.  Coefficient  Atom+Function         Bfn.  Coefficient  Atom+Function  
  ----- ------------  ---------------      ----- ------------  ---------------
   539      0.240816  32 C  s               412      0.216658  25 C  s         
   387     -0.210128  24 C  s               128     -0.205528   8 H  s         
   279     -0.184214  17 N  pz              107      0.175756   7 N  px        
   105     -0.156905   7 N  s               480     -0.150823  29 C  s         

 Vector   40  Occ=2.000000D+00  E=-8.084627D-01
              MO Center=  3.5D-01,  1.0D+00, -2.2D-02, r^2= 1.3D+01
   Bfn.  Coefficient  Atom+Function         Bfn.  Coefficient  Atom+Function  
  ----- ------------  ---------------      ----- ------------  ---------------
   539     -0.285182  32 C  s               387      0.260326  24 C  s         
   480      0.236022  29 C  s               412     -0.217140  25 C  s         
   309     -0.198275  19 C  s               659     -0.176680  38 N  py        
   315      0.156172  19 C  py              507      0.151869  30 O  py        

 Vector   41  Occ=2.000000D+00  E=-7.647277D-01
              MO Center=  1.6D+00, -9.3D-01, -1.3D-01, r^2= 6.2D+00
   Bfn.  Coefficient  Atom+Function         Bfn.  Coefficient  Atom+Function  
  ----- ------------  ---------------      ----- ------------  ---------------
   659      0.259281  38 N  py              298      0.201552  18 H  s         
   679     -0.193963  39 H  s               279     -0.186075  17 N  pz        
   609     -0.178333  36 C  py              606      0.176136  36 C  s         
   612     -0.166881  36 C  py              605      0.159960  36 C  s         
   631     -0.154067  37 O  s               657      0.151894  38 N  s         

 Vector   42  Occ=2.000000D+00  E=-7.425279D-01
              MO Center= -6.0D-01,  3.4D+00, -1.7D-01, r^2= 8.0D+00
   Bfn.  Coefficient  Atom+Function         Bfn.  Coefficient  Atom+Function  
  ----- ------------  ---------------      ----- ------------  ---------------
   446      0.273236  27 C  s               507      0.254156  30 O  py        
   527      0.228670  31 H  s               480     -0.189678  29 C  s         
   596     -0.187547  35 H  s               538      0.182347  32 C  s         
   508     -0.172259  30 O  pz              481      0.171132  29 C  px        
   595     -0.163303  35 H  s               482     -0.150226  29 C  py        

 Vector   43  Occ=2.000000D+00  E=-7.391325D-01
              MO Center= -7.2D-01, -6.9D-01, -1.1D-01, r^2= 8.6D+00
   Bfn.  Coefficient  Atom+Function         Bfn.  Coefficient  Atom+Function  
  ----- ------------  ---------------      ----- ------------  ---------------
   225      0.369888  15 C  s               144     -0.201373   9 C  px        
   145     -0.198624   9 C  py              227      0.193794  15 C  px        
    55      0.175373   5 C  s               109     -0.169809   7 N  pz        
   279      0.167084  17 N  pz              275     -0.165799  17 N  s         
   163      0.155731  10 H  s         

 Vector   44  Occ=2.000000D+00  E=-7.238193D-01
              MO Center=  1.4D+00, -1.8D+00, -1.5D-01, r^2= 5.1D+00
   Bfn.  Coefficient  Atom+Function         Bfn.  Coefficient  Atom+Function  
  ----- ------------  ---------------      ----- ------------  ---------------
   658      0.300570  38 N  px              679     -0.251892  39 H  s         
   688      0.194452  40 H  s               680     -0.184138  39 H  s         
   314     -0.167701  19 C  px              689      0.150372  40 H  s         

 Vector   45  Occ=2.000000D+00  E=-7.001221D-01
              MO Center= -1.2D+00, -2.3D+00, -5.0D-02, r^2= 6.8D+00
   Bfn.  Coefficient  Atom+Function         Bfn.  Coefficient  Atom+Function  
  ----- ------------  ---------------      ----- ------------  ---------------
   139      0.214082   9 C  s               107     -0.191196   7 N  px        
   162      0.188459  10 H  s               230      0.180921  15 C  px        
    58     -0.172577   5 C  py              143     -0.172294   9 C  pz        
   275     -0.152240  17 N  s         

 Vector   46  Occ=2.000000D+00  E=-6.884230D-01
              MO Center=  9.3D-02, -2.7D+00, -3.5D-01, r^2= 8.4D+00
   Bfn.  Coefficient  Atom+Function         Bfn.  Coefficient  Atom+Function  
  ----- ------------  ---------------      ----- ------------  ---------------
    80      0.193713   6 O  s               658      0.177800  38 N  px        
    18     -0.162729   2 C  py               84     -0.163221   6 O  pz        
    58      0.158082   5 C  py              688      0.158089  40 H  s         
    83      0.154501   6 O  py        

 Vector   47  Occ=2.000000D+00  E=-6.773465D-01
              MO Center=  2.2D-03,  2.8D+00, -1.1D-01, r^2= 9.2D+00
   Bfn.  Coefficient  Atom+Function         Bfn.  Coefficient  Atom+Function  
  ----- ------------  ---------------      ----- ------------  ---------------
   506      0.209944  30 O  px              539     -0.198842  32 C  s         
   414     -0.162697  25 C  py              448      0.157762  27 C  py        
   413      0.155622  25 C  px              509      0.152873  30 O  px        

 Vector   48  Occ=2.000000D+00  E=-6.724467D-01
              MO Center=  1.4D-02, -9.0D-01, -2.4D-01, r^2= 1.1D+01
   Bfn.  Coefficient  Atom+Function         Bfn.  Coefficient  Atom+Function  
  ----- ------------  ---------------      ----- ------------  ---------------
   139      0.307889   9 C  s               225     -0.215965  15 C  s         
   145      0.193203   9 C  py              276      0.167807  17 N  s         
   108     -0.165419   7 N  py              311     -0.159176  19 C  px        
    80      0.156432   6 O  s               142      0.156211   9 C  py        
   314     -0.152327  19 C  px        

 Vector   49  Occ=2.000000D+00  E=-6.458590D-01
              MO Center=  1.4D-01,  2.5D+00, -1.3D-01, r^2= 9.8D+00
   Bfn.  Coefficient  Atom+Function         Bfn.  Coefficient  Atom+Function  
  ----- ------------  ---------------      ----- ------------  ---------------
   468      0.229522  28 H  s               469      0.212267  28 H  s         
   139     -0.174187   9 C  s               387      0.173537  24 C  s         
   446     -0.169317  27 C  s               561      0.161119  33 H  s         
   225      0.151062  15 C  s         

 Vector   50  Occ=2.000000D+00  E=-6.359324D-01
              MO Center= -3.3D-01, -2.1D+00,  2.2D-01, r^2= 1.2D+01
   Bfn.  Coefficient  Atom+Function         Bfn.  Coefficient  Atom+Function  
  ----- ------------  ---------------      ----- ------------  ---------------
   225      0.321854  15 C  s               139     -0.256521   9 C  s         
   254     -0.201543  16 O  pz               16     -0.170964   2 C  pz        
    59     -0.156754   5 C  pz                1      0.151599   1 H  s         
    44     -0.152043   4 H  s         

 Vector   51  Occ=2.000000D+00  E=-6.244385D-01
              MO Center=  2.3D-01, -1.3D+00, -5.3D-03, r^2= 1.4D+01
   Bfn.  Coefficient  Atom+Function         Bfn.  Coefficient  Atom+Function  
  ----- ------------  ---------------      ----- ------------  ---------------
   539      0.191133  32 C  s               609     -0.167361  36 C  py        
   633      0.165298  37 O  px              332      0.157801  20 H  s         

 Vector   52  Occ=2.000000D+00  E=-6.183062D-01
              MO Center=  6.6D-02, -1.1D+00,  4.3D-01, r^2= 7.4D+00
   Bfn.  Coefficient  Atom+Function         Bfn.  Coefficient  Atom+Function  
  ----- ------------  ---------------      ----- ------------  ---------------
   254      0.306187  16 O  pz              250      0.227536  16 O  s         
   229     -0.207027  15 C  pz        

 Vector   53  Occ=2.000000D+00  E=-6.128193D-01
              MO Center=  2.5D-01,  2.7D+00,  1.2D-01, r^2= 7.2D+00
   Bfn.  Coefficient  Atom+Function         Bfn.  Coefficient  Atom+Function  
  ----- ------------  ---------------      ----- ------------  ---------------
   445      0.212907  27 C  s               480     -0.206222  29 C  s         
   412      0.202819  25 C  s               596     -0.203545  35 H  s         
   434     -0.202108  26 H  s               541     -0.202811  32 C  py        
   435     -0.189965  26 H  s               575      0.181810  34 C  py        
   507     -0.173907  30 O  py              572      0.174359  34 C  s         

 Vector   54  Occ=2.000000D+00  E=-6.029322D-01
              MO Center=  1.6D-01, -7.4D-01,  1.4D-01, r^2= 1.1D+01
   Bfn.  Coefficient  Atom+Function         Bfn.  Coefficient  Atom+Function  
  ----- ------------  ---------------      ----- ------------  ---------------
   229     -0.183151  15 C  pz              278     -0.178591  17 N  py        
   173      0.170132  11 C  s               174      0.165409  11 C  s         
   233      0.163396  15 C  px              254      0.158666  16 O  pz        
   253     -0.154179  16 O  py              633      0.150642  37 O  px        

 Vector   55  Occ=2.000000D+00  E=-5.970687D-01
              MO Center= -8.0D-01, -6.3D-01, -2.2D-01, r^2= 1.7D+01
   Bfn.  Coefficient  Atom+Function         Bfn.  Coefficient  Atom+Function  
  ----- ------------  ---------------      ----- ------------  ---------------
   139      0.237549   9 C  s               225     -0.212424  15 C  s         
    82     -0.208903   6 O  px              145      0.159898   9 C  py        
   174      0.155167  11 C  s               506      0.151684  30 O  px        

 Vector   56  Occ=2.000000D+00  E=-5.938924D-01
              MO Center= -2.6D-01,  2.6D+00, -2.4D-02, r^2= 9.6D+00
   Bfn.  Coefficient  Atom+Function         Bfn.  Coefficient  Atom+Function  
  ----- ------------  ---------------      ----- ------------  ---------------
   446     -0.203083  27 C  s               539      0.203450  32 C  s         
   435      0.197560  26 H  s               413      0.186897  25 C  px        
   562     -0.186783  33 H  s               434      0.175225  26 H  s         
   540      0.175129  32 C  px              449     -0.170924  27 C  pz        
   561     -0.171708  33 H  s               469      0.169563  28 H  s         

 Vector   57  Occ=2.000000D+00  E=-5.927815D-01
              MO Center= -9.0D-01,  2.8D+00, -1.1D-01, r^2= 1.2D+01
   Bfn.  Coefficient  Atom+Function         Bfn.  Coefficient  Atom+Function  
  ----- ------------  ---------------      ----- ------------  ---------------
   508      0.287662  30 O  pz              511      0.217028  30 O  pz        
   225      0.214837  15 C  s               506      0.181583  30 O  px        
   139     -0.173121   9 C  s               507      0.165835  30 O  py        
   144     -0.153940   9 C  px              607      0.151146  36 C  s         

 Vector   58  Occ=2.000000D+00  E=-5.858550D-01
              MO Center= -1.4D+00, -3.1D+00, -6.4D-03, r^2= 1.1D+01
   Bfn.  Coefficient  Atom+Function         Bfn.  Coefficient  Atom+Function  
  ----- ------------  ---------------      ----- ------------  ---------------
    35      0.269003   3 H  s                36      0.251592   3 H  s         
    14      0.224357   2 C  px              176      0.207315  11 C  py        
    16     -0.199934   2 C  pz              206      0.191176  13 H  s         
   205      0.185640  13 H  s               139      0.181643   9 C  s         
    44     -0.163032   4 H  s               144      0.152832   9 C  px        

 Vector   59  Occ=2.000000D+00  E=-5.799167D-01
              MO Center= -4.9D-01,  6.9D-01,  1.3D-01, r^2= 1.3D+01
   Bfn.  Coefficient  Atom+Function         Bfn.  Coefficient  Atom+Function  
  ----- ------------  ---------------      ----- ------------  ---------------
   175      0.223622  11 C  px              214     -0.217499  14 H  s         
   215     -0.193839  14 H  s               506     -0.178195  30 O  px        
   206      0.172999  13 H  s               539      0.169370  32 C  s         
   346      0.161517  21 C  py              376      0.159545  23 H  s         

 Vector   60  Occ=2.000000D+00  E=-5.756593D-01
              MO Center=  3.8D-01, -8.1D-01,  1.5D-01, r^2= 1.5D+01
   Bfn.  Coefficient  Atom+Function         Bfn.  Coefficient  Atom+Function  
  ----- ------------  ---------------      ----- ------------  ---------------
   633      0.220659  37 O  px              144     -0.166559   9 C  px        
   608     -0.164308  36 C  px              253      0.160128  16 O  py        

 Vector   61  Occ=2.000000D+00  E=-5.624590D-01
              MO Center=  9.3D-01,  1.2D+00,  3.6D-03, r^2= 1.5D+01
   Bfn.  Coefficient  Atom+Function         Bfn.  Coefficient  Atom+Function  
  ----- ------------  ---------------      ----- ------------  ---------------
   506      0.230782  30 O  px              596     -0.222253  35 H  s         
   608      0.201519  36 C  px              635     -0.194701  37 O  pz        
   509      0.163327  30 O  px              660     -0.156570  38 N  pz        

 Vector   62  Occ=2.000000D+00  E=-5.540046D-01
              MO Center= -1.6D+00, -1.8D+00,  9.8D-02, r^2= 9.7D+00
   Bfn.  Coefficient  Atom+Function         Bfn.  Coefficient  Atom+Function  
  ----- ------------  ---------------      ----- ------------  ---------------
   206      0.320974  13 H  s               176      0.247510  11 C  py        
    55     -0.233534   5 C  s               205      0.228233  13 H  s         
    12      0.222304   2 C  s                35     -0.206128   3 H  s         
   215     -0.185499  14 H  s               214     -0.177932  14 H  s         
   108      0.175803   7 N  py               15      0.159148   2 C  py        

 Vector   63  Occ=2.000000D+00  E=-5.503759D-01
              MO Center= -1.6D+00, -1.7D+00,  1.9D-01, r^2= 8.1D+00
   Bfn.  Coefficient  Atom+Function         Bfn.  Coefficient  Atom+Function  
  ----- ------------  ---------------      ----- ------------  ---------------
   177      0.280821  11 C  pz              196      0.268172  12 H  s         
   197      0.260654  12 H  s               163      0.183145  10 H  s         
   143     -0.157817   9 C  pz              162      0.157060  10 H  s         

 Vector   64  Occ=2.000000D+00  E=-5.419748D-01
              MO Center=  1.2D-01, -8.8D-01,  1.1D-01, r^2= 1.3D+01
   Bfn.  Coefficient  Atom+Function         Bfn.  Coefficient  Atom+Function  
  ----- ------------  ---------------      ----- ------------  ---------------
   635     -0.161163  37 O  pz              660     -0.161505  38 N  pz        
   610     -0.157165  36 C  pz              141      0.152577   9 C  px        
   175     -0.151322  11 C  px        

 Vector   65  Occ=2.000000D+00  E=-5.278417D-01
              MO Center= -3.4D-01, -1.4D+00,  6.1D-02, r^2= 1.2D+01
   Bfn.  Coefficient  Atom+Function         Bfn.  Coefficient  Atom+Function  
  ----- ------------  ---------------      ----- ------------  ---------------
    84      0.184205   6 O  pz              197      0.166127  12 H  s         

 Vector   66  Occ=2.000000D+00  E=-5.153568D-01
              MO Center= -5.1D-01, -2.8D-01,  8.2D-02, r^2= 1.0D+01
   Bfn.  Coefficient  Atom+Function         Bfn.  Coefficient  Atom+Function  
  ----- ------------  ---------------      ----- ------------  ---------------
   174      0.227561  11 C  s               143     -0.184029   9 C  pz        
   345      0.170892  21 C  px              162      0.163805  10 H  s         
   596      0.164623  35 H  s               375      0.163254  23 H  s         
   376      0.160232  23 H  s               178     -0.156864  11 C  px        
   367     -0.150245  22 H  s         

 Vector   67  Occ=2.000000D+00  E=-5.069622D-01
              MO Center=  1.1D+00,  7.6D-01,  1.6D-01, r^2= 8.8D+00
   Bfn.  Coefficient  Atom+Function         Bfn.  Coefficient  Atom+Function  
  ----- ------------  ---------------      ----- ------------  ---------------
   313      0.216168  19 C  pz              347     -0.206983  21 C  pz        
   332     -0.199370  20 H  s               596      0.179778  35 H  s         
   367     -0.175430  22 H  s               366     -0.169991  22 H  s         
   349     -0.165181  21 C  py              174     -0.159112  11 C  s         
   253     -0.157313  16 O  py        

 Vector   68  Occ=2.000000D+00  E=-4.943129D-01
              MO Center=  9.9D-01,  1.9D+00,  2.3D-01, r^2= 6.6D+00
   Bfn.  Coefficient  Atom+Function         Bfn.  Coefficient  Atom+Function  
  ----- ------------  ---------------      ----- ------------  ---------------
   389     -0.251938  24 C  py              346      0.231420  21 C  py        
   538      0.225798  32 C  s               596     -0.224823  35 H  s         
   539     -0.193856  32 C  s               469     -0.189368  28 H  s         
   414      0.183655  25 C  py              366     -0.173139  22 H  s         
   343      0.166289  21 C  s               392     -0.166345  24 C  py        

 Vector   69  Occ=2.000000D+00  E=-4.891979D-01
              MO Center=  5.6D-01,  2.3D+00,  2.6D-01, r^2= 6.6D+00
   Bfn.  Coefficient  Atom+Function         Bfn.  Coefficient  Atom+Function  
  ----- ------------  ---------------      ----- ------------  ---------------
   562      0.259834  33 H  s               435      0.252468  26 H  s         
   388     -0.233749  24 C  px              367     -0.221394  22 H  s         
   539     -0.221071  32 C  s               574      0.216565  34 C  px        
   345      0.204472  21 C  px              607      0.187149  36 C  s         
   561      0.173387  33 H  s               540     -0.166461  32 C  px        

 Vector   70  Occ=2.000000D+00  E=-4.711143D-01
              MO Center=  7.1D-02,  3.1D+00,  3.6D-02, r^2= 5.5D+00
   Bfn.  Coefficient  Atom+Function         Bfn.  Coefficient  Atom+Function  
  ----- ------------  ---------------      ----- ------------  ---------------
   508      0.195988  30 O  pz              309     -0.171880  19 C  s         
   511      0.153338  30 O  pz        

 Vector   71  Occ=2.000000D+00  E=-4.438603D-01
              MO Center= -3.7D-01, -1.9D+00,  2.9D-01, r^2= 5.2D+00
   Bfn.  Coefficient  Atom+Function         Bfn.  Coefficient  Atom+Function  
  ----- ------------  ---------------      ----- ------------  ---------------
   252      0.372781  16 O  px              255      0.287892  16 O  px        
   109      0.238052   7 N  pz               84     -0.208579   6 O  pz        
   112      0.195935   7 N  pz              107      0.164637   7 N  px        
    87     -0.161032   6 O  pz              110      0.159811   7 N  px        
    82     -0.156616   6 O  px              173     -0.157139  11 C  s         

 Vector   72  Occ=2.000000D+00  E=-4.413009D-01
              MO Center= -6.4D-01, -3.6D+00, -6.9D-01, r^2= 2.9D+00
   Bfn.  Coefficient  Atom+Function         Bfn.  Coefficient  Atom+Function  
  ----- ------------  ---------------      ----- ------------  ---------------
    83      0.517882   6 O  py               86      0.417905   6 O  py        
    13     -0.219624   2 C  s                18      0.195221   2 C  py        
   234     -0.188522  15 C  py              607      0.188252  36 C  s         
    15      0.178207   2 C  py               64     -0.163602   5 C  py        
   233     -0.155815  15 C  px        

 Vector   73  Occ=2.000000D+00  E=-4.269744D-01
              MO Center=  1.5D+00, -8.6D-01,  3.0D-01, r^2= 5.7D+00
   Bfn.  Coefficient  Atom+Function         Bfn.  Coefficient  Atom+Function  
  ----- ------------  ---------------      ----- ------------  ---------------
   634      0.345717  37 O  py              253     -0.300961  16 O  py        
   637      0.273256  37 O  py              333      0.265843  20 H  s         
   367      0.263392  22 H  s               256     -0.244556  16 O  py        
   278      0.214616  17 N  py              281      0.205798  17 N  py        
   539      0.181360  32 C  s               607     -0.167253  36 C  s         

 Vector   74  Occ=2.000000D+00  E=-4.094019D-01
              MO Center= -7.9D-01, -2.1D+00,  7.4D-02, r^2= 4.7D+00
   Bfn.  Coefficient  Atom+Function         Bfn.  Coefficient  Atom+Function  
  ----- ------------  ---------------      ----- ------------  ---------------
   252     -0.294050  16 O  px              109      0.269400   7 N  pz        
   112      0.242440   7 N  pz              255     -0.243315  16 O  px        
   107      0.228037   7 N  px              233      0.219759  15 C  px        
   110      0.200492   7 N  px               84     -0.195219   6 O  pz        
   174      0.179059  11 C  s               230      0.179132  15 C  px        

 Vector   75  Occ=2.000000D+00  E=-3.940835D-01
              MO Center=  2.4D+00, -1.1D+00,  6.9D-02, r^2= 4.3D+00
   Bfn.  Coefficient  Atom+Function         Bfn.  Coefficient  Atom+Function  
  ----- ------------  ---------------      ----- ------------  ---------------
   634      0.333061  37 O  py              637      0.266221  37 O  py        
   660     -0.229906  38 N  pz              278     -0.220106  17 N  py        
   281     -0.209946  17 N  py              663     -0.199268  38 N  pz        
   635      0.186763  37 O  pz              633     -0.153322  37 O  px        
   253      0.151582  16 O  py              318      0.151359  19 C  py        

 Vector   76  Occ=2.000000D+00  E=-3.849165D-01
              MO Center=  2.4D+00, -1.4D+00,  1.1D-01, r^2= 4.0D+00
   Bfn.  Coefficient  Atom+Function         Bfn.  Coefficient  Atom+Function  
  ----- ------------  ---------------      ----- ------------  ---------------
   660     -0.351752  38 N  pz              635      0.323385  37 O  pz        
   663     -0.299722  38 N  pz              638      0.253196  37 O  pz        
   278      0.198987  17 N  py              281      0.183029  17 N  py        
   634     -0.173724  37 O  py        

 Vector   77  Occ=2.000000D+00  E=-3.435066D-01
              MO Center= -6.7D-02,  3.3D+00,  7.1D-02, r^2= 3.3D+00
   Bfn.  Coefficient  Atom+Function         Bfn.  Coefficient  Atom+Function  
  ----- ------------  ---------------      ----- ------------  ---------------
   449      0.197109  27 C  pz              542     -0.194865  32 C  pz        
   576     -0.187526  34 C  pz              415      0.184360  25 C  pz        
   448      0.165567  27 C  py              541     -0.163531  32 C  py        
   545     -0.162187  32 C  pz              452      0.161216  27 C  pz        
   575     -0.159268  34 C  py              412     -0.154844  25 C  s         

 Vector   78  Occ=2.000000D+00  E=-3.083898D-01
              MO Center= -6.9D-02,  3.4D+00,  3.4D-02, r^2= 4.1D+00
   Bfn.  Coefficient  Atom+Function         Bfn.  Coefficient  Atom+Function  
  ----- ------------  ---------------      ----- ------------  ---------------
   390      0.215873  24 C  pz              276      0.208878  17 N  s         
   483     -0.200192  29 C  pz              309      0.197395  19 C  s         
   393      0.184482  24 C  pz              389      0.171028  24 C  py        
   387      0.164632  24 C  s               482     -0.164062  29 C  py        
   486     -0.163363  29 C  pz              315      0.158927  19 C  py        

 Vector   79  Occ=0.000000D+00  E= 2.277740D-02
              MO Center= -4.1D+00, -2.7D+00, -2.4D-01, r^2= 2.4D+01
   Bfn.  Coefficient  Atom+Function         Bfn.  Coefficient  Atom+Function  
  ----- ------------  ---------------      ----- ------------  ---------------
   233      3.301182  15 C  px              216      2.826344  14 H  s         
   106      2.336608   7 N  s                56     -2.024982   5 C  s         
   607     -1.877184  36 C  s               181      1.621196  11 C  px        
     3      1.597404   1 H  s               173     -1.426122  11 C  s         
   310     -1.432737  19 C  s                13     -1.404179   2 C  s         

 Vector   80  Occ=0.000000D+00  E= 2.854232D-02
              MO Center= -4.8D-01,  4.0D+00, -2.1D+00, r^2= 3.5D+01
   Bfn.  Coefficient  Atom+Function         Bfn.  Coefficient  Atom+Function  
  ----- ------------  ---------------      ----- ------------  ---------------
   446     -3.574216  27 C  s                64      3.341871   5 C  py        
   387      3.247030  24 C  s               470     -3.125397  28 H  s         
   233      2.747114  15 C  px              396     -2.749176  24 C  pz        
   412     -2.556554  25 C  s               234      2.479913  15 C  py        
   480      2.346037  29 C  s               395      2.295492  24 C  py        

 Vector   81  Occ=0.000000D+00  E= 3.729087D-02
              MO Center= -2.4D+00, -2.4D+00,  1.2D-01, r^2= 4.3D+01
   Bfn.  Coefficient  Atom+Function         Bfn.  Coefficient  Atom+Function  
  ----- ------------  ---------------      ----- ------------  ---------------
   539      4.647373  32 C  s                64     -3.981831   5 C  py        
   147      2.567723   9 C  px              216      2.555577  14 H  s         
   563      2.547947  33 H  s               148     -2.419613   9 C  py        
   174      2.335234  11 C  s                12      2.279649   2 C  s         
   446     -2.279355  27 C  s                56     -2.159266   5 C  s         

 Vector   82  Occ=0.000000D+00  E= 3.857665D-02
              MO Center= -1.8D+00,  9.9D-01, -1.4D+00, r^2= 3.5D+01
   Bfn.  Coefficient  Atom+Function         Bfn.  Coefficient  Atom+Function  
  ----- ------------  ---------------      ----- ------------  ---------------
   164      3.685648  10 H  s               149      2.603927   9 C  pz        
   276      2.232750  17 N  s               446     -2.102622  27 C  s         
   198     -1.858936  12 H  s               334      1.641724  20 H  s         
   539      1.636366  32 C  s               395      1.480629  24 C  py        
   488      1.465248  29 C  py              529     -1.435533  31 H  s         

 Vector   83  Occ=0.000000D+00  E= 4.535038D-02
              MO Center= -8.4D-01,  3.0D-01, -5.4D-02, r^2= 4.6D+01
   Bfn.  Coefficient  Atom+Function         Bfn.  Coefficient  Atom+Function  
  ----- ------------  ---------------      ----- ------------  ---------------
   539      4.912691  32 C  s               480     -3.603002  29 C  s         
   607     -3.110216  36 C  s               412      2.947269  25 C  s         
   387     -2.882632  24 C  s               174     -2.475222  11 C  s         
   394      2.372887  24 C  px              419     -2.333427  25 C  px        
     3     -2.301002   1 H  s               546      2.217844  32 C  px        

 Vector   84  Occ=0.000000D+00  E= 4.687691D-02
              MO Center= -7.5D-01, -7.1D-01, -3.7D-01, r^2= 5.4D+01
   Bfn.  Coefficient  Atom+Function         Bfn.  Coefficient  Atom+Function  
  ----- ------------  ---------------      ----- ------------  ---------------
    37      2.846256   3 H  s               563      2.601414  33 H  s         
   130     -2.527417   8 H  s               446     -2.537486  27 C  s         
   470     -2.528904  28 H  s               412     -2.328360  25 C  s         
   106     -2.235228   7 N  s                64      2.064267   5 C  py        
   149      1.929144   9 C  pz              436     -1.914376  26 H  s         

 Vector   85  Occ=0.000000D+00  E= 5.466348D-02
              MO Center= -1.1D+00, -7.7D-01,  7.3D-01, r^2= 4.9D+01
   Bfn.  Coefficient  Atom+Function         Bfn.  Coefficient  Atom+Function  
  ----- ------------  ---------------      ----- ------------  ---------------
   480      4.561264  29 C  s               539     -4.550068  32 C  s         
   394     -3.633479  24 C  px              563     -3.609959  33 H  s         
   412     -3.507604  25 C  s               234      3.459976  15 C  py        
   233      3.252099  15 C  px              395      3.254513  24 C  py        
   436     -3.250688  26 H  s                46      3.014597   4 H  s         

 Vector   86  Occ=0.000000D+00  E= 5.800415D-02
              MO Center= -1.3D+00, -1.5D+00, -2.7D-01, r^2= 4.6D+01
   Bfn.  Coefficient  Atom+Function         Bfn.  Coefficient  Atom+Function  
  ----- ------------  ---------------      ----- ------------  ---------------
   216      4.442469  14 H  s                13      3.172087   2 C  s         
   276     -2.938379  17 N  s               233      2.832035  15 C  px        
   615      2.606708  36 C  py              164     -2.420213  10 H  s         
   181      2.266317  11 C  px               37      2.236112   3 H  s         
   563     -2.195878  33 H  s               446      2.154677  27 C  s         

 Vector   87  Occ=0.000000D+00  E= 6.232195D-02
              MO Center=  7.1D-01,  5.4D-01,  1.0D+00, r^2= 3.8D+01
   Bfn.  Coefficient  Atom+Function         Bfn.  Coefficient  Atom+Function  
  ----- ------------  ---------------      ----- ------------  ---------------
   164      5.261212  10 H  s               539     -5.284294  32 C  s         
   276     -4.874769  17 N  s               344      3.874085  21 C  s         
   581      3.878885  34 C  py              377      3.829963  23 H  s         
[...]

 Vector  197  Occ=0.000000D+00  E= 4.423161D-01
              MO Center=  1.1D-02,  2.9D-01, -7.7D-02, r^2= 2.3D+01
   Bfn.  Coefficient  Atom+Function         Bfn.  Coefficient  Atom+Function  
  ----- ------------  ---------------      ----- ------------  ---------------
   233      8.905029  15 C  px              394     -8.752240  24 C  px        
   352      7.828596  21 C  py              539      7.275746  32 C  s         
   387     -6.914013  24 C  s               344     -6.507437  21 C  s         
   317      6.462334  19 C  px              353      6.043704  21 C  pz        
   276      5.549045  17 N  s               376      5.434755  23 H  s         

 Vector  198  Occ=0.000000D+00  E= 4.496877D-01
              MO Center= -1.4D-01, -7.8D-01,  2.6D-01, r^2= 2.3D+01
   Bfn.  Coefficient  Atom+Function         Bfn.  Coefficient  Atom+Function  
  ----- ------------  ---------------      ----- ------------  ---------------
   235     11.262179  15 C  pz              285     -8.560004  17 N  pz        
   657      8.055393  38 N  s               233      7.647878  15 C  px        
   234      7.265138  15 C  py              394     -6.867174  24 C  px        
   352      6.200492  21 C  py              615      6.082744  36 C  py        
   539     -5.993625  32 C  s               106      5.614825   7 N  s         

 Vector  199  Occ=0.000000D+00  E= 4.538738D-01
              MO Center= -6.0D-01, -7.6D-01, -2.1D-03, r^2= 2.5D+01
   Bfn.  Coefficient  Atom+Function         Bfn.  Coefficient  Atom+Function  
  ----- ------------  ---------------      ----- ------------  ---------------
   174      9.763186  11 C  s               233      9.516669  15 C  px        
    13      9.197195   2 C  s               276     -6.601384  17 N  s         
    12      6.469886   2 C  s               412     -5.728238  25 C  s         
    45     -4.677597   4 H  s                64      4.656734   5 C  py        
   147      4.591585   9 C  px              396     -4.349736  24 C  pz        

 Vector  200  Occ=0.000000D+00  E= 4.559786D-01
              MO Center= -5.9D-01, -1.3D+00,  3.1D-01, r^2= 2.3D+01
   Bfn.  Coefficient  Atom+Function         Bfn.  Coefficient  Atom+Function  
  ----- ------------  ---------------      ----- ------------  ---------------
   539     16.086380  32 C  s               174     15.136867  11 C  s         
    56    -13.079301   5 C  s               173     12.131741  11 C  s         
   607    -11.064450  36 C  s               318    -10.459103  19 C  py        
   412      9.744489  25 C  s               284      9.626791  17 N  py        
   197     -9.147425  12 H  s               317      9.148105  19 C  px        

 Vector  201  Occ=0.000000D+00  E= 4.587377D-01
              MO Center=  5.3D-01,  5.9D-01,  5.8D-02, r^2= 2.3D+01
   Bfn.  Coefficient  Atom+Function         Bfn.  Coefficient  Atom+Function  
  ----- ------------  ---------------      ----- ------------  ---------------
   396     -8.817526  24 C  pz              446     -8.586535  27 C  s         
   235      8.365588  15 C  pz              412     -7.898248  25 C  s         
   387      7.172024  24 C  s                13      6.781420   2 C  s         
   581      6.651590  34 C  py              317      6.395680  19 C  px        
   394     -6.314674  24 C  px              234      5.960163  15 C  py        

 Vector  202  Occ=0.000000D+00  E= 4.633540D-01
              MO Center= -3.4D-01, -4.0D-01, -5.3D-02, r^2= 2.3D+01
   Bfn.  Coefficient  Atom+Function         Bfn.  Coefficient  Atom+Function  
  ----- ------------  ---------------      ----- ------------  ---------------
   480     11.237713  29 C  s               173      9.077294  11 C  s         
   148      8.845610   9 C  py              276     -8.823416  17 N  s         
   234     -8.746141  15 C  py              412     -7.317515  25 C  s         
   309      5.817493  19 C  s               233      5.648296  15 C  px        
   114      5.218539   7 N  py              215     -4.902159  14 H  s         

 Vector  203  Occ=0.000000D+00  E= 4.681894D-01
              MO Center=  3.1D-01,  6.5D-01,  8.0D-02, r^2= 2.2D+01
   Bfn.  Coefficient  Atom+Function         Bfn.  Coefficient  Atom+Function  
  ----- ------------  ---------------      ----- ------------  ---------------
    56     16.369605   5 C  s               174    -14.299831  11 C  s         
   148      8.627011   9 C  py              284     -7.996909  17 N  py        
   396     -7.772422  24 C  pz               13      7.260897   2 C  s         
    64      7.290546   5 C  py              114      7.046418   7 N  py        
   234      5.792252  15 C  py              412     -5.188322  25 C  s         

 Vector  204  Occ=0.000000D+00  E= 4.696476D-01
              MO Center= -6.4D-01, -2.3D-01,  8.8D-02, r^2= 2.2D+01
   Bfn.  Coefficient  Atom+Function         Bfn.  Coefficient  Atom+Function  
  ----- ------------  ---------------      ----- ------------  ---------------
   234     18.276057  15 C  py              480     -9.336274  29 C  s         
   446      8.404784  27 C  s               276     -8.167128  17 N  s         
   387     -8.023278  24 C  s               148     -7.319886   9 C  py        
   285     -6.658493  17 N  pz              412      6.278084  25 C  s         
   163      5.216344  10 H  s               235      4.965881  15 C  pz        

 Vector  205  Occ=0.000000D+00  E= 4.770657D-01
              MO Center= -4.5D-01,  1.4D+00, -3.2D-02, r^2= 2.4D+01
   Bfn.  Coefficient  Atom+Function         Bfn.  Coefficient  Atom+Function  
  ----- ------------  ---------------      ----- ------------  ---------------
   387      9.983748  24 C  s               539     -7.933805  32 C  s         
    12      7.394356   2 C  s               580     -7.350075  34 C  px        
   582      5.747851  34 C  pz              147      5.552611   9 C  px        
   597     -5.368660  35 H  s               174      4.550144  11 C  s         
    45     -4.437103   4 H  s               197      4.159452  12 H  s         

 Vector  206  Occ=0.000000D+00  E= 4.781923D-01
              MO Center= -1.6D-01,  7.2D-01,  3.6D-01, r^2= 2.1D+01
   Bfn.  Coefficient  Atom+Function         Bfn.  Coefficient  Atom+Function  
  ----- ------------  ---------------      ----- ------------  ---------------
   174     19.955857  11 C  s               276    -18.132734  17 N  s         
   317    -12.836783  19 C  px               56    -11.736314   5 C  s         
   573     11.637340  34 C  s               607     11.536053  36 C  s         
   412    -10.769787  25 C  s               233      9.005444  15 C  px        
   147      8.566764   9 C  px              173      7.519399  11 C  s         

 Vector  207  Occ=0.000000D+00  E= 4.788887D-01
              MO Center= -8.9D-01, -2.1D-01, -2.0D-02, r^2= 2.8D+01
   Bfn.  Coefficient  Atom+Function         Bfn.  Coefficient  Atom+Function  
  ----- ------------  ---------------      ----- ------------  ---------------
   480    -25.934924  29 C  s               412     23.912799  25 C  s         
   234    -20.129126  15 C  py              387    -17.204672  24 C  s         
   539     15.210816  32 C  s                13    -14.102099   2 C  s         
    12    -13.996073   2 C  s               396     13.595780  24 C  pz        
   174    -11.976748  11 C  s                56     11.500813   5 C  s         

 Vector  208  Occ=0.000000D+00  E= 4.850141D-01
              MO Center= -3.3D-01,  8.5D-02, -5.0D-02, r^2= 2.3D+01
   Bfn.  Coefficient  Atom+Function         Bfn.  Coefficient  Atom+Function  
  ----- ------------  ---------------      ----- ------------  ---------------
   446     13.151828  27 C  s               234    -10.963595  15 C  py        
    56      8.767992   5 C  s               396      7.966993  24 C  pz        
   148      7.098912   9 C  py              317     -7.096105  19 C  px        
   387     -6.984037  24 C  s               207     -6.901823  13 H  s         
   607      6.459370  36 C  s               113     -6.104566   7 N  px        

 Vector  209  Occ=0.000000D+00  E= 4.871316D-01
              MO Center=  3.6D-01, -1.7D-02,  2.8D-01, r^2= 2.0D+01
   Bfn.  Coefficient  Atom+Function         Bfn.  Coefficient  Atom+Function  
  ----- ------------  ---------------      ----- ------------  ---------------
   387     13.418993  24 C  s               607    -13.090383  36 C  s         
   234    -11.400642  15 C  py              412      5.870726  25 C  s         
   446     -5.894753  27 C  s               395     -5.720629  24 C  py        
   344      5.501661  21 C  s               310     -5.418533  19 C  s         
   420      5.090686  25 C  py              106      4.483435   7 N  s         

 Vector  210  Occ=0.000000D+00  E= 4.939593D-01
              MO Center= -5.9D-01,  1.6D+00,  2.8D-02, r^2= 2.3D+01
   Bfn.  Coefficient  Atom+Function         Bfn.  Coefficient  Atom+Function  
  ----- ------------  ---------------      ----- ------------  ---------------
   480     27.411990  29 C  s               412    -20.215824  25 C  s         
   607     12.538894  36 C  s               446     11.206848  27 C  s         
   233    -10.299266  15 C  px              276     -8.730058  17 N  s         
   548      8.633758  32 C  pz              505     -8.128143  30 O  s         
   539     -7.613072  32 C  s               419      7.497776  25 C  px        

 Vector  211  Occ=0.000000D+00  E= 4.949394D-01
              MO Center=  4.0D-02,  4.9D-01,  2.8D-01, r^2= 2.1D+01
   Bfn.  Coefficient  Atom+Function         Bfn.  Coefficient  Atom+Function  
  ----- ------------  ---------------      ----- ------------  ---------------
   276     14.347312  17 N  s               412     12.049796  25 C  s         
   174    -11.517088  11 C  s               283      9.739904  17 N  px        
   607     -9.271009  36 C  s               573     -7.720869  34 C  s         
   387     -7.044747  24 C  s               233     -6.728241  15 C  px        
   148      6.199202   9 C  py              226      6.228662  15 C  s         

 Vector  212  Occ=0.000000D+00  E= 4.963078D-01
              MO Center= -8.5D-01, -7.1D-01, -1.9D-01, r^2= 2.1D+01
   Bfn.  Coefficient  Atom+Function         Bfn.  Coefficient  Atom+Function  
  ----- ------------  ---------------      ----- ------------  ---------------
   174     12.020271  11 C  s                12      8.079551   2 C  s         
   607      7.971189  36 C  s               276     -7.409962  17 N  s         
   396     -7.241280  24 C  pz              114     -7.182538   7 N  py        
   318      6.440565  19 C  py              233      5.651735  15 C  px        
   284     -5.551449  17 N  py              573      5.532846  34 C  s         

 Vector  213  Occ=0.000000D+00  E= 5.051457D-01
              MO Center= -1.2D-01,  4.5D-01,  4.0D-02, r^2= 2.5D+01
   Bfn.  Coefficient  Atom+Function         Bfn.  Coefficient  Atom+Function  
  ----- ------------  ---------------      ----- ------------  ---------------
    56    -14.990645   5 C  s                13     14.520847   2 C  s         
   607    -14.193410  36 C  s               233     11.657814  15 C  px        
   174     11.464917  11 C  s               446    -10.355276  27 C  s         
   234     10.216475  15 C  py              480      8.609550  29 C  s         
   276      8.509460  17 N  s               387      8.236844  24 C  s         


 center of mass
 --------------
 x =   0.05970926 y =   0.03797816 z =   0.00244559

 moments of inertia (a.u.)
 ------------------
        9529.178461720081           0.000000000000           0.000000000000
           0.000000000000        3904.755845020598          -0.000000000002
           0.000000000000          -0.000000000002       12452.827333836001

  Mulliken analysis of the total density
  --------------------------------------

    Atom       Charge   Shell Charges
 -----------   ------   -------------------------------------------------------
    1 H    1     0.82   0.76  0.08  0.00  0.03 -0.06
    2 C    6     6.39   2.01  0.66  0.29  0.15  2.07  1.03  0.01  0.06  0.11
    3 H    1     0.97   0.76  0.23  0.01  0.03 -0.05
    4 H    1     0.84   0.76  0.11  0.00  0.03 -0.06
    5 C    6     5.05   2.01  0.68  0.07 -0.11  1.89  0.31 -0.04  0.24  0.00
    6 O    8     8.77   2.01  0.82  1.00  0.15  2.80  1.86  0.14  0.01 -0.01
    7 N    7     7.62   2.01  0.72  0.83 -0.08  2.45  1.44  0.17  0.05  0.04
    8 H    1     0.96   0.77  0.21 -0.03  0.05 -0.04
    9 C    6     6.62   2.01  0.66  0.22 -0.02  2.00  1.42 -0.00  0.14  0.21
   10 H    1     1.19   0.79  0.35  0.01  0.03  0.01
   11 C    6     5.60   2.01  0.66  0.15  0.16  2.04  0.53 -0.01  0.07 -0.01
   12 H    1     0.92   0.77  0.20  0.01  0.03 -0.09
   13 H    1     0.96   0.77  0.26 -0.01  0.03 -0.09
   14 H    1     0.99   0.77  0.28  0.01  0.03 -0.09
   15 C    6     4.23   2.01  0.68 -0.18 -0.02  1.89  0.10  0.04  0.23 -0.52
   16 O    8     8.95   2.01  0.82  1.07  0.21  2.78  1.88  0.16  0.01  0.01
   17 N    7     7.34   2.01  0.72  0.84 -0.25  2.45  1.45 -0.03  0.05  0.09
   18 H    1     1.13   0.77  0.33 -0.02  0.05 -0.00
   19 C    6     6.16   2.01  0.67 -0.01  0.03  1.98  1.28  0.04  0.14  0.03
   20 H    1     1.26   0.79  0.45 -0.00  0.03  0.00
   21 C    6     5.59   2.01  0.66  0.07 -0.05  2.04  0.75  0.05  0.09 -0.03
   22 H    1     1.12   0.78  0.39 -0.02  0.03 -0.05
   23 H    1     1.07   0.78  0.34 -0.01  0.03 -0.06
   24 C    6     6.25   2.01  0.66  0.22 -0.01  2.00  0.88  0.14  0.12  0.24
   25 C    6     5.06   2.01  0.66  0.09 -0.48  1.99  0.74  0.17  0.09 -0.22
   26 H    1     1.65   0.78  0.81  0.01  0.03  0.02
   27 C    6     5.43   2.01  0.66  0.35 -0.49  2.02  0.74  0.20  0.09 -0.15
   28 H    1     1.58   0.78  0.76 -0.01  0.03  0.01
   29 C    6     5.48   2.01  0.66  0.17 -0.10  1.93  0.41  0.31  0.17 -0.08
   30 O    8     8.70   2.01  0.80  0.97  0.17  2.84  1.83  0.10  0.01 -0.03
   31 H    1     0.88   0.74  0.04 -0.00  0.08  0.02
   32 C    6     5.11   2.01  0.66  0.09 -0.56  2.02  0.79  0.22  0.09 -0.21
   33 H    1     1.60   0.78  0.78 -0.00  0.03  0.01
   34 C    6     5.47   2.01  0.66  0.22 -0.20  1.99  0.81  0.11  0.09 -0.23
   35 H    1     1.72   0.78  0.86  0.03  0.03  0.01
   36 C    6     4.66   2.01  0.68  0.12  0.10  1.88 -0.18 -0.00  0.24 -0.19
   37 O    8     8.82   2.01  0.82  1.04  0.17  2.79  1.84  0.14  0.01 -0.01
   38 N    7     7.12   2.01  0.72  0.82 -0.24  2.46  1.23  0.10  0.04 -0.02
   39 H    1     0.90   0.74  0.27 -0.04  0.06 -0.12
   40 H    1     1.02   0.76  0.24 -0.00  0.05 -0.03

       Multipole analysis of the density wrt the origin
       ------------------------------------------------

     L   x y z        total         open         nuclear
     -   - - -        -----         ----         -------
     0   0 0 0     -0.000000      0.000000    156.000000

     1   1 0 0     -2.662827      0.000000      0.000000
     1   0 1 0     -0.147253      0.000000     -0.000000
     1   0 0 1     -1.102051      0.000000      0.000000

     2   2 0 0   -101.335887      0.000000   1868.395297
     2   1 1 0     12.500158      0.000000     48.276321
     2   1 0 1     -5.093829      0.000000    -15.446861
     2   0 2 0    -77.321926      0.000000   4894.266281
     2   0 1 1    -10.505527      0.000000    -21.263588
     2   0 0 2    -94.448850      0.000000    287.284667


 Task  times  cpu:    20235.6s     wall:    20372.9s


                                NWChem Input Module
                                -------------------


 Summary of allocated global arrays
-----------------------------------
  No active global arrays


MA_summarize_allocated_blocks: starting scan ...
MA_summarize_allocated_blocks: scan completed: 0 heap blocks, 0 stack blocks
MA usage statistics:

	allocation statistics:
					      heap	     stack
					      ----	     -----
	current number of blocks	         0	         0
	maximum number of blocks	        16	        14
	current total bytes		         0	         0
	maximum total bytes		    148472	  31456184
	maximum total K-bytes		       149	     31457
	maximum total M-bytes		         1	        32


                                     CITATION
                                     --------
                Please cite the following reference when publishing
                           results obtained with NWChem:

          E. Apra, E. J. Bylaska, W. A. de Jong, N. Govind, K. Kowalski,
       T. P. Straatsma, M. Valiev, H. J. J. van Dam, Y. Alexeev, J. Anchell,
       V. Anisimov, F. W. Aquino, R. Atta-Fynn, J. Autschbach, N. P. Bauman,
     J. C. Becca, D. E. Bernholdt, K. Bhaskaran-Nair, S. Bogatko, P. Borowski,
         J. Boschen, J. Brabec, A. Bruner, E. Cauet, Y. Chen, G. N. Chuev,
      C. J. Cramer, J. Daily, M. J. O. Deegan, T. H. Dunning Jr., M. Dupuis,
   K. G. Dyall, G. I. Fann, S. A. Fischer, A. Fonari, H. Fruchtl, L. Gagliardi,
      J. Garza, N. Gawande, S. Ghosh, K. Glaesemann, A. W. Gotz, J. Hammond,
       V. Helms, E. D. Hermes, K. Hirao, S. Hirata, M. Jacquelin, L. Jensen,
   B. G. Johnson, H. Jonsson, R. A. Kendall, M. Klemm, R. Kobayashi, V. Konkov,
      S. Krishnamoorthy, M. Krishnan, Z. Lin, R. D. Lins, R. J. Littlefield,
      A. J. Logsdail, K. Lopata, W. Ma, A. V. Marenich, J. Martin del Campo,
   D. Mejia-Rodriguez, J. E. Moore, J. M. Mullin, T. Nakajima, D. R. Nascimento,
    J. A. Nichols, P. J. Nichols, J. Nieplocha, A. Otero-de-la-Roza, B. Palmer,
    A. Panyala, T. Pirojsirikul, B. Peng, R. Peverati, J. Pittner, L. Pollack,
   R. M. Richard, P. Sadayappan, G. C. Schatz, W. A. Shelton, D. W. Silverstein,
   D. M. A. Smith, T. A. Soares, D. Song, M. Swart, H. L. Taylor, G. S. Thomas,
            V. Tipparaju, D. G. Truhlar, K. Tsemekhman, T. Van Voorhis,
      A. Vazquez-Mayagoitia, P. Verma, O. Villa, A. Vishnu, K. D. Vogiatzis,
        D. Wang, J. H. Weare, M. J. Williamson, T. L. Windus, K. Wolinski,
        A. T. Wong, Q. Wu, C. Yang, Q. Yu, M. Zacharias, Z. Zhang, Y. Zhao,
                                and R. J. Harrison
                        "NWChem: Past, present, and future
                         J. Chem. Phys. 152, 184102 (2020)
                               doi:10.1063/5.0004997

                                      AUTHORS
                                      -------
  E. Apra, E. J. Bylaska, N. Govind, K. Kowalski, M. Valiev, D. Mejia-Rodriguez,
       A. Kunitsa, N. P. Bauman, A. Panyala, W. A. de Jong, T. P. Straatsma,
   H. J. J. van Dam, D. Wang, T. L. Windus, J. Hammond, J. Autschbach, A. Woods,
    K. Bhaskaran-Nair, J. Brabec, K. Lopata, S. A. Fischer, S. Krishnamoorthy,
     M. Jacquelin, W. Ma, M. Klemm, O. Villa, Y. Chen, V. Anisimov, F. Aquino,
     S. Hirata, M. T. Hackler, E. Hermes, L. Jensen, J. E. Moore, J. C. Becca,
      V. Konjkov, T. Risthaus, M. Malagoli, A. Marenich, A. Otero-de-la-Roza,
        J. Mullin, P. Nichols, R. Peverati, J. Pittner, Y. Zhao, P.-D. Fan,
        A. Fonari, M. J. Williamson, R. J. Harrison, J. R. Rehr, M. Dupuis,
     D. Silverstein, D. M. A. Smith, J. Nieplocha, V. Tipparaju, M. Krishnan,
     B. E. Van Kuiken, A. Vazquez-Mayagoitia, M. Swart, Q. Wu, T. Van Voorhis,
     A. A. Auer, M. Nooijen, L. D. Crosby, E. Brown, G. Cisneros, G. I. Fann,
   H. Fruchtl, J. Garza, K. Hirao, R. A. Kendall, J. A. Nichols, K. Tsemekhman,
    K. Wolinski, J. Anchell, D. E. Bernholdt, P. Borowski, T. Clark, D. Clerc,
   H. Dachsel, M. J. O. Deegan, K. Dyall, D. Elwood, E. Glendening, M. Gutowski,
   A. C. Hess, J. Jaffe, B. G. Johnson, J. Ju, R. Kobayashi, R. Kutteh, Z. Lin,
   R. Littlefield, X. Long, B. Meng, T. Nakajima, S. Niu, L. Pollack, M. Rosing,
   K. Glaesemann, G. Sandrone, M. Stave, H. Taylor, G. Thomas, J. H. van Lenthe,
                               A. T. Wong, Z. Zhang.

 Total times  cpu:    20235.7s     wall:    20373.6s
