export TMOUT=5400
export TMPDIR=/tmp
export PTMPDIR=/tmp/ptmp
 argument  1 = ALA_VAL_4.nw
                                         
                                         


             Northwest Computational Chemistry Package (NWChem) 7.2.0
             --------------------------------------------------------


                    Environmental Molecular Sciences Laboratory
                       Pacific Northwest National Laboratory
                                Richland, WA 99352

                              Copyright (c) 1994-2022
                       Pacific Northwest National Laboratory
                            Battelle Memorial Institute

             NWChem is an open-source computational chemistry package
                        distributed under the terms of the
                      Educational Community License (ECL) 2.0
             A copy of the license is included with this distribution
                              in the LICENSE.TXT file

                                  ACKNOWLEDGMENT
                                  --------------

            This software and its documentation were developed at the
            EMSL at Pacific Northwest National Laboratory, a multiprogram
            national laboratory, operated for the U.S. Department of Energy
            by Battelle under Contract Number DE-AC05-76RL01830. Support
            for this work was provided by the Department of Energy Office
            of Biological and Environmental Research, Office of Basic
            Energy Sciences, and the Office of Advanced Scientific Computing.


           Job information
           ---------------

    hostname        = nova18-wide-40
    program         = /opt/rit/el9/20230413/app/linux-rhel9-x86_64_v3/gcc-11.2.1/nwchem-7.2.0-oxtctbuhfuzyfaoziquq6bki22grib3g/bin/nwchem
    date            = Tue Jul  1 09:11:43 2025

    compiled        = Wed_May_17_23:46:39_2023
    source          = /tmp/root/spack-stage/spack-stage-nwchem-7.2.0-oxtctbuhfuzyfaoziquq6bki22grib3g/spack-src
    nwchem branch   = 7.2.0
    nwchem revision = d0d141fd
    ga revision     = 5.8.0
    use scalapack   = T
    input           = ALA_VAL_4.nw
    prefix          = ALA_VAL_4.
    data base       = ./ALA_VAL_4.db
    status          = startup
    nproc           =        1
    time left       =     -1s



           Memory information
           ------------------

    heap     =   26214394 doubles =    200.0 Mbytes
    stack    =   26214399 doubles =    200.0 Mbytes
    global   =   52428800 doubles =    400.0 Mbytes (distinct from heap & stack)
    total    =  104857593 doubles =    800.0 Mbytes
    verify   = yes
    hardfail = no 


           Directory information
           ---------------------

  0 permanent = .
  0 scratch   = .




                                NWChem Input Module
                                -------------------



 Scaling coordinates for geometry "geometry" by  1.889725989
 (inverse scale =  0.529177249)

 C1  symmetry detected

          ------
          auto-z
          ------
  no constraints, skipping    0.0000000000000000     
  no constraints, skipping    0.0000000000000000     


                             Geometry "geometry" -> ""
                             -------------------------

 Output coordinates in angstroms (scale by  1.889725989 to convert to a.u.)

  No.       Tag          Charge          X              Y              Z
 ---- ---------------- ---------- -------------- -------------- --------------
    1 H                    1.0000    -2.31627450    -4.36038195     0.25009224
    2 C                    6.0000    -1.29087938    -4.33540208    -0.11589391
    3 H                    1.0000    -1.29205699    -4.32712792    -1.20442097
    4 H                    1.0000    -0.75015164    -5.20562758     0.25028242
    5 C                    6.0000    -0.62218376    -3.07839984     0.38962516
    6 O                    8.0000    -1.24354293    -2.28802711     1.08844325
    7 N                    7.0000     0.64859156    -2.89436526     0.03820464
    8 H                    1.0000     1.08300899    -3.56423220    -0.57261267
    9 C                    6.0000     1.38374018    -1.67066200     0.35245903
   10 H                    1.0000     1.23082146    -1.43884498     1.40848163
   11 C                    6.0000     2.88196845    -1.91559888     0.12973055
   12 H                    1.0000     3.22015571    -2.74300263     0.75442119
   13 H                    1.0000     3.06822369    -2.15268486    -0.91915659
   14 H                    1.0000     3.44163588    -1.01868879     0.39466389
   15 C                    6.0000     0.86515507    -0.48356638    -0.48160300
   16 O                    8.0000     0.76089895    -0.57585966    -1.70461429
   17 N                    7.0000     0.57188989     0.63978433     0.17866644
   18 H                    1.0000     0.70844020     0.65710576     1.17932371
   19 C                    6.0000     0.01059866     1.86014810    -0.42514264
   20 H                    1.0000     0.28752912     1.88777297    -1.47852073
   21 C                    6.0000    -1.53372205     1.88692550    -0.34394837
   22 H                    1.0000    -1.86847048     2.84133606    -0.75133635
   23 C                    6.0000    -2.17864027     0.78838640    -1.19684773
   24 H                    1.0000    -1.96255750    -0.19434891    -0.77563338
   25 H                    1.0000    -3.25920470     0.92871882    -1.22310283
   26 H                    1.0000    -1.78900110     0.83064806    -2.21339496
   27 C                    6.0000    -2.07468103     1.77749847     1.08891140
   28 H                    1.0000    -3.16033620     1.87312568     1.07767393
   29 H                    1.0000    -1.81465134     0.80901551     1.51784184
   30 H                    1.0000    -1.66269221     2.56977795     1.71286768
   31 C                    6.0000     0.60229150     3.11197163     0.23043225
   32 O                    8.0000     1.06900474     3.07849923     1.36267002
   33 N                    7.0000     0.59229755     4.24204598    -0.46279793
   34 H                    1.0000     0.21104106     4.26646667    -1.39358046
   35 H                    1.0000     0.98231729     5.06401178    -0.03072985

      Atomic Mass 
      ----------- 

      H                  1.007825
      C                 12.000000
      O                 15.994910
      N                 14.003070


 Effective nuclear repulsion energy (a.u.)    1199.9140931267

            Nuclear Dipole moment (a.u.) 
            ----------------------------
        X                 Y               Z
 ---------------- ---------------- ----------------
     0.0000000000     0.0000000000    -0.0000000000



                                Z-matrix (autoz)
                                -------- 

 Units are Angstrom for bonds and degrees for angles

      Type          Name      I     J     K     L     M      Value
      ----------- --------  ----- ----- ----- ----- ----- ----------
    1 Stretch                  1     2                       1.08904
    2 Stretch                  2     3                       1.08856
    3 Stretch                  2     4                       1.08801
    4 Stretch                  2     5                       1.51088
    5 Stretch                  5     6                       1.22439
    6 Stretch                  5     7                       1.33125
    7 Stretch                  7     8                       1.00526
    8 Stretch                  7     9                       1.46173
    9 Stretch                  9    10                       1.09193
   10 Stretch                  9    11                       1.53437
   11 Stretch                  9    15                       1.54071
   12 Stretch                 11    12                       1.09051
   13 Stretch                 11    13                       1.09136
   14 Stretch                 11    14                       1.08989
   15 Stretch                 15    16                       1.23091
   16 Stretch                 15    17                       1.33562
   17 Stretch                 17    18                       1.01008
   18 Stretch                 17    19                       1.47273
   19 Stretch                 19    20                       1.08952
   20 Stretch                 19    21                       1.54669
   21 Stretch                 19    31                       1.53197
   22 Stretch                 21    22                       1.09038
   23 Stretch                 21    23                       1.53302
   24 Stretch                 21    27                       1.53548
   25 Stretch                 23    24                       1.09082
   26 Stretch                 23    25                       1.08996
   27 Stretch                 23    26                       1.08948
   28 Stretch                 27    28                       1.08992
   29 Stretch                 27    29                       1.09067
   30 Stretch                 27    30                       1.08939
   31 Stretch                 31    32                       1.22511
   32 Stretch                 31    33                       1.32580
   33 Stretch                 33    34                       1.00614
   34 Stretch                 33    35                       1.00719
   35 Bend                     1     2     3               109.58527
   36 Bend                     1     2     4               109.66340
   37 Bend                     1     2     5               108.86644
   38 Bend                     2     5     6               120.22612
   39 Bend                     2     5     7               116.69044
   40 Bend                     3     2     4               110.06973
   41 Bend                     3     2     5               109.19177
   42 Bend                     4     2     5               109.44289
   43 Bend                     5     7     8               118.73726
   44 Bend                     5     7     9               122.61981
   45 Bend                     6     5     7               123.08329
   46 Bend                     7     9    10               108.37386
   47 Bend                     7     9    11               109.04060
   48 Bend                     7     9    15               111.06073
   49 Bend                     8     7     9               118.10882
   50 Bend                     9    11    12               109.92440
   51 Bend                     9    11    13               109.92762
   52 Bend                     9    11    14               109.55782
   53 Bend                     9    15    16               120.57144
   54 Bend                     9    15    17               117.02126
   55 Bend                    10     9    11               108.12087
   56 Bend                    10     9    15               108.23023
   57 Bend                    11     9    15               111.90531
   58 Bend                    12    11    13               109.43871
   59 Bend                    12    11    14               109.01957
   60 Bend                    13    11    14               108.95097
   61 Bend                    15    17    18               118.32569
   62 Bend                    15    17    19               125.30647
   63 Bend                    16    15    17               122.38784
   64 Bend                    17    19    20               108.69502
   65 Bend                    17    19    21               111.92327
   66 Bend                    17    19    31               110.76040
   67 Bend                    18    17    19               116.32632
   68 Bend                    19    21    22               107.58219
   69 Bend                    19    21    23               112.23646
   70 Bend                    19    21    27               113.54823
   71 Bend                    19    31    32               121.35222
   72 Bend                    19    31    33               118.02364
   73 Bend                    20    19    21               107.70418
   74 Bend                    20    19    31               107.14816
   75 Bend                    21    19    31               110.42785
   76 Bend                    21    23    24               110.32935
   77 Bend                    21    23    25               109.76734
   78 Bend                    21    23    26               109.92919
   79 Bend                    21    27    28               109.57586
   80 Bend                    21    27    29               110.25979
   81 Bend                    21    27    30               110.45149
   82 Bend                    22    21    23               106.87073
   83 Bend                    22    21    27               107.63016
   84 Bend                    23    21    27               108.65643
   85 Bend                    24    23    25               108.76462
   86 Bend                    24    23    26               108.92905
   87 Bend                    25    23    26               109.09198
   88 Bend                    28    27    29               108.62936
   89 Bend                    28    27    30               108.59047
   90 Bend                    29    27    30               109.29195
   91 Bend                    31    33    34               120.48170
   92 Bend                    31    33    35               117.93028
   93 Bend                    32    31    33               120.62380
   94 Bend                    34    33    35               121.58646
   95 Torsion                  1     2     5     6          -0.27045
   96 Torsion                  1     2     5     7         179.59339
   97 Torsion                  2     5     7     8           2.91235
   98 Torsion                  2     5     7     9         174.36537
   99 Torsion                  3     2     5     6         119.33551
  100 Torsion                  3     2     5     7         -60.80065
  101 Torsion                  4     2     5     6        -120.12038
  102 Torsion                  4     2     5     7          59.74346
  103 Torsion                  5     7     9    10          48.50943
  104 Torsion                  5     7     9    11         165.98243
  105 Torsion                  5     7     9    15         -70.25056
  106 Torsion                  6     5     7     8        -177.22806
  107 Torsion                  6     5     7     9          -5.77505
  108 Torsion                  7     9    11    12         -58.28145
  109 Torsion                  7     9    11    13          62.24557
  110 Torsion                  7     9    11    14        -178.05911
  111 Torsion                  7     9    15    16         -51.35674
  112 Torsion                  7     9    15    17         130.21008
  113 Torsion                  8     7     9    10        -139.98659
  114 Torsion                  8     7     9    11         -22.51359
  115 Torsion                  8     7     9    15         101.25341
  116 Torsion                  9    15    17    18           0.37132
  117 Torsion                  9    15    17    19        -177.19198
  118 Torsion                 10     9    11    12          59.35142
  119 Torsion                 10     9    11    13         179.87843
  120 Torsion                 10     9    11    14         -60.42624
  121 Torsion                 10     9    15    16        -170.20314
  122 Torsion                 10     9    15    17          11.36369
  123 Torsion                 11     9    15    16          70.75942
  124 Torsion                 11     9    15    17        -107.67375
  125 Torsion                 12    11     9    15         178.45345
  126 Torsion                 13    11     9    15         -61.01954
  127 Torsion                 14    11     9    15          58.67578
  128 Torsion                 15    17    19    20         -25.50375
  129 Torsion                 15    17    19    21          93.32914
  130 Torsion                 15    17    19    31        -142.96527
  131 Torsion                 16    15    17    18        -178.03113
  132 Torsion                 16    15    17    19           4.40557
  133 Torsion                 17    19    21    22         176.52264
  134 Torsion                 17    19    21    23         -66.19053
  135 Torsion                 17    19    21    27          57.53150
  136 Torsion                 17    19    31    32         -23.70378
  137 Torsion                 17    19    31    33         156.50865
  138 Torsion                 18    17    19    20         156.88938
  139 Torsion                 18    17    19    21         -84.27774
  140 Torsion                 18    17    19    31          39.42785
  141 Torsion                 19    21    23    24          68.03985
  142 Torsion                 19    21    23    25        -172.11371
  143 Torsion                 19    21    23    26         -52.11327
  144 Torsion                 19    21    27    28         176.04923
  145 Torsion                 19    21    27    29         -64.43511
  146 Torsion                 19    21    27    30          56.46285
  147 Torsion                 19    31    33    34          -0.40002
  148 Torsion                 19    31    33    35        -179.95236
  149 Torsion                 20    19    21    22         -64.05980
  150 Torsion                 20    19    21    23          53.22703
  151 Torsion                 20    19    21    27         176.94907
  152 Torsion                 20    19    31    32        -142.10885
  153 Torsion                 20    19    31    33          38.10358
  154 Torsion                 21    19    31    32         100.85641
  155 Torsion                 21    19    31    33         -78.93116
  156 Torsion                 22    21    19    31          52.63038
  157 Torsion                 22    21    23    24        -174.24953
  158 Torsion                 22    21    23    25         -54.40310
  159 Torsion                 22    21    23    26          65.59734
  160 Torsion                 22    21    27    28          57.08558
  161 Torsion                 22    21    27    29         176.60124
  162 Torsion                 22    21    27    30         -62.50080
  163 Torsion                 23    21    19    31         169.91721
  164 Torsion                 23    21    27    28         -58.29976
  165 Torsion                 23    21    27    29          61.21590
  166 Torsion                 23    21    27    30        -177.88614
  167 Torsion                 24    23    21    27         -58.37268
  168 Torsion                 25    23    21    27          61.47375
  169 Torsion                 26    23    21    27        -178.52581
  170 Torsion                 27    21    19    31         -66.36075
  171 Torsion                 32    31    33    34         179.81080
  172 Torsion                 32    31    33    35           0.25845


            XYZ format geometry
            -------------------
    35
 geometry
 H                    -2.31627450    -4.36038195     0.25009224
 C                    -1.29087938    -4.33540208    -0.11589391
 H                    -1.29205699    -4.32712792    -1.20442097
 H                    -0.75015164    -5.20562758     0.25028242
 C                    -0.62218376    -3.07839984     0.38962516
 O                    -1.24354293    -2.28802711     1.08844325
 N                     0.64859156    -2.89436526     0.03820464
 H                     1.08300899    -3.56423220    -0.57261267
 C                     1.38374018    -1.67066200     0.35245903
 H                     1.23082146    -1.43884498     1.40848163
 C                     2.88196845    -1.91559888     0.12973055
 H                     3.22015571    -2.74300263     0.75442119
 H                     3.06822369    -2.15268486    -0.91915659
 H                     3.44163588    -1.01868879     0.39466389
 C                     0.86515507    -0.48356638    -0.48160300
 O                     0.76089895    -0.57585966    -1.70461429
 N                     0.57188989     0.63978433     0.17866644
 H                     0.70844020     0.65710576     1.17932371
 C                     0.01059866     1.86014810    -0.42514264
 H                     0.28752912     1.88777297    -1.47852073
 C                    -1.53372205     1.88692550    -0.34394837
 H                    -1.86847048     2.84133606    -0.75133635
 C                    -2.17864027     0.78838640    -1.19684773
 H                    -1.96255750    -0.19434891    -0.77563338
 H                    -3.25920470     0.92871882    -1.22310283
 H                    -1.78900110     0.83064806    -2.21339496
 C                    -2.07468103     1.77749847     1.08891140
 H                    -3.16033620     1.87312568     1.07767393
 H                    -1.81465134     0.80901551     1.51784184
 H                    -1.66269221     2.56977795     1.71286768
 C                     0.60229150     3.11197163     0.23043225
 O                     1.06900474     3.07849923     1.36267002
 N                     0.59229755     4.24204598    -0.46279793
 H                     0.21104106     4.26646667    -1.39358046
 H                     0.98231729     5.06401178    -0.03072985

 ==============================================================================
                                internuclear distances
 ------------------------------------------------------------------------------
       center one      |      center two      | atomic units |  angstroms
 ------------------------------------------------------------------------------
    2 C                |   1 H                |     2.05798  |     1.08904
    3 H                |   2 C                |     2.05708  |     1.08856
    4 H                |   2 C                |     2.05604  |     1.08801
    5 C                |   2 C                |     2.85515  |     1.51088
    6 O                |   5 C                |     2.31376  |     1.22439
    7 N                |   5 C                |     2.51570  |     1.33125
    8 H                |   7 N                |     1.89966  |     1.00526
    9 C                |   7 N                |     2.76227  |     1.46173
   10 H                |   9 C                |     2.06344  |     1.09193
   11 C                |   9 C                |     2.89954  |     1.53437
   12 H                |  11 C                |     2.06076  |     1.09051
   13 H                |  11 C                |     2.06237  |     1.09136
   14 H                |  11 C                |     2.05960  |     1.08989
   15 C                |   9 C                |     2.91152  |     1.54071
   16 O                |  15 C                |     2.32609  |     1.23091
   17 N                |  15 C                |     2.52395  |     1.33562
   18 H                |  17 N                |     1.90877  |     1.01008
   19 C                |  17 N                |     2.78305  |     1.47273
   20 H                |  19 C                |     2.05890  |     1.08952
   21 C                |  19 C                |     2.92281  |     1.54669
   22 H                |  21 C                |     2.06051  |     1.09038
   23 C                |  21 C                |     2.89698  |     1.53302
   24 H                |  23 C                |     2.06135  |     1.09082
   25 H                |  23 C                |     2.05972  |     1.08996
   26 H                |  23 C                |     2.05882  |     1.08948
   27 C                |  21 C                |     2.90164  |     1.53548
   28 H                |  27 C                |     2.05964  |     1.08992
   29 H                |  27 C                |     2.06106  |     1.09067
   30 H                |  27 C                |     2.05864  |     1.08939
   31 C                |  19 C                |     2.89501  |     1.53197
   32 O                |  31 C                |     2.31513  |     1.22511
   33 N                |  31 C                |     2.50539  |     1.32580
   34 H                |  33 N                |     1.90132  |     1.00614
   35 H                |  33 N                |     1.90331  |     1.00719
 ------------------------------------------------------------------------------
                         number of included internuclear distances:         34
 ==============================================================================



 ==============================================================================
                                 internuclear angles
 ------------------------------------------------------------------------------
        center 1       |       center 2       |       center 3       |  degrees
 ------------------------------------------------------------------------------
    1 H                |   2 C                |   3 H                |   109.59
    1 H                |   2 C                |   4 H                |   109.66
    1 H                |   2 C                |   5 C                |   108.87
    3 H                |   2 C                |   4 H                |   110.07
    3 H                |   2 C                |   5 C                |   109.19
    4 H                |   2 C                |   5 C                |   109.44
    2 C                |   5 C                |   6 O                |   120.23
    2 C                |   5 C                |   7 N                |   116.69
    6 O                |   5 C                |   7 N                |   123.08
    5 C                |   7 N                |   8 H                |   118.74
    5 C                |   7 N                |   9 C                |   122.62
    8 H                |   7 N                |   9 C                |   118.11
    7 N                |   9 C                |  10 H                |   108.37
    7 N                |   9 C                |  11 C                |   109.04
    7 N                |   9 C                |  15 C                |   111.06
   10 H                |   9 C                |  11 C                |   108.12
   10 H                |   9 C                |  15 C                |   108.23
   11 C                |   9 C                |  15 C                |   111.91
    9 C                |  11 C                |  12 H                |   109.92
    9 C                |  11 C                |  13 H                |   109.93
    9 C                |  11 C                |  14 H                |   109.56
   12 H                |  11 C                |  13 H                |   109.44
   12 H                |  11 C                |  14 H                |   109.02
   13 H                |  11 C                |  14 H                |   108.95
    9 C                |  15 C                |  16 O                |   120.57
    9 C                |  15 C                |  17 N                |   117.02
   16 O                |  15 C                |  17 N                |   122.39
   15 C                |  17 N                |  18 H                |   118.33
   15 C                |  17 N                |  19 C                |   125.31
   18 H                |  17 N                |  19 C                |   116.33
   17 N                |  19 C                |  20 H                |   108.70
   17 N                |  19 C                |  21 C                |   111.92
   17 N                |  19 C                |  31 C                |   110.76
   20 H                |  19 C                |  21 C                |   107.70
   20 H                |  19 C                |  31 C                |   107.15
   21 C                |  19 C                |  31 C                |   110.43
   19 C                |  21 C                |  22 H                |   107.58
   19 C                |  21 C                |  23 C                |   112.24
   19 C                |  21 C                |  27 C                |   113.55
   22 H                |  21 C                |  23 C                |   106.87
   22 H                |  21 C                |  27 C                |   107.63
   23 C                |  21 C                |  27 C                |   108.66
   21 C                |  23 C                |  24 H                |   110.33
   21 C                |  23 C                |  25 H                |   109.77
   21 C                |  23 C                |  26 H                |   109.93
   24 H                |  23 C                |  25 H                |   108.76
   24 H                |  23 C                |  26 H                |   108.93
   25 H                |  23 C                |  26 H                |   109.09
   21 C                |  27 C                |  28 H                |   109.58
   21 C                |  27 C                |  29 H                |   110.26
   21 C                |  27 C                |  30 H                |   110.45
   28 H                |  27 C                |  29 H                |   108.63
   28 H                |  27 C                |  30 H                |   108.59
   29 H                |  27 C                |  30 H                |   109.29
   19 C                |  31 C                |  32 O                |   121.35
   19 C                |  31 C                |  33 N                |   118.02
   32 O                |  31 C                |  33 N                |   120.62
   31 C                |  33 N                |  34 H                |   120.48
   31 C                |  33 N                |  35 H                |   117.93
   34 H                |  33 N                |  35 H                |   121.59
 ------------------------------------------------------------------------------
                            number of included internuclear angles:         60
 ==============================================================================



  library name resolved from: environment
  library file name is: </opt/rit/el9/20230413/app/linux-rhel9-x86_64_v3/gcc-11.2.1/nwchem-7.2.0-oxtctbuhfuzyfaoziquq6bki22grib3g/share/nwchem/libraries/>
  


 Summary of "ao basis" -> "" (cartesian)
 ------------------------------------------------------------------------------
       Tag                 Description            Shells   Functions and Types
 ---------------- ------------------------------  ------  ---------------------
 *                        aug-cc-pvdz                 on all atoms 


                      Basis "ao basis" -> "ao basis" (cartesian)
                      -----
  H (Hydrogen)
  ------------
            Exponent  Coefficients 
       -------------- ---------------------------------------------------------
  1 S  1.30100000E+01  0.019685
  1 S  1.96200000E+00  0.137977
  1 S  4.44600000E-01  0.478148

  2 S  1.22000000E-01  1.000000

  3 S  2.97400000E-02  1.000000

  4 P  7.27000000E-01  1.000000

  5 P  1.41000000E-01  1.000000

  C (Carbon)
  ----------
            Exponent  Coefficients 
       -------------- ---------------------------------------------------------
  1 S  6.66500000E+03  0.000692
  1 S  1.00000000E+03  0.005329
  1 S  2.28000000E+02  0.027077
  1 S  6.47100000E+01  0.101718
  1 S  2.10600000E+01  0.274740
  1 S  7.49500000E+00  0.448564
  1 S  2.79700000E+00  0.285074
  1 S  5.21500000E-01  0.015204

  2 S  6.66500000E+03 -0.000146
  2 S  1.00000000E+03 -0.001154
  2 S  2.28000000E+02 -0.005725
  2 S  6.47100000E+01 -0.023312
  2 S  2.10600000E+01 -0.063955
  2 S  7.49500000E+00 -0.149981
  2 S  2.79700000E+00 -0.127262
  2 S  5.21500000E-01  0.544529

  3 S  1.59600000E-01  1.000000

  4 S  4.69000000E-02  1.000000

  5 P  9.43900000E+00  0.038109
  5 P  2.00200000E+00  0.209480
  5 P  5.45600000E-01  0.508557

  6 P  1.51700000E-01  1.000000

  7 P  4.04100000E-02  1.000000

  8 D  5.50000000E-01  1.000000

  9 D  1.51000000E-01  1.000000

  O (Oxygen)
  ----------
            Exponent  Coefficients 
       -------------- ---------------------------------------------------------
  1 S  1.17200000E+04  0.000710
  1 S  1.75900000E+03  0.005470
  1 S  4.00800000E+02  0.027837
  1 S  1.13700000E+02  0.104800
  1 S  3.70300000E+01  0.283062
  1 S  1.32700000E+01  0.448719
  1 S  5.02500000E+00  0.270952
  1 S  1.01300000E+00  0.015458

  2 S  1.17200000E+04 -0.000160
  2 S  1.75900000E+03 -0.001263
  2 S  4.00800000E+02 -0.006267
  2 S  1.13700000E+02 -0.025716
  2 S  3.70300000E+01 -0.070924
  2 S  1.32700000E+01 -0.165411
  2 S  5.02500000E+00 -0.116955
  2 S  1.01300000E+00  0.557368

  3 S  3.02300000E-01  1.000000

  4 S  7.89600000E-02  1.000000

  5 P  1.77000000E+01  0.043018
  5 P  3.85400000E+00  0.228913
  5 P  1.04600000E+00  0.508728

  6 P  2.75300000E-01  1.000000

  7 P  6.85600000E-02  1.000000

  8 D  1.18500000E+00  1.000000

  9 D  3.32000000E-01  1.000000

  N (Nitrogen)
  ------------
            Exponent  Coefficients 
       -------------- ---------------------------------------------------------
  1 S  9.04600000E+03  0.000700
  1 S  1.35700000E+03  0.005389
  1 S  3.09300000E+02  0.027406
  1 S  8.77300000E+01  0.103207
  1 S  2.85600000E+01  0.278723
  1 S  1.02100000E+01  0.448540
  1 S  3.83800000E+00  0.278238
  1 S  7.46600000E-01  0.015440

  2 S  9.04600000E+03 -0.000153
  2 S  1.35700000E+03 -0.001208
  2 S  3.09300000E+02 -0.005992
  2 S  8.77300000E+01 -0.024544
  2 S  2.85600000E+01 -0.067459
  2 S  1.02100000E+01 -0.158078
  2 S  3.83800000E+00 -0.121831
  2 S  7.46600000E-01  0.549003

  3 S  2.24800000E-01  1.000000

  4 S  6.12400000E-02  1.000000

  5 P  1.35500000E+01  0.039919
  5 P  2.91700000E+00  0.217169
  5 P  7.97300000E-01  0.510319

  6 P  2.18500000E-01  1.000000

  7 P  5.61100000E-02  1.000000

  8 D  8.17000000E-01  1.000000

  9 D  2.30000000E-01  1.000000



 Summary of "ao basis" -> "ao basis" (cartesian)
 ------------------------------------------------------------------------------
       Tag                 Description            Shells   Functions and Types
 ---------------- ------------------------------  ------  ---------------------
 H                        aug-cc-pvdz                5        9   3s2p
 C                        aug-cc-pvdz                9       25   4s3p2d
 O                        aug-cc-pvdz                9       25   4s3p2d
 N                        aug-cc-pvdz                9       25   4s3p2d


                                 NWChem SCF Module
                                 -----------------



  ao basis        = "ao basis"
  functions       =   571
  atoms           =    35
  closed shells   =    62
  open shells     =     0
  charge          =   0.00
  wavefunction    = RHF 
  input vectors   = atomic
  output vectors  = ./ALA_VAL_4.movecs
  use symmetry    = F
  symmetry adapt  = F


 Summary of "ao basis" -> "ao basis" (cartesian)
 ------------------------------------------------------------------------------
       Tag                 Description            Shells   Functions and Types
 ---------------- ------------------------------  ------  ---------------------
 H                        aug-cc-pvdz                5        9   3s2p
 C                        aug-cc-pvdz                9       25   4s3p2d
 O                        aug-cc-pvdz                9       25   4s3p2d
 N                        aug-cc-pvdz                9       25   4s3p2d



 Forming initial guess at       0.5s


 !! The overlap matrix has   5 vectors deemed linearly dependent with
    eigenvalues:
 2.39D-06 3.21D-06 8.03D-06 8.52D-06 9.00D-06


      Superposition of Atomic Density Guess
      -------------------------------------

 Sum of atomic energies:        -773.36615600

      Non-variational initial energy
      ------------------------------

 Total energy =    -783.990634
 1-e energy   =   -3433.039815
 2-e energy   =    1449.135088
 HOMO         =      -0.312303
 LUMO         =       0.011519


 Starting SCF solution at     482.8s



 ----------------------------------------------
         Quadratically convergent ROHF

 Convergence threshold     :          1.000E-04
 Maximum no. of iterations :           30
 Final Fock-matrix accuracy:          1.000E-10
 ----------------------------------------------


              iter       energy          gnorm     gmax       time
             ----- ------------------- --------- --------- --------
                 1     -777.4798612530  2.42D+00  1.49D-01    986.6
                 2     -777.7966881613  8.27D-01  3.99D-02   1998.1
                 3     -777.8561461893  6.28D-02  5.10D-03   3463.1
                 4     -777.8567407647  3.64D-03  3.57D-04   5408.0
                 5     -777.8567433684  7.55D-06  5.09D-07   8794.7


       Final RHF  results 
       ------------------ 

         Total SCF energy =   -777.856743368428
      One-electron energy =  -3446.056912077177
      Two-electron energy =   1468.286075582078
 Nuclear repulsion energy =   1199.914093126672

        Time for solution =   8313.8s


             Final eigenvalues
             -----------------

              1      
    1  -20.5311
    2  -20.5240
    3  -20.5203
    4  -15.6061
    5  -15.5994
    6  -15.5958
    7  -11.3638
    8  -11.3541
    9  -11.3536
   10  -11.2979
   11  -11.2937
   12  -11.2456
   13  -11.2417
   14  -11.2411
   15  -11.2110
   16  -11.2085
   17   -1.3952
   18   -1.3880
   19   -1.3757
   20   -1.2472
   21   -1.2378
   22   -1.2327
   23   -1.0899
   24   -1.0583
   25   -0.9939
   26   -0.9779
   27   -0.9234
   28   -0.8922
   29   -0.8242
   30   -0.8131
   31   -0.7943
   32   -0.7695
   33   -0.7547
   34   -0.7168
   35   -0.6808
   36   -0.6733
   37   -0.6674
   38   -0.6498
   39   -0.6346
   40   -0.6201
   41   -0.6073
   42   -0.5965
   43   -0.5894
   44   -0.5823
   45   -0.5737
   46   -0.5668
   47   -0.5581
   48   -0.5429
   49   -0.5376
   50   -0.5300
   51   -0.5266
   52   -0.5182
   53   -0.5107
   54   -0.4860
   55   -0.4753
   56   -0.4650
   57   -0.4302
   58   -0.4238
   59   -0.4217
   60   -0.4203
   61   -0.3965
   62   -0.3849
   63    0.0279
   64    0.0314
   65    0.0415
   66    0.0480
   67    0.0486
   68    0.0538
   69    0.0554
   70    0.0647
   71    0.0654
   72    0.0692

                       ROHF Final Molecular Orbital Analysis
                       -------------------------------------

 Vector   17  Occ=2.000000D+00  E=-1.395155D+00
              MO Center=  8.3D-01,  2.8D+00,  7.0D-01, r^2= 2.5D+00
   Bfn.  Coefficient  Atom+Function         Bfn.  Coefficient  Atom+Function  
  ----- ------------  ---------------      ----- ------------  ---------------
   506      0.359381  32 O  s               505      0.332088  32 O  s         
   480      0.238231  31 C  s         

 Vector   18  Occ=2.000000D+00  E=-1.387996D+00
              MO Center= -4.5D-01, -2.0D+00,  4.6D-01, r^2= 3.9D+00
   Bfn.  Coefficient  Atom+Function         Bfn.  Coefficient  Atom+Function  
  ----- ------------  ---------------      ----- ------------  ---------------
    80      0.310326   6 O  s                79      0.304164   6 O  s         
    54      0.219715   5 C  s                12      0.170516   2 C  s         

 Vector   19  Occ=2.000000D+00  E=-1.375672D+00
              MO Center=  4.3D-01, -7.1D-01, -7.0D-01, r^2= 3.3D+00
   Bfn.  Coefficient  Atom+Function         Bfn.  Coefficient  Atom+Function  
  ----- ------------  ---------------      ----- ------------  ---------------
   250      0.336013  16 O  s               249      0.311437  16 O  s         
   224      0.217426  15 C  s                79     -0.163959   6 O  s         
    80     -0.161031   6 O  s         

 Vector   20  Occ=2.000000D+00  E=-1.247248D+00
              MO Center=  3.8D-01, -2.6D+00,  1.8D-01, r^2= 1.8D+00
   Bfn.  Coefficient  Atom+Function         Bfn.  Coefficient  Atom+Function  
  ----- ------------  ---------------      ----- ------------  ---------------
   105      0.420123   7 N  s               104      0.339773   7 N  s         
    80     -0.217779   6 O  s                79     -0.185901   6 O  s         
    57      0.166760   5 C  px              128      0.156197   8 H  s         

 Vector   21  Occ=2.000000D+00  E=-1.237753D+00
              MO Center=  5.3D-01,  9.1D-01, -1.1D-01, r^2= 3.0D+00
   Bfn.  Coefficient  Atom+Function         Bfn.  Coefficient  Atom+Function  
  ----- ------------  ---------------      ----- ------------  ---------------
   275      0.367256  17 N  s               274      0.316180  17 N  s         
   250     -0.201761  16 O  s               249     -0.164645  16 O  s         

 Vector   22  Occ=2.000000D+00  E=-1.232699D+00
              MO Center=  6.3D-01,  3.5D+00, -1.9D-01, r^2= 2.7D+00
   Bfn.  Coefficient  Atom+Function         Bfn.  Coefficient  Atom+Function  
  ----- ------------  ---------------      ----- ------------  ---------------
   531      0.371761  33 N  s               530      0.352391  33 N  s         
   506     -0.187485  32 O  s               554      0.162759  34 H  s         
   505     -0.160829  32 O  s               485     -0.155883  31 C  pz        
   563      0.150256  35 H  s         

 Vector   23  Occ=2.000000D+00  E=-1.089883D+00
              MO Center= -8.2D-01,  1.2D+00, -2.0D-01, r^2= 4.7D+00
   Bfn.  Coefficient  Atom+Function         Bfn.  Coefficient  Atom+Function  
  ----- ------------  ---------------      ----- ------------  ---------------
   309      0.244438  19 C  s               342      0.244806  21 C  s         
   308      0.169101  19 C  s         

 Vector   24  Occ=2.000000D+00  E=-1.058261D+00
              MO Center=  7.9D-01, -1.8D+00,  1.2D-01, r^2= 6.5D+00
   Bfn.  Coefficient  Atom+Function         Bfn.  Coefficient  Atom+Function  
  ----- ------------  ---------------      ----- ------------  ---------------
   138     -0.223166   9 C  s                12      0.210624   2 C  s         
   172     -0.208590  11 C  s               309     -0.199921  19 C  s         
   144     -0.162727   9 C  px               56     -0.157078   5 C  s         

 Vector   25  Occ=2.000000D+00  E=-9.939269D-01
              MO Center= -5.1D-01, -3.4D+00, -1.8D-02, r^2= 5.8D+00
   Bfn.  Coefficient  Atom+Function         Bfn.  Coefficient  Atom+Function  
  ----- ------------  ---------------      ----- ------------  ---------------
    11      0.319254   2 C  s                55      0.153338   5 C  s         

 Vector   26  Occ=2.000000D+00  E=-9.778657D-01
              MO Center= -1.1D-01,  1.2D+00, -1.6D-01, r^2= 6.7D+00
   Bfn.  Coefficient  Atom+Function         Bfn.  Coefficient  Atom+Function  
  ----- ------------  ---------------      ----- ------------  ---------------
   315      0.252302  19 C  py              308      0.239891  19 C  s         
   348      0.235859  21 C  px              139     -0.219315   9 C  s         
   225      0.199268  15 C  s               314      0.195552  19 C  px        
   144      0.182833   9 C  px              231     -0.153317  15 C  py        
   481     -0.153709  31 C  s         

 Vector   27  Occ=2.000000D+00  E=-9.234404D-01
              MO Center= -2.1D+00,  1.3D+00, -2.9D-02, r^2= 2.9D+00
   Bfn.  Coefficient  Atom+Function         Bfn.  Coefficient  Atom+Function  
  ----- ------------  ---------------      ----- ------------  ---------------
   350      0.348370  21 C  pz              428      0.279510  27 C  s         
   376     -0.269171  23 C  s               349      0.152713  21 C  py        

 Vector   28  Occ=2.000000D+00  E=-8.921768D-01
              MO Center=  1.5D+00, -1.2D+00,  5.7D-02, r^2= 6.5D+00
   Bfn.  Coefficient  Atom+Function         Bfn.  Coefficient  Atom+Function  
  ----- ------------  ---------------      ----- ------------  ---------------
   139      0.313678   9 C  s               172     -0.233476  11 C  s         
   144     -0.228360   9 C  px              225     -0.208907  15 C  s         
   145      0.204047   9 C  py              231      0.204586  15 C  py        
   138      0.191238   9 C  s               146     -0.190283   9 C  pz        
   276      0.151175  17 N  s         

 Vector   29  Occ=2.000000D+00  E=-8.241560D-01
              MO Center=  4.9D-01,  1.4D+00, -1.1D-01, r^2= 1.1D+01
   Bfn.  Coefficient  Atom+Function         Bfn.  Coefficient  Atom+Function  
  ----- ------------  ---------------      ----- ------------  ---------------
   534      0.251299  33 N  py              480     -0.197281  31 C  s         
   309     -0.180323  19 C  s               107      0.171330   7 N  px        
   563      0.163930  35 H  s         

 Vector   30  Occ=2.000000D+00  E=-8.131378D-01
              MO Center= -2.8D-01,  2.1D-01, -1.3D-01, r^2= 9.9D+00
   Bfn.  Coefficient  Atom+Function         Bfn.  Coefficient  Atom+Function  
  ----- ------------  ---------------      ----- ------------  ---------------
   377      0.219595  23 C  s               107      0.202501   7 N  px        
   343     -0.175071  21 C  s               429      0.159204  27 C  s         

 Vector   31  Occ=2.000000D+00  E=-7.943232D-01
              MO Center=  3.0D-01, -1.0D+00, -1.6D-03, r^2= 6.9D+00
   Bfn.  Coefficient  Atom+Function         Bfn.  Coefficient  Atom+Function  
  ----- ------------  ---------------      ----- ------------  ---------------
   128      0.245621   8 H  s               107      0.198859   7 N  px        
   105      0.184185   7 N  s                55     -0.181167   5 C  s         
   279     -0.162356  17 N  pz              343      0.162243  21 C  s         
   278     -0.156052  17 N  py              109     -0.153123   7 N  pz        

 Vector   32  Occ=2.000000D+00  E=-7.695272D-01
              MO Center= -3.5D-01,  1.6D+00, -1.1D-01, r^2= 4.8D+00
   Bfn.  Coefficient  Atom+Function         Bfn.  Coefficient  Atom+Function  
  ----- ------------  ---------------      ----- ------------  ---------------
   225      0.257570  15 C  s               279     -0.252004  17 N  pz        
   298     -0.233831  18 H  s               275     -0.207197  17 N  s         
   377      0.204974  23 C  s               309      0.186416  19 C  s         
   481     -0.178209  31 C  s               342     -0.172321  21 C  s         
   429      0.166659  27 C  s               333      0.152464  20 H  s         

 Vector   33  Occ=2.000000D+00  E=-7.546543D-01
              MO Center=  5.2D-01,  2.6D+00, -2.7D-01, r^2= 6.9D+00
   Bfn.  Coefficient  Atom+Function         Bfn.  Coefficient  Atom+Function  
  ----- ------------  ---------------      ----- ------------  ---------------
   535      0.301117  33 N  pz              554     -0.281460  34 H  s         
   225      0.216605  15 C  s               563      0.204072  35 H  s         
   533      0.153103  33 N  px        

 Vector   34  Occ=2.000000D+00  E=-7.167919D-01
              MO Center=  7.6D-01, -8.6D-02, -1.7D-01, r^2= 9.7D+00
   Bfn.  Coefficient  Atom+Function         Bfn.  Coefficient  Atom+Function  
  ----- ------------  ---------------      ----- ------------  ---------------
   225      0.354992  15 C  s               145     -0.312394   9 C  py        
   139     -0.289850   9 C  s               228      0.205396  15 C  py        
    55      0.202305   5 C  s               163      0.197905  10 H  s         
   563     -0.186832  35 H  s               143      0.176994   9 C  pz        
   534     -0.171446  33 N  py              142     -0.162891   9 C  py        

 Vector   35  Occ=2.000000D+00  E=-6.808154D-01
              MO Center=  3.5D-01, -2.2D+00,  2.5D-02, r^2= 6.3D+00
   Bfn.  Coefficient  Atom+Function         Bfn.  Coefficient  Atom+Function  
  ----- ------------  ---------------      ----- ------------  ---------------
    56      0.224862   5 C  s               139      0.212019   9 C  s         
   108     -0.199194   7 N  py              145      0.195605   9 C  py        
   231      0.176054  15 C  py              162      0.163938  10 H  s         
   143      0.155034   9 C  pz               58     -0.150912   5 C  py        

 Vector   36  Occ=2.000000D+00  E=-6.732830D-01
              MO Center= -4.2D-02, -5.6D-01,  4.1D-01, r^2= 1.1D+01
   Bfn.  Coefficient  Atom+Function         Bfn.  Coefficient  Atom+Function  
  ----- ------------  ---------------      ----- ------------  ---------------
    80      0.200675   6 O  s                83      0.199915   6 O  py        
    57      0.192624   5 C  px              534      0.172937  33 N  py        
   484     -0.165235  31 C  py               12     -0.158841   2 C  s         
    84      0.158933   6 O  pz        

 Vector   37  Occ=2.000000D+00  E=-6.674392D-01
              MO Center=  1.3D-01,  7.4D-01,  3.4D-01, r^2= 9.4D+00
   Bfn.  Coefficient  Atom+Function         Bfn.  Coefficient  Atom+Function  
  ----- ------------  ---------------      ----- ------------  ---------------
   343      0.243661  21 C  s               225      0.239242  15 C  s         
   309     -0.193066  19 C  s               510     -0.193223  32 O  pz        
   506     -0.182249  32 O  s               145     -0.174476   9 C  py        
   484     -0.173675  31 C  py               83     -0.155634   6 O  py        

 Vector   38  Occ=2.000000D+00  E=-6.498356D-01
              MO Center= -3.5D-01,  1.2D+00, -1.3D-01, r^2= 6.7D+00
   Bfn.  Coefficient  Atom+Function         Bfn.  Coefficient  Atom+Function  
  ----- ------------  ---------------      ----- ------------  ---------------
   343      0.317481  21 C  s               314      0.246106  19 C  px        
   139     -0.218259   9 C  s               231     -0.191014  15 C  py        
   401     -0.181284  24 H  s               332      0.173346  20 H  s         
   313     -0.168414  19 C  pz              277      0.157266  17 N  px        
   145     -0.152257   9 C  py              309     -0.152551  19 C  s         

 Vector   39  Occ=2.000000D+00  E=-6.346409D-01
              MO Center= -8.0D-02,  4.9D-01, -2.4D-01, r^2= 7.6D+00
   Bfn.  Coefficient  Atom+Function         Bfn.  Coefficient  Atom+Function  
  ----- ------------  ---------------      ----- ------------  ---------------
   309      0.407701  19 C  s               315      0.274042  19 C  py        
   343     -0.256934  21 C  s               278     -0.221781  17 N  py        
   481     -0.206528  31 C  s               254     -0.174366  16 O  pz        
   229      0.163678  15 C  pz              276     -0.160185  17 N  s         
   312      0.157723  19 C  py               13     -0.156583   2 C  s         

 Vector   40  Occ=2.000000D+00  E=-6.201179D-01
              MO Center= -3.3D-01, -1.6D+00, -3.2D-02, r^2= 1.1D+01
   Bfn.  Coefficient  Atom+Function         Bfn.  Coefficient  Atom+Function  
  ----- ------------  ---------------      ----- ------------  ---------------
   139     -0.206932   9 C  s                16      0.194229   2 C  pz        
   254      0.183359  16 O  pz              510      0.180476  32 O  pz        
    44      0.177708   4 H  s                35     -0.168107   3 H  s         
    59      0.168026   5 C  pz        

 Vector   41  Occ=2.000000D+00  E=-6.072628D-01
              MO Center=  1.6D-02, -3.1D-01, -4.2D-02, r^2= 1.3D+01
   Bfn.  Coefficient  Atom+Function         Bfn.  Coefficient  Atom+Function  
  ----- ------------  ---------------      ----- ------------  ---------------
   139      0.248388   9 C  s               510      0.221870  32 O  pz        
   254      0.192247  16 O  pz              229     -0.156532  15 C  pz        
    16     -0.152582   2 C  pz        

 Vector   42  Occ=2.000000D+00  E=-5.964671D-01
              MO Center=  4.9D-01,  8.1D-01,  2.4D-02, r^2= 9.7D+00
   Bfn.  Coefficient  Atom+Function         Bfn.  Coefficient  Atom+Function  
  ----- ------------  ---------------      ----- ------------  ---------------
   225      0.194334  15 C  s               196      0.175024  12 H  s         
   343     -0.162527  21 C  s               533      0.163093  33 N  px        
   254      0.157883  16 O  pz              197      0.156910  12 H  s         
   508      0.150128  32 O  px        

 Vector   43  Occ=2.000000D+00  E=-5.894352D-01
              MO Center= -1.4D-01,  1.0D+00, -4.4D-02, r^2= 8.5D+00
   Bfn.  Coefficient  Atom+Function         Bfn.  Coefficient  Atom+Function  
  ----- ------------  ---------------      ----- ------------  ---------------
   510      0.231973  32 O  pz               56     -0.180707   5 C  s         
   485     -0.164212  31 C  pz              254     -0.158221  16 O  pz        
    13      0.152092   2 C  s         

 Vector   44  Occ=2.000000D+00  E=-5.822875D-01
              MO Center=  3.0D-01, -2.1D+00,  2.1D-01, r^2= 8.0D+00
   Bfn.  Coefficient  Atom+Function         Bfn.  Coefficient  Atom+Function  
  ----- ------------  ---------------      ----- ------------  ---------------
   139      0.268697   9 C  s                58      0.233344   5 C  py        
   145      0.210398   9 C  py               82      0.209069   6 O  px        
   225     -0.192498  15 C  s               176      0.189714  11 C  py        
   214      0.189142  14 H  s               215      0.189099  14 H  s         
   163     -0.179258  10 H  s                14     -0.165213   2 C  px        

 Vector   45  Occ=2.000000D+00  E=-5.737414D-01
              MO Center=  1.5D-01, -2.2D+00, -3.4D-02, r^2= 9.2D+00
   Bfn.  Coefficient  Atom+Function         Bfn.  Coefficient  Atom+Function  
  ----- ------------  ---------------      ----- ------------  ---------------
    16      0.208228   2 C  pz              214      0.208484  14 H  s         
     1      0.199979   1 H  s                 2      0.198203   1 H  s         
    35     -0.191499   3 H  s               175      0.176856  11 C  px        
   215      0.168226  14 H  s                14     -0.157997   2 C  px        

 Vector   46  Occ=2.000000D+00  E=-5.667914D-01
              MO Center= -4.3D-01, -2.0D+00,  1.5D-02, r^2= 8.4D+00
   Bfn.  Coefficient  Atom+Function         Bfn.  Coefficient  Atom+Function  
  ----- ------------  ---------------      ----- ------------  ---------------
     2      0.224067   1 H  s                14     -0.198256   2 C  px        
     1      0.184128   1 H  s                44     -0.184300   4 H  s         
    82     -0.154168   6 O  px        

 Vector   47  Occ=2.000000D+00  E=-5.580705D-01
              MO Center= -2.7D-01,  2.5D+00,  2.4D-01, r^2= 6.1D+00
   Bfn.  Coefficient  Atom+Function         Bfn.  Coefficient  Atom+Function  
  ----- ------------  ---------------      ----- ------------  ---------------
   533      0.235798  33 N  px              508      0.229179  32 O  px        
   333     -0.206236  20 H  s               536      0.172770  33 N  px        
   483      0.171846  31 C  px              431      0.167565  27 C  px        
   419      0.165285  26 H  s               470      0.163647  30 H  s         
   511      0.163604  32 O  px              471      0.162440  30 H  s         

 Vector   48  Occ=2.000000D+00  E=-5.429481D-01
              MO Center=  9.5D-01, -1.9D+00,  1.1D-01, r^2= 9.0D+00
   Bfn.  Coefficient  Atom+Function         Bfn.  Coefficient  Atom+Function  
  ----- ------------  ---------------      ----- ------------  ---------------
   215      0.302999  14 H  s                12      0.266543   2 C  s         
   176      0.261730  11 C  py               55     -0.257159   5 C  s         
   214      0.224230  14 H  s                14      0.206471   2 C  px        
   196     -0.206925  12 H  s                 1     -0.198653   1 H  s         
   197     -0.186052  12 H  s                73     -0.164988   5 C  dxy       

 Vector   49  Occ=2.000000D+00  E=-5.376007D-01
              MO Center=  1.1D+00, -1.8D+00,  2.2D-02, r^2= 7.4D+00
   Bfn.  Coefficient  Atom+Function         Bfn.  Coefficient  Atom+Function  
  ----- ------------  ---------------      ----- ------------  ---------------
   177      0.273442  11 C  pz              205     -0.250189  13 H  s         
   206     -0.223365  13 H  s               309     -0.202776  19 C  s         
   163     -0.196100  10 H  s               197      0.173186  12 H  s         
   108      0.164423   7 N  py              162     -0.155781  10 H  s         
   196      0.151060  12 H  s         

 Vector   50  Occ=2.000000D+00  E=-5.300210D-01
              MO Center= -1.3D+00,  1.2D+00, -2.6D-01, r^2= 5.2D+00
   Bfn.  Coefficient  Atom+Function         Bfn.  Coefficient  Atom+Function  
  ----- ------------  ---------------      ----- ------------  ---------------
   380      0.220225  23 C  py              419      0.217527  26 H  s         
   400     -0.216444  24 H  s               432     -0.204214  27 C  py        
   418      0.183968  26 H  s               333     -0.175789  20 H  s         
   461      0.173136  29 H  s               381     -0.161213  23 C  pz        
   313      0.152819  19 C  pz              332     -0.150057  20 H  s         

 Vector   51  Occ=2.000000D+00  E=-5.266203D-01
              MO Center= -1.5D+00,  1.6D-01, -6.1D-02, r^2= 8.3D+00
   Bfn.  Coefficient  Atom+Function         Bfn.  Coefficient  Atom+Function  
  ----- ------------  ---------------      ----- ------------  ---------------
   410      0.258273  25 H  s               409      0.235542  25 H  s         
   379     -0.232439  23 C  px              453     -0.229471  28 H  s         
   431      0.209820  27 C  px              452     -0.202942  28 H  s         
   400     -0.169782  24 H  s               401     -0.168709  24 H  s         
   333      0.166757  20 H  s               362      0.159141  21 C  dxz       

 Vector   52  Occ=2.000000D+00  E=-5.182238D-01
              MO Center= -3.3D-01, -1.2D+00, -8.3D-02, r^2= 9.0D+00
   Bfn.  Coefficient  Atom+Function         Bfn.  Coefficient  Atom+Function  
  ----- ------------  ---------------      ----- ------------  ---------------
   175     -0.195572  11 C  px              141      0.193343   9 C  px        
   379     -0.183515  23 C  px              409      0.170656  25 H  s         
   410      0.169174  25 H  s               144      0.163691   9 C  px        

 Vector   53  Occ=2.000000D+00  E=-5.106926D-01
              MO Center=  5.7D-01, -1.6D+00,  1.5D-01, r^2= 7.2D+00
   Bfn.  Coefficient  Atom+Function         Bfn.  Coefficient  Atom+Function  
  ----- ------------  ---------------      ----- ------------  ---------------
   178      0.223814  11 C  px              162      0.217929  10 H  s         
   163      0.205713  10 H  s               174      0.198672  11 C  s         
   143      0.190418   9 C  pz               56     -0.180953   5 C  s         
    84     -0.179062   6 O  pz              205      0.176637  13 H  s         
   141     -0.169924   9 C  px              175      0.154722  11 C  px        

 Vector   54  Occ=2.000000D+00  E=-4.860154D-01
              MO Center= -8.3D-01,  1.2D+00, -1.0D-01, r^2= 6.4D+00
   Bfn.  Coefficient  Atom+Function         Bfn.  Coefficient  Atom+Function  
  ----- ------------  ---------------      ----- ------------  ---------------
   453      0.270272  28 H  s               314     -0.234856  19 C  px        
   311     -0.233513  19 C  px              345      0.234028  21 C  px        
   401     -0.234370  24 H  s               377      0.226363  23 C  s         
   452      0.200144  28 H  s               431     -0.198717  27 C  px        
   252      0.197449  16 O  px              471     -0.189188  30 H  s         

 Vector   55  Occ=2.000000D+00  E=-4.753221D-01
              MO Center= -1.5D+00,  1.5D+00, -9.5D-02, r^2= 4.1D+00
   Bfn.  Coefficient  Atom+Function         Bfn.  Coefficient  Atom+Function  
  ----- ------------  ---------------      ----- ------------  ---------------
   346      0.289266  21 C  py              366      0.275586  22 H  s         
   367      0.265991  22 H  s               471     -0.249405  30 H  s         
   380     -0.247267  23 C  py              462      0.225758  29 H  s         
   401      0.221518  24 H  s               461      0.207656  29 H  s         
   432     -0.206007  27 C  py              400      0.201972  24 H  s         

 Vector   56  Occ=2.000000D+00  E=-4.649510D-01
              MO Center= -1.4D+00,  1.5D+00, -1.9D-01, r^2= 4.2D+00
   Bfn.  Coefficient  Atom+Function         Bfn.  Coefficient  Atom+Function  
  ----- ------------  ---------------      ----- ------------  ---------------
   419      0.325348  26 H  s               347      0.314230  21 C  pz        
   433     -0.309346  27 C  pz              333      0.241599  20 H  s         
   381     -0.240292  23 C  pz              418      0.226735  26 H  s         
   436     -0.226653  27 C  pz              377     -0.168701  23 C  s         
   470     -0.157838  30 H  s               509      0.150028  32 O  py        

 Vector   57  Occ=2.000000D+00  E=-4.301605D-01
              MO Center=  4.2D-01, -2.8D-01, -3.5D-01, r^2= 7.2D+00
   Bfn.  Coefficient  Atom+Function         Bfn.  Coefficient  Atom+Function  
  ----- ------------  ---------------      ----- ------------  ---------------
   253      0.396105  16 O  py              256      0.311113  16 O  py        
   509     -0.238415  32 O  py              309      0.205243  19 C  s         
   512     -0.189754  32 O  py               84      0.176934   6 O  pz        
   109     -0.176931   7 N  pz        

 Vector   58  Occ=2.000000D+00  E=-4.238065D-01
              MO Center=  3.6D-01,  1.7D+00,  2.9D-01, r^2= 6.9D+00
   Bfn.  Coefficient  Atom+Function         Bfn.  Coefficient  Atom+Function  
  ----- ------------  ---------------      ----- ------------  ---------------
   509     -0.393202  32 O  py              309      0.389297  19 C  s         
   481     -0.360286  31 C  s               512     -0.319434  32 O  py        
   487      0.304819  31 C  py              139     -0.242753   9 C  s         
   501     -0.187221  31 C  dyy             377     -0.185114  23 C  s         
   253     -0.171095  16 O  py              315      0.165854  19 C  py        

 Vector   59  Occ=2.000000D+00  E=-4.217032D-01
              MO Center= -3.6D-01, -3.7D-01,  5.9D-01, r^2= 1.2D+01
   Bfn.  Coefficient  Atom+Function         Bfn.  Coefficient  Atom+Function  
  ----- ------------  ---------------      ----- ------------  ---------------
    82      0.339822   6 O  px               13     -0.300347   2 C  s         
    85      0.275828   6 O  px               83      0.258634   6 O  py        
   533      0.228094  33 N  px               56      0.224843   5 C  s         
    86      0.202367   6 O  py              276     -0.200624  17 N  s         
   508     -0.197895  32 O  px              536      0.197187  33 N  px        

 Vector   60  Occ=2.000000D+00  E=-4.203186D-01
              MO Center=  7.8D-02,  1.2D+00,  4.3D-01, r^2= 1.2D+01
   Bfn.  Coefficient  Atom+Function         Bfn.  Coefficient  Atom+Function  
  ----- ------------  ---------------      ----- ------------  ---------------
   533      0.300943  33 N  px              508     -0.273322  32 O  px        
   536      0.264151  33 N  px               13      0.254450   2 C  s         
    82     -0.236981   6 O  px               83     -0.226836   6 O  py        
   511     -0.221212  32 O  px               85     -0.192618   6 O  px        
    86     -0.176182   6 O  py              225     -0.164264  15 C  s         

 Vector   61  Occ=2.000000D+00  E=-3.965334D-01
              MO Center=  3.8D-01, -1.4D+00, -8.6D-02, r^2= 5.0D+00
   Bfn.  Coefficient  Atom+Function         Bfn.  Coefficient  Atom+Function  
  ----- ------------  ---------------      ----- ------------  ---------------
   253      0.276599  16 O  py              109      0.273574   7 N  pz        
   112      0.247666   7 N  pz              256      0.233407  16 O  py        
    84     -0.205800   6 O  pz              277     -0.183942  17 N  px        
   231     -0.168179  15 C  py               87     -0.161685   6 O  pz        
   108     -0.160491   7 N  py              111     -0.155913   7 N  py        

 Vector   62  Occ=2.000000D+00  E=-3.849365D-01
              MO Center=  3.7D-01,  8.5D-02, -3.6D-01, r^2= 4.7D+00
   Bfn.  Coefficient  Atom+Function         Bfn.  Coefficient  Atom+Function  
  ----- ------------  ---------------      ----- ------------  ---------------
   277     -0.349412  17 N  px              280     -0.333978  17 N  px        
   252      0.326610  16 O  px              255      0.264368  16 O  px        
   278     -0.157386  17 N  py        

 Vector   63  Occ=0.000000D+00  E= 2.789504D-02
              MO Center=  9.5D-02,  4.5D+00, -1.7D+00, r^2= 2.4D+01
   Bfn.  Coefficient  Atom+Function         Bfn.  Coefficient  Atom+Function  
  ----- ------------  ---------------      ----- ------------  ---------------
   532     -3.491462  33 N  s               482      3.199018  31 C  s         
   490      2.462600  31 C  py               56      2.091415   5 C  s         
   226      1.953624  15 C  s               318      1.917395  19 C  py        
   556     -1.922643  34 H  s               310      1.632459  19 C  s         
   174      1.621898  11 C  s               565     -1.622774  35 H  s         

 Vector   64  Occ=0.000000D+00  E= 3.142690D-02
              MO Center=  1.7D+00, -4.1D+00, -3.2D-02, r^2= 2.9D+01
   Bfn.  Coefficient  Atom+Function         Bfn.  Coefficient  Atom+Function  
  ----- ------------  ---------------      ----- ------------  ---------------
   234     -2.616808  15 C  py               56      2.565939   5 C  s         
   233      2.546878  15 C  px              198     -2.479919  12 H  s         
   106     -2.452420   7 N  s               318     -1.907785  19 C  py        
    46     -1.875817   4 H  s               148     -1.598518   9 C  py        
   173      1.569993  11 C  s                12      1.516109   2 C  s         

 Vector   65  Occ=0.000000D+00  E= 4.151448D-02
              MO Center= -3.6D-01, -1.6D+00, -4.7D-01, r^2= 4.3D+01
   Bfn.  Coefficient  Atom+Function         Bfn.  Coefficient  Atom+Function  
  ----- ------------  ---------------      ----- ------------  ---------------
   147      4.714584   9 C  px               64      4.175772   5 C  py        
   174     -3.047612  11 C  s                63      2.871043   5 C  px        
   317      2.666733  19 C  px              402     -2.600184  24 H  s         
   411      2.408563  25 H  s                13      2.122587   2 C  s         
   344      2.126825  21 C  s               276      2.052815  17 N  s         

 Vector   66  Occ=0.000000D+00  E= 4.800746D-02
              MO Center= -8.0D-01,  6.9D-03,  4.6D-01, r^2= 3.9D+01
   Bfn.  Coefficient  Atom+Function         Bfn.  Coefficient  Atom+Function  
  ----- ------------  ---------------      ----- ------------  ---------------
   482      3.993156  31 C  s               317     -2.706183  19 C  px        
   164     -2.678202  10 H  s               454     -2.220445  28 H  s         
   207      2.208116  13 H  s                13     -1.967600   2 C  s         
   174      1.939531  11 C  s               334      1.935321  20 H  s         
    56      1.844039   5 C  s               276     -1.763580  17 N  s         

 Vector   67  Occ=0.000000D+00  E= 4.858825D-02
              MO Center= -5.6D-02,  7.0D-01, -8.8D-01, r^2= 4.8D+01
   Bfn.  Coefficient  Atom+Function         Bfn.  Coefficient  Atom+Function  
  ----- ------------  ---------------      ----- ------------  ---------------
   147      2.360081   9 C  px              565      2.295508  35 H  s         
   411     -2.161379  25 H  s               490     -2.147388  31 C  py        
   430      2.061475  27 C  s               532      1.872079  33 N  s         
    46      1.854702   4 H  s               173      1.712954  11 C  s         
    12     -1.681635   2 C  s               420     -1.599887  26 H  s         

 Vector   68  Occ=0.000000D+00  E= 5.376729D-02
              MO Center=  4.7D-01, -7.1D-01, -4.8D-01, r^2= 4.4D+01
   Bfn.  Coefficient  Atom+Function         Bfn.  Coefficient  Atom+Function  
  ----- ------------  ---------------      ----- ------------  ---------------
   106      2.921998   7 N  s               368      2.872247  22 H  s         
   216     -2.442838  14 H  s               198      2.373064  12 H  s         
    13      2.276934   2 C  s                56     -2.192564   5 C  s         
   334     -2.175214  20 H  s                46      2.131272   4 H  s         
    37     -1.851275   3 H  s                 3     -1.824161   1 H  s         

 Vector   69  Occ=0.000000D+00  E= 5.536901D-02
              MO Center= -3.5D-01, -9.6D-02, -1.6D-01, r^2= 4.4D+01
   Bfn.  Coefficient  Atom+Function         Bfn.  Coefficient  Atom+Function  
  ----- ------------  ---------------      ----- ------------  ---------------
   164      2.688359  10 H  s               130     -2.440475   8 H  s         
   368     -2.231765  22 H  s                 3      1.996852   1 H  s         
   454     -1.832138  28 H  s               106     -1.731486   7 N  s         
   149     -1.685590   9 C  pz              207     -1.688458  13 H  s         
   556      1.692294  34 H  s               234     -1.623288  15 C  py        

 Vector   70  Occ=0.000000D+00  E= 6.466777D-02
              MO Center= -7.0D-01, -4.7D-02, -7.0D-01, r^2= 4.4D+01
   Bfn.  Coefficient  Atom+Function         Bfn.  Coefficient  Atom+Function  
  ----- ------------  ---------------      ----- ------------  ---------------
   334      3.275893  20 H  s               454      2.921076  28 H  s         
    56      2.615067   5 C  s               411     -2.471447  25 H  s         
    37     -2.396378   3 H  s               198     -2.356310  12 H  s         
   353     -2.049026  21 C  pz               46      1.995784   4 H  s         
   319      1.907970  19 C  pz               13     -1.858295   2 C  s         

 Vector   71  Occ=0.000000D+00  E= 6.541507D-02
              MO Center= -4.9D-01, -7.0D-01,  9.4D-01, r^2= 3.8D+01
   Bfn.  Coefficient  Atom+Function         Bfn.  Coefficient  Atom+Function  
  ----- ------------  ---------------      ----- ------------  ---------------
   164      5.055190  10 H  s                63     -2.995818   5 C  px        
   472      2.809125  30 H  s                13     -2.776278   2 C  s         
     3     -2.552103   1 H  s               420      2.374499  26 H  s         
   411     -2.312219  25 H  s               149     -2.220343   9 C  pz        
   148     -2.162593   9 C  py              402     -2.056122  24 H  s         

 Vector   72  Occ=0.000000D+00  E= 6.922387D-02
              MO Center= -8.0D-02, -3.3D-01,  2.4D-02, r^2= 4.5D+01
   Bfn.  Coefficient  Atom+Function         Bfn.  Coefficient  Atom+Function  
  ----- ------------  ---------------      ----- ------------  ---------------
   368      6.226029  22 H  s               216      4.306291  14 H  s         
    13     -3.865793   2 C  s               352     -3.284854  21 C  py        
   482      3.126674  31 C  s               353      2.718994  21 C  pz        
   310      2.577812  19 C  s               198     -2.348549  12 H  s         
   233      2.193861  15 C  px                3     -2.141665   1 H  s         

 Vector   73  Occ=0.000000D+00  E= 7.194955D-02
              MO Center= -1.1D+00, -6.9D-01, -9.2D-01, r^2= 4.6D+01
   Bfn.  Coefficient  Atom+Function         Bfn.  Coefficient  Atom+Function  
  ----- ------------  ---------------      ----- ------------  ---------------
    56      7.715975   5 C  s               411     -4.450600  25 H  s         
   482      4.450854  31 C  s                46     -3.736299   4 H  s         
   334     -3.749566  20 H  s               276     -3.694987  17 N  s         
   234      3.428693  15 C  py               13     -3.234287   2 C  s         
   368      3.036095  22 H  s                 3      2.690607   1 H  s         

 Vector   74  Occ=0.000000D+00  E= 7.799136D-02
              MO Center= -3.8D-01, -4.1D-01, -9.0D-01, r^2= 4.5D+01
   Bfn.  Coefficient  Atom+Function         Bfn.  Coefficient  Atom+Function  
  ----- ------------  ---------------      ----- ------------  ---------------
   207      5.042895  13 H  s               454     -4.574627  28 H  s         
   368      4.023700  22 H  s               234      3.742376  15 C  py        
   318      3.725381  19 C  py              378     -3.220796  23 C  s         
   164      2.988773  10 H  s               352     -2.875919  21 C  py        
   556     -2.765927  34 H  s                37     -2.695767   3 H  s         

 Vector   75  Occ=0.000000D+00  E= 7.997568D-02
              MO Center=  1.2D-01, -6.8D-03,  1.2D-01, r^2= 4.1D+01
   Bfn.  Coefficient  Atom+Function         Bfn.  Coefficient  Atom+Function  
  ----- ------------  ---------------      ----- ------------  ---------------
   164      4.755389  10 H  s               198     -4.382664  12 H  s         
   420     -4.002123  26 H  s               472     -3.872674  30 H  s         
   234      3.712531  15 C  py               56     -3.307087   5 C  s         
   106      3.270778   7 N  s               482      3.274742  31 C  s         
   411      2.806897  25 H  s               352     -2.581173  21 C  py        

 Vector   76  Occ=0.000000D+00  E= 9.038959D-02
              MO Center=  2.3D-01,  1.2D+00, -3.5D-01, r^2= 3.9D+01
   Bfn.  Coefficient  Atom+Function         Bfn.  Coefficient  Atom+Function  
  ----- ------------  ---------------      ----- ------------  ---------------
   334      9.769523  20 H  s               368      5.280374  22 H  s         
   556     -5.174345  34 H  s               420     -4.894457  26 H  s         
   463     -4.668291  29 H  s               319      4.377702  19 C  pz        
   317     -4.242872  19 C  px              402      4.082366  24 H  s         
   164      3.814279  10 H  s               352     -3.658275  21 C  py        

 Vector   77  Occ=0.000000D+00  E= 9.203747D-02
              MO Center=  3.6D-01, -1.5D+00, -6.1D-02, r^2= 4.2D+01
   Bfn.  Coefficient  Atom+Function         Bfn.  Coefficient  Atom+Function  
  ----- ------------  ---------------      ----- ------------  ---------------
   130      5.423822   8 H  s               207     -4.808621  13 H  s         
   164     -4.604561  10 H  s               454     -3.728848  28 H  s         
   420     -3.594568  26 H  s               300      3.460742  18 H  s         
   482     -3.398606  31 C  s                 3      3.215391   1 H  s         
   334      3.187831  20 H  s               402      3.094061  24 H  s         

 Vector   78  Occ=0.000000D+00  E= 9.377561D-02
              MO Center= -1.5D+00,  6.1D-01, -3.9D-01, r^2= 4.1D+01
   Bfn.  Coefficient  Atom+Function         Bfn.  Coefficient  Atom+Function  
  ----- ------------  ---------------      ----- ------------  ---------------
   411      6.949002  25 H  s               420     -6.846304  26 H  s         
   472      6.388746  30 H  s               454     -5.175873  28 H  s         
    13     -3.877858   2 C  s               334      3.788804  20 H  s         
    56      3.765631   5 C  s               385      3.417392  23 C  px        
   216     -3.267067  14 H  s               463     -3.234830  29 H  s         

 Vector   79  Occ=0.000000D+00  E= 1.026324D-01
              MO Center= -1.1D+00, -1.6D+00, -1.1D-02, r^2= 3.4D+01
   Bfn.  Coefficient  Atom+Function         Bfn.  Coefficient  Atom+Function  
  ----- ------------  ---------------      ----- ------------  ---------------
    56     16.817659   5 C  s               402    -12.402886  24 H  s         
    13    -11.203935   2 C  s               174     -9.583609  11 C  s         
   353     -5.656559  21 C  pz              463      5.287312  29 H  s         
   430      5.047789  27 C  s               140      4.500294   9 C  s         
   147      4.396353   9 C  px              226      4.168271  15 C  s         

 Vector   80  Occ=0.000000D+00  E= 1.076522D-01
              MO Center= -1.3D+00, -2.5D-01,  1.5D+00, r^2= 3.4D+01
   Bfn.  Coefficient  Atom+Function         Bfn.  Coefficient  Atom+Function  
  ----- ------------  ---------------      ----- ------------  ---------------
   463     12.079512  29 H  s               454     -6.326143  28 H  s         
   352     -5.434377  21 C  py              368      5.417360  22 H  s         
    56     -5.295769   5 C  s               318      4.540527  19 C  py        
   164     -3.890956  10 H  s               420     -3.909809  26 H  s         
   319      3.890307  19 C  pz              149      3.832966   9 C  pz        

 Vector   81  Occ=0.000000D+00  E= 1.158288D-01
              MO Center=  7.7D-01,  8.7D-02,  9.6D-01, r^2= 3.6D+01
   Bfn.  Coefficient  Atom+Function         Bfn.  Coefficient  Atom+Function  
  ----- ------------  ---------------      ----- ------------  ---------------
    13     11.226901   2 C  s               300     10.018838  18 H  s         
   402      9.461831  24 H  s               164     -8.620638  10 H  s         
    56     -8.400470   5 C  s                63      6.112145   5 C  px        
   482     -5.622325  31 C  s               472     -5.061843  30 H  s         
    64      5.017047   5 C  py              411     -4.795042  25 H  s         

 Vector   82  Occ=0.000000D+00  E= 1.269466D-01
              MO Center= -1.3D+00, -1.2D+00, -5.7D-01, r^2= 3.5D+01
   Bfn.  Coefficient  Atom+Function         Bfn.  Coefficient  Atom+Function  
  ----- ------------  ---------------      ----- ------------  ---------------
    13     21.247790   2 C  s                56    -16.255419   5 C  s         
   402    -12.510632  24 H  s                64     12.067637   5 C  py        
   378     11.939628  23 C  s               482    -11.401057  31 C  s         
   226     -7.797927  15 C  s                63      7.211333   5 C  px        
   344      6.816281  21 C  s               140     -6.464388   9 C  s         

 Vector   83  Occ=0.000000D+00  E= 1.298446D-01
              MO Center=  3.8D-02,  1.7D+00,  2.8D-01, r^2= 3.1D+01
   Bfn.  Coefficient  Atom+Function         Bfn.  Coefficient  Atom+Function  
  ----- ------------  ---------------      ----- ------------  ---------------
   430     21.340990  27 C  s               482    -16.038933  31 C  s         
    56    -11.510367   5 C  s               353    -10.994771  21 C  pz        
   317      8.283093  19 C  px              532      7.953161  33 N  s         
   491      6.222662  31 C  pz              439     -5.611546  27 C  pz        
   310     -5.026645  19 C  s               351      4.749940  21 C  px        

 Vector   84  Occ=0.000000D+00  E= 1.330339D-01
              MO Center=  8.0D-01,  1.5D+00, -7.6D-01, r^2= 3.4D+01
   Bfn.  Coefficient  Atom+Function         Bfn.  Coefficient  Atom+Function  
  ----- ------------  ---------------      ----- ------------  ---------------
    56     16.407541   5 C  s                13    -12.117730   2 C  s         
   234      9.577790  15 C  py              532     -8.894405  33 N  s         
   226      8.025560  15 C  s               482      7.554280  31 C  s         
   164      6.307048  10 H  s               334     -6.258926  20 H  s         
   430      6.267738  27 C  s               490      6.008836  31 C  py        

 Vector   85  Occ=0.000000D+00  E= 1.417508D-01
              MO Center=  3.4D-01,  1.4D+00, -2.3D-01, r^2= 3.6D+01
   Bfn.  Coefficient  Atom+Function         Bfn.  Coefficient  Atom+Function  
  ----- ------------  ---------------      ----- ------------  ---------------
   378     10.080090  23 C  s                56     -8.805191   5 C  s         
   317      8.050599  19 C  px              532     -7.972280  33 N  s         
   234     -6.102877  15 C  py              226     -4.643935  15 C  s         
   106      4.434109   7 N  s                13      4.329630   2 C  s         
[...]
    13     10.199375   2 C  s                56    -10.038533   5 C  s         
   378      8.413757  23 C  s               482     -8.270797  31 C  s         
   284     -7.250690  17 N  py              318      7.099044  19 C  py        
    12      5.779003   2 C  s               351      5.745218  21 C  px        
   317      5.593996  19 C  px                2     -5.112565   1 H  s         

 Vector  160  Occ=0.000000D+00  E= 4.351786D-01
              MO Center= -5.9D-01, -4.9D-01, -1.1D-01, r^2= 2.1D+01
   Bfn.  Coefficient  Atom+Function         Bfn.  Coefficient  Atom+Function  
  ----- ------------  ---------------      ----- ------------  ---------------
    56     19.879216   5 C  s               317    -12.393767  19 C  px        
   318     10.743516  19 C  py              378    -10.574395  23 C  s         
   482      8.650361  31 C  s               430     -8.300043  27 C  s         
   352     -7.707126  21 C  py              532     -7.655163  33 N  s         
   106     -7.096336   7 N  s               234      6.312121  15 C  py        

 Vector  161  Occ=0.000000D+00  E= 4.421188D-01
              MO Center= -6.3D-03, -9.3D-01, -3.5D-01, r^2= 2.3D+01
   Bfn.  Coefficient  Atom+Function         Bfn.  Coefficient  Atom+Function  
  ----- ------------  ---------------      ----- ------------  ---------------
   235      6.245069  15 C  pz              309      6.098997  19 C  s         
   106     -5.586015   7 N  s                56      4.542018   5 C  s         
   317      4.479033  19 C  px              490     -4.349577  31 C  py        
     2      4.240255   1 H  s               430      3.896215  27 C  s         
    20      3.408054   2 C  px              310     -3.403749  19 C  s         

 Vector  162  Occ=0.000000D+00  E= 4.443311D-01
              MO Center= -2.3D-01,  3.2D-01,  3.2D-01, r^2= 1.8D+01
   Bfn.  Coefficient  Atom+Function         Bfn.  Coefficient  Atom+Function  
  ----- ------------  ---------------      ----- ------------  ---------------
   430     10.380652  27 C  s                13     -9.157767   2 C  s         
   317      8.889439  19 C  px              352      6.865007  21 C  py        
    56     -6.386180   5 C  s               309      6.368329  19 C  s         
   276     -6.142158  17 N  s               147     -6.100775   9 C  px        
   284     -5.983914  17 N  py              113     -5.902734   7 N  px        

 Vector  163  Occ=0.000000D+00  E= 4.474434D-01
              MO Center= -3.0D-01,  5.2D-02, -1.6D-01, r^2= 2.1D+01
   Bfn.  Coefficient  Atom+Function         Bfn.  Coefficient  Atom+Function  
  ----- ------------  ---------------      ----- ------------  ---------------
    56     16.277817   5 C  s               233     -9.995432  15 C  px        
   234      8.252293  15 C  py              276     -7.894791  17 N  s         
   148      7.454492   9 C  py              482      7.254727  31 C  s         
   235     -6.107670  15 C  pz              377     -5.895075  23 C  s         
   419      5.819526  26 H  s               113      5.697462   7 N  px        

 Vector  164  Occ=0.000000D+00  E= 4.525823D-01
              MO Center= -4.1D-01,  4.4D-01, -1.9D-01, r^2= 2.4D+01
   Bfn.  Coefficient  Atom+Function         Bfn.  Coefficient  Atom+Function  
  ----- ------------  ---------------      ----- ------------  ---------------
   318     15.807768  19 C  py              430    -13.464467  27 C  s         
   276     10.353141  17 N  s               174     -9.861118  11 C  s         
   173     -7.833415  11 C  s               367     -7.817516  22 H  s         
   377     -7.818756  23 C  s               351     -7.275380  21 C  px        
    12      6.369877   2 C  s               233      6.378962  15 C  px        

 Vector  165  Occ=0.000000D+00  E= 4.550096D-01
              MO Center= -8.6D-01, -2.1D+00, -1.3D-01, r^2= 2.3D+01
   Bfn.  Coefficient  Atom+Function         Bfn.  Coefficient  Atom+Function  
  ----- ------------  ---------------      ----- ------------  ---------------
    56     11.513981   5 C  s               174    -11.215143  11 C  s         
    36      6.171896   3 H  s               173     -5.225947  11 C  s         
   147      5.061687   9 C  px               22      4.107130   2 C  pz        
   206      3.809540  13 H  s               378     -3.430924  23 C  s         
   114      3.222741   7 N  py              215      3.231131  14 H  s         

 Vector  166  Occ=0.000000D+00  E= 4.581158D-01
              MO Center= -6.7D-02, -6.1D-01, -2.0D-01, r^2= 2.2D+01
   Bfn.  Coefficient  Atom+Function         Bfn.  Coefficient  Atom+Function  
  ----- ------------  ---------------      ----- ------------  ---------------
    13     13.142686   2 C  s               174     12.323824  11 C  s         
    12     12.148798   2 C  s               482    -12.051986  31 C  s         
    36     -8.170242   3 H  s                45     -5.782066   4 H  s         
    56     -5.786885   5 C  s               377     -5.681620  23 C  s         
     2     -5.564909   1 H  s               532      5.487621  33 N  s         

 Vector  167  Occ=0.000000D+00  E= 4.616311D-01
              MO Center= -3.1D-01,  2.0D-01, -1.1D-01, r^2= 2.0D+01
   Bfn.  Coefficient  Atom+Function         Bfn.  Coefficient  Atom+Function  
  ----- ------------  ---------------      ----- ------------  ---------------
   532     17.201865  33 N  s               482    -14.710368  31 C  s         
   318     -9.843163  19 C  py              378     -8.292201  23 C  s         
   430      8.049560  27 C  s               352      7.192407  21 C  py        
   310     -5.655394  19 C  s               233     -5.538492  15 C  px        
   174     -5.142113  11 C  s               410      5.098700  25 H  s         

 Vector  168  Occ=0.000000D+00  E= 4.671152D-01
              MO Center=  9.0D-03, -5.2D-01,  1.5D-01, r^2= 2.3D+01
   Bfn.  Coefficient  Atom+Function         Bfn.  Coefficient  Atom+Function  
  ----- ------------  ---------------      ----- ------------  ---------------
   173      9.946451  11 C  s                13      9.361056   2 C  s         
   233     -8.806066  15 C  px              429      8.800778  27 C  s         
    56     -8.188390   5 C  s               234      7.935483  15 C  py        
   174      7.741952  11 C  s               106      7.671918   7 N  s         
   206     -7.246153  13 H  s               235     -6.743002  15 C  pz        

 Vector  169  Occ=0.000000D+00  E= 4.728361D-01
              MO Center=  1.5D-01,  4.0D-01,  4.8D-03, r^2= 2.0D+01
   Bfn.  Coefficient  Atom+Function         Bfn.  Coefficient  Atom+Function  
  ----- ------------  ---------------      ----- ------------  ---------------
   234     11.273241  15 C  py              174     10.686701  11 C  s         
   318      9.586544  19 C  py              317     -9.443854  19 C  px        
   319      7.356708  19 C  pz              147     -7.315716   9 C  px        
   106      7.081758   7 N  s               173      6.758484  11 C  s         
   378     -6.486006  23 C  s               215     -6.285737  14 H  s         

 Vector  170  Occ=0.000000D+00  E= 4.742989D-01
              MO Center= -2.4D-01, -1.0D-01, -1.9D-01, r^2= 2.1D+01
   Bfn.  Coefficient  Atom+Function         Bfn.  Coefficient  Atom+Function  
  ----- ------------  ---------------      ----- ------------  ---------------
   318     11.562905  19 C  py              430     11.377710  27 C  s         
   429      9.465574  27 C  s               174      8.708300  11 C  s         
   378     -7.679360  23 C  s               453     -6.755193  28 H  s         
   377     -6.326526  23 C  s               319      6.201491  19 C  pz        
   284      6.152930  17 N  py              471     -5.888936  30 H  s         

 Vector  171  Occ=0.000000D+00  E= 4.830027D-01
              MO Center= -1.4D-01, -2.8D-01, -1.1D-01, r^2= 2.4D+01
   Bfn.  Coefficient  Atom+Function         Bfn.  Coefficient  Atom+Function  
  ----- ------------  ---------------      ----- ------------  ---------------
    13     28.928557   2 C  s               482    -17.028653  31 C  s         
   318     16.511393  19 C  py               56    -15.253481   5 C  s         
    64     11.938082   5 C  py              276     11.241384  17 N  s         
   140    -10.059293   9 C  s               173      9.789436  11 C  s         
   234      9.827141  15 C  py              106      9.506186   7 N  s         

 Vector  172  Occ=0.000000D+00  E= 4.886562D-01
              MO Center=  5.6D-01, -4.6D-01, -1.2D-01, r^2= 2.2D+01
   Bfn.  Coefficient  Atom+Function         Bfn.  Coefficient  Atom+Function  
  ----- ------------  ---------------      ----- ------------  ---------------
   174    -29.963018  11 C  s                56     27.817466   5 C  s         
   147     12.878010   9 C  px              113     11.062223   7 N  px        
   430      9.327906  27 C  s               429      8.737946  27 C  s         
   532      8.368963  33 N  s                13     -8.312613   2 C  s         
   181      7.912865  11 C  px              453     -7.189818  28 H  s         

 Vector  173  Occ=0.000000D+00  E= 4.927808D-01
              MO Center=  6.2D-01, -1.4D+00, -3.0D-01, r^2= 2.0D+01
   Bfn.  Coefficient  Atom+Function         Bfn.  Coefficient  Atom+Function  
  ----- ------------  ---------------      ----- ------------  ---------------
   482     23.048893  31 C  s                13    -20.416356   2 C  s         
    56     19.555972   5 C  s               106    -13.634910   7 N  s         
   430    -12.991521  27 C  s               276    -12.008152  17 N  s         
   148    -10.134169   9 C  py              318     -9.802056  19 C  py        
   235      9.091254  15 C  pz               12     -8.968493   2 C  s         

 Vector  174  Occ=0.000000D+00  E= 4.943483D-01
              MO Center=  3.9D-01,  4.3D-02,  7.0D-02, r^2= 2.2D+01
   Bfn.  Coefficient  Atom+Function         Bfn.  Coefficient  Atom+Function  
  ----- ------------  ---------------      ----- ------------  ---------------
   482     18.627670  31 C  s               430    -14.283059  27 C  s         
   174      9.254172  11 C  s               276     -9.255320  17 N  s         
   206     -7.603813  13 H  s               147     -7.300865   9 C  px        
   429     -6.882309  27 C  s               309      6.285370  19 C  s         
   163     -6.085404  10 H  s               471      5.464586  30 H  s         

 Vector  175  Occ=0.000000D+00  E= 4.975008D-01
              MO Center=  2.0D-02, -1.1D-01, -4.6D-01, r^2= 2.0D+01
   Bfn.  Coefficient  Atom+Function         Bfn.  Coefficient  Atom+Function  
  ----- ------------  ---------------      ----- ------------  ---------------
   482     15.052097  31 C  s               276    -10.087685  17 N  s         
   284      8.359935  17 N  py              318     -8.190159  19 C  py        
   148      7.861530   9 C  py              206     -7.705253  13 H  s         
   317     -7.610314  19 C  px              173      7.088021  11 C  s         
   114      6.508491   7 N  py               56      6.299100   5 C  s         

 Vector  176  Occ=0.000000D+00  E= 5.041808D-01
              MO Center= -1.1D+00, -1.2D-01, -2.1D-01, r^2= 1.9D+01
   Bfn.  Coefficient  Atom+Function         Bfn.  Coefficient  Atom+Function  
  ----- ------------  ---------------      ----- ------------  ---------------
    56     27.275293   5 C  s                13    -23.747976   2 C  s         
   378    -21.679135  23 C  s               430     18.472389  27 C  s         
   377    -18.379499  23 C  s               419     15.077376  26 H  s         
   226     12.818360  15 C  s               410     10.770979  25 H  s         
   401     10.492752  24 H  s               471     -9.360145  30 H  s         


 center of mass
 --------------
 x =   0.04618827 y =   0.02685475 z =   0.01646505

 moments of inertia (a.u.)
 ------------------
        5746.508361789438          -0.000000000001           0.000000000001
          -0.000000000001        2185.996164658065           0.000000000001
           0.000000000001           0.000000000001        6748.261947192650

  Mulliken analysis of the total density
  --------------------------------------

    Atom       Charge   Shell Charges
 -----------   ------   -------------------------------------------------------
    1 H    1     0.97   0.76  0.22  0.01  0.03 -0.06
    2 C    6     6.42   2.01  0.66  0.30  0.19  2.07  1.04 -0.02  0.06  0.12
    3 H    1     0.82   0.76  0.09  0.00  0.03 -0.06
    4 H    1     0.83   0.76  0.09  0.00  0.03 -0.06
    5 C    6     4.97   2.01  0.68  0.08 -0.11  1.90  0.31 -0.14  0.24  0.01
    6 O    8     8.74   2.01  0.82  0.99  0.15  2.79  1.84  0.15  0.01 -0.01
    7 N    7     7.58   2.01  0.72  0.82 -0.12  2.45  1.44  0.17  0.05  0.04
    8 H    1     0.96   0.77  0.21 -0.03  0.05 -0.05
    9 C    6     6.70   2.01  0.66  0.19  0.05  2.00  1.44  0.04  0.14  0.18
   10 H    1     1.26   0.79  0.42  0.01  0.03  0.02
   11 C    6     5.73   2.01  0.66  0.18  0.24  2.04  0.55 -0.02  0.07  0.00
   12 H    1     0.97   0.77  0.24  0.01  0.03 -0.09
   13 H    1     0.92   0.77  0.17  0.03  0.03 -0.07
   14 H    1     0.98   0.77  0.26  0.00  0.03 -0.08
   15 C    6     4.35   2.01  0.68 -0.12  0.08  1.88  0.01 -0.04  0.23 -0.38
   16 O    8     8.90   2.01  0.82  1.05  0.17  2.79  1.88  0.17  0.01  0.00
   17 N    7     7.34   2.01  0.72  0.84 -0.19  2.45  1.46 -0.07  0.05  0.08
   18 H    1     1.00   0.76  0.23 -0.01  0.05 -0.02
   19 C    6     6.44   2.01  0.66  0.30 -0.00  2.00  1.20  0.09  0.14  0.05
   20 H    1     1.15   0.78  0.34 -0.00  0.03  0.00
   21 C    6     6.40   2.01  0.66 -0.04  0.03  2.01  1.34 -0.19  0.12  0.45
   22 H    1     1.11   0.80  0.28  0.05  0.03 -0.04
   23 C    6     5.55   2.01  0.66  0.26  0.07  2.04  0.50 -0.04  0.07 -0.04
   24 H    1     0.96   0.77  0.18  0.01  0.03 -0.04
   25 H    1     0.99   0.78  0.27  0.00  0.03 -0.09
   26 H    1     1.00   0.78  0.30 -0.00  0.03 -0.10
   27 C    6     5.50   2.01  0.66  0.20  0.07  2.05  0.50 -0.02  0.07 -0.04
   28 H    1     0.99   0.78  0.29 -0.01  0.03 -0.09
   29 H    1     0.97   0.77  0.17  0.04  0.03 -0.04
   30 H    1     1.01   0.78  0.28  0.00  0.03 -0.07
   31 C    6     4.51   2.01  0.68 -0.00  0.14  1.89 -0.26  0.01  0.23 -0.19
   32 O    8     8.82   2.01  0.82  1.04  0.17  2.79  1.86  0.13  0.01  0.00
   33 N    7     7.21   2.01  0.72  0.82 -0.17  2.47  1.27  0.07  0.04 -0.02
   34 H    1     0.97   0.76  0.22 -0.01  0.05 -0.04
   35 H    1     0.97   0.75  0.20 -0.01  0.05 -0.02

       Multipole analysis of the density wrt the origin
       ------------------------------------------------

     L   x y z        total         open         nuclear
     -   - - -        -----         ----         -------
     0   0 0 0     -0.000000      0.000000    124.000000

     1   1 0 0      0.444521      0.000000      0.000000
     1   0 1 0     -0.051892      0.000000      0.000000
     1   0 0 1     -0.857337      0.000000     -0.000000

     2   2 0 0    -72.626752      0.000000    940.203028
     2   1 1 0     -6.009715      0.000000    -33.820037
     2   1 0 1      2.427280      0.000000      8.616323
     2   0 2 0    -51.177982      0.000000   2862.625735
     2   0 1 1     -6.849463      0.000000     -5.384464
     2   0 0 2    -80.601774      0.000000    340.322639


 Task  times  cpu:     8795.3s     wall:     8829.7s


                                NWChem Input Module
                                -------------------


 Summary of allocated global arrays
-----------------------------------
  No active global arrays


MA_summarize_allocated_blocks: starting scan ...
MA_summarize_allocated_blocks: scan completed: 0 heap blocks, 0 stack blocks
MA usage statistics:

	allocation statistics:
					      heap	     stack
					      ----	     -----
	current number of blocks	         0	         0
	maximum number of blocks	        16	        14
	current total bytes		         0	         0
	maximum total bytes		    121408	  26827992
	maximum total K-bytes		       122	     26828
	maximum total M-bytes		         1	        27


                                     CITATION
                                     --------
                Please cite the following reference when publishing
                           results obtained with NWChem:

          E. Apra, E. J. Bylaska, W. A. de Jong, N. Govind, K. Kowalski,
       T. P. Straatsma, M. Valiev, H. J. J. van Dam, Y. Alexeev, J. Anchell,
       V. Anisimov, F. W. Aquino, R. Atta-Fynn, J. Autschbach, N. P. Bauman,
     J. C. Becca, D. E. Bernholdt, K. Bhaskaran-Nair, S. Bogatko, P. Borowski,
         J. Boschen, J. Brabec, A. Bruner, E. Cauet, Y. Chen, G. N. Chuev,
      C. J. Cramer, J. Daily, M. J. O. Deegan, T. H. Dunning Jr., M. Dupuis,
   K. G. Dyall, G. I. Fann, S. A. Fischer, A. Fonari, H. Fruchtl, L. Gagliardi,
      J. Garza, N. Gawande, S. Ghosh, K. Glaesemann, A. W. Gotz, J. Hammond,
       V. Helms, E. D. Hermes, K. Hirao, S. Hirata, M. Jacquelin, L. Jensen,
   B. G. Johnson, H. Jonsson, R. A. Kendall, M. Klemm, R. Kobayashi, V. Konkov,
      S. Krishnamoorthy, M. Krishnan, Z. Lin, R. D. Lins, R. J. Littlefield,
      A. J. Logsdail, K. Lopata, W. Ma, A. V. Marenich, J. Martin del Campo,
   D. Mejia-Rodriguez, J. E. Moore, J. M. Mullin, T. Nakajima, D. R. Nascimento,
    J. A. Nichols, P. J. Nichols, J. Nieplocha, A. Otero-de-la-Roza, B. Palmer,
    A. Panyala, T. Pirojsirikul, B. Peng, R. Peverati, J. Pittner, L. Pollack,
   R. M. Richard, P. Sadayappan, G. C. Schatz, W. A. Shelton, D. W. Silverstein,
   D. M. A. Smith, T. A. Soares, D. Song, M. Swart, H. L. Taylor, G. S. Thomas,
            V. Tipparaju, D. G. Truhlar, K. Tsemekhman, T. Van Voorhis,
      A. Vazquez-Mayagoitia, P. Verma, O. Villa, A. Vishnu, K. D. Vogiatzis,
        D. Wang, J. H. Weare, M. J. Williamson, T. L. Windus, K. Wolinski,
        A. T. Wong, Q. Wu, C. Yang, Q. Yu, M. Zacharias, Z. Zhang, Y. Zhao,
                                and R. J. Harrison
                        "NWChem: Past, present, and future
                         J. Chem. Phys. 152, 184102 (2020)
                               doi:10.1063/5.0004997

                                      AUTHORS
                                      -------
  E. Apra, E. J. Bylaska, N. Govind, K. Kowalski, M. Valiev, D. Mejia-Rodriguez,
       A. Kunitsa, N. P. Bauman, A. Panyala, W. A. de Jong, T. P. Straatsma,
   H. J. J. van Dam, D. Wang, T. L. Windus, J. Hammond, J. Autschbach, A. Woods,
    K. Bhaskaran-Nair, J. Brabec, K. Lopata, S. A. Fischer, S. Krishnamoorthy,
     M. Jacquelin, W. Ma, M. Klemm, O. Villa, Y. Chen, V. Anisimov, F. Aquino,
     S. Hirata, M. T. Hackler, E. Hermes, L. Jensen, J. E. Moore, J. C. Becca,
      V. Konjkov, T. Risthaus, M. Malagoli, A. Marenich, A. Otero-de-la-Roza,
        J. Mullin, P. Nichols, R. Peverati, J. Pittner, Y. Zhao, P.-D. Fan,
        A. Fonari, M. J. Williamson, R. J. Harrison, J. R. Rehr, M. Dupuis,
     D. Silverstein, D. M. A. Smith, J. Nieplocha, V. Tipparaju, M. Krishnan,
     B. E. Van Kuiken, A. Vazquez-Mayagoitia, M. Swart, Q. Wu, T. Van Voorhis,
     A. A. Auer, M. Nooijen, L. D. Crosby, E. Brown, G. Cisneros, G. I. Fann,
   H. Fruchtl, J. Garza, K. Hirao, R. A. Kendall, J. A. Nichols, K. Tsemekhman,
    K. Wolinski, J. Anchell, D. E. Bernholdt, P. Borowski, T. Clark, D. Clerc,
   H. Dachsel, M. J. O. Deegan, K. Dyall, D. Elwood, E. Glendening, M. Gutowski,
   A. C. Hess, J. Jaffe, B. G. Johnson, J. Ju, R. Kobayashi, R. Kutteh, Z. Lin,
   R. Littlefield, X. Long, B. Meng, T. Nakajima, S. Niu, L. Pollack, M. Rosing,
   K. Glaesemann, G. Sandrone, M. Stave, H. Taylor, G. Thomas, J. H. van Lenthe,
                               A. T. Wong, Z. Zhang.

 Total times  cpu:     8795.4s     wall:     8830.1s
