export TMOUT=5400
export TMPDIR=/tmp
export PTMPDIR=/tmp/ptmp
 argument  1 = ALA_MET_4.nw
                                         
                                         


             Northwest Computational Chemistry Package (NWChem) 7.2.0
             --------------------------------------------------------


                    Environmental Molecular Sciences Laboratory
                       Pacific Northwest National Laboratory
                                Richland, WA 99352

                              Copyright (c) 1994-2022
                       Pacific Northwest National Laboratory
                            Battelle Memorial Institute

             NWChem is an open-source computational chemistry package
                        distributed under the terms of the
                      Educational Community License (ECL) 2.0
             A copy of the license is included with this distribution
                              in the LICENSE.TXT file

                                  ACKNOWLEDGMENT
                                  --------------

            This software and its documentation were developed at the
            EMSL at Pacific Northwest National Laboratory, a multiprogram
            national laboratory, operated for the U.S. Department of Energy
            by Battelle under Contract Number DE-AC05-76RL01830. Support
            for this work was provided by the Department of Energy Office
            of Biological and Environmental Research, Office of Basic
            Energy Sciences, and the Office of Advanced Scientific Computing.


           Job information
           ---------------

    hostname        = nova18-45
    program         = /opt/rit/el9/20230413/app/linux-rhel9-x86_64_v3/gcc-11.2.1/nwchem-7.2.0-oxtctbuhfuzyfaoziquq6bki22grib3g/bin/nwchem
    date            = Fri Jun 27 19:12:51 2025

    compiled        = Wed_May_17_23:46:39_2023
    source          = /tmp/root/spack-stage/spack-stage-nwchem-7.2.0-oxtctbuhfuzyfaoziquq6bki22grib3g/spack-src
    nwchem branch   = 7.2.0
    nwchem revision = d0d141fd
    ga revision     = 5.8.0
    use scalapack   = T
    input           = ALA_MET_4.nw
    prefix          = ALA_MET_4.
    data base       = ./ALA_MET_4.db
    status          = startup
    nproc           =        8
    time left       =     -1s



           Memory information
           ------------------

    heap     =   26214400 doubles =    200.0 Mbytes
    stack    =   26214397 doubles =    200.0 Mbytes
    global   =   52428800 doubles =    400.0 Mbytes (distinct from heap & stack)
    total    =  104857597 doubles =    800.0 Mbytes
    verify   = yes
    hardfail = no 


           Directory information
           ---------------------

  0 permanent = .
  0 scratch   = .




                                NWChem Input Module
                                -------------------



 Scaling coordinates for geometry "geometry" by  1.889725989
 (inverse scale =  0.529177249)

 C1  symmetry detected

          ------
          auto-z
          ------
  no constraints, skipping    0.0000000000000000     
  no constraints, skipping    0.0000000000000000     


                             Geometry "geometry" -> ""
                             -------------------------

 Output coordinates in angstroms (scale by  1.889725989 to convert to a.u.)

  No.       Tag          Charge          X              Y              Z
 ---- ---------------- ---------- -------------- -------------- --------------
    1 H                    1.0000     1.68069785    -5.33283492    -0.78567919
    2 C                    6.0000     1.88203998    -4.30111234    -1.06448355
    3 H                    1.0000     1.58325877    -4.12661905    -2.09634540
    4 H                    1.0000     2.94681534    -4.09752066    -0.95669731
    5 C                    6.0000     1.11180402    -3.37374857    -0.15350715
    6 O                    8.0000     1.71389400    -2.56439008     0.53829520
    7 N                    7.0000    -0.21662763    -3.50275767    -0.16860684
    8 H                    1.0000    -0.58165582    -4.21247983    -0.78188971
    9 C                    6.0000    -1.21657505    -2.73450336     0.59710489
   10 H                    1.0000    -2.19303440    -3.10301301     0.27972060
   11 C                    6.0000    -1.09371336    -3.08453763     2.08735052
   12 H                    1.0000    -0.14690925    -2.71538285     2.48458562
   13 H                    1.0000    -1.91161781    -2.61898163     2.63936132
   14 H                    1.0000    -1.14571679    -4.16491545     2.22474194
   15 C                    6.0000    -1.27168410    -1.20624178     0.35517613
   16 O                    8.0000    -2.36523387    -0.64715108     0.31890646
   17 N                    7.0000    -0.13722788    -0.53022751     0.15255380
   18 H                    1.0000     0.72823094    -1.05152274     0.23665676
   19 C                    6.0000    -0.03616320     0.91019187    -0.11822830
   20 H                    1.0000    -0.73130538     1.41770946     0.55142030
   21 C                    6.0000     1.38309608     1.38057256     0.25069731
   22 H                    1.0000     1.60298891     1.06197918     1.27090631
   23 H                    1.0000     2.10053081     0.89107468    -0.41099313
   24 C                    6.0000     1.60949348     2.89833858     0.17446394
   25 H                    1.0000     2.65460910     3.07870682     0.42534164
   26 H                    1.0000     1.46516064     3.24754421    -0.84763608
   27 S                   16.0000     0.60545704     3.91220178     1.29959959
   28 C                    6.0000    -0.77426019     4.37963502     0.21698815
   29 H                    1.0000    -1.42639532     5.07470491     0.74597927
   30 H                    1.0000    -0.38812333     4.86462969    -0.68025902
   31 H                    1.0000    -1.34885109     3.49960497    -0.06423493
   32 C                    6.0000    -0.45596056     1.26004086    -1.56200697
   33 O                    8.0000     0.34718626     1.64325149    -2.40297178
   34 N                    7.0000    -1.72988565     1.09698529    -1.88843266
   35 H                    1.0000    -2.36791457     0.71432362    -1.20287949
   36 H                    1.0000    -2.01712684     1.30426944    -2.82946176

      Atomic Mass 
      ----------- 

      H                  1.007825
      C                 12.000000
      O                 15.994910
      N                 14.003070
      S                 31.972070


 Effective nuclear repulsion energy (a.u.)    1426.1737580967

            Nuclear Dipole moment (a.u.) 
            ----------------------------
        X                 Y               Z
 ---------------- ---------------- ----------------
     0.0000000000    -0.0000000000    -0.0000000000



                                Z-matrix (autoz)
                                -------- 

 Units are Angstrom for bonds and degrees for angles

      Type          Name      I     J     K     L     M      Value
      ----------- --------  ----- ----- ----- ----- ----- ----------
    1 Stretch                  1     2                       1.08753
    2 Stretch                  2     3                       1.08833
    3 Stretch                  2     4                       1.08941
    4 Stretch                  2     5                       1.51101
    5 Stretch                  5     6                       1.22318
    6 Stretch                  5     7                       1.33477
    7 Stretch                  7     8                       1.00651
    8 Stretch                  7     9                       1.47527
    9 Stretch                  9    10                       1.09087
   10 Stretch                  9    11                       1.53572
   11 Stretch                  9    15                       1.54827
   12 Stretch                 11    12                       1.09110
   13 Stretch                 11    13                       1.09107
   14 Stretch                 11    14                       1.09032
   15 Stretch                 15    16                       1.22872
   16 Stretch                 15    17                       1.33605
   17 Stretch                 17    18                       1.01382
   18 Stretch                 17    19                       1.46913
   19 Stretch                 19    20                       1.09052
   20 Stretch                 19    21                       1.54002
   21 Stretch                 19    32                       1.54374
   22 Stretch                 21    22                       1.09118
   23 Stretch                 21    23                       1.09186
   24 Stretch                 21    24                       1.53645
   25 Stretch                 24    25                       1.08983
   26 Stretch                 24    26                       1.08971
   27 Stretch                 24    27                       1.81712
   28 Stretch                 27    28                       1.81498
   29 Stretch                 28    29                       1.09006
   30 Stretch                 28    30                       1.09058
   31 Stretch                 28    31                       1.08798
   32 Stretch                 32    33                       1.22438
   33 Stretch                 32    34                       1.32515
   34 Stretch                 34    35                       1.01168
   35 Stretch                 34    36                       1.00549
   36 Bend                     1     2     3               110.14161
   37 Bend                     1     2     4               109.44357
   38 Bend                     1     2     5               109.46979
   39 Bend                     2     5     6               119.74682
   40 Bend                     2     5     7               116.17987
   41 Bend                     3     2     4               109.40042
   42 Bend                     3     2     5               109.46730
   43 Bend                     4     2     5               108.89747
   44 Bend                     5     7     8               115.84837
   45 Bend                     5     7     9               128.19829
   46 Bend                     6     5     7               124.07309
   47 Bend                     7     9    10               106.24762
   48 Bend                     7     9    11               109.31370
   49 Bend                     7     9    15               117.19674
   50 Bend                     8     7     9               115.95314
   51 Bend                     9    11    12               110.21796
   52 Bend                     9    11    13               109.49502
   53 Bend                     9    11    14               110.13981
   54 Bend                     9    15    16               119.04058
   55 Bend                     9    15    17               119.53220
   56 Bend                    10     9    11               106.07789
   57 Bend                    10     9    15               104.84010
   58 Bend                    11     9    15               112.30018
   59 Bend                    12    11    13               108.78008
   60 Bend                    12    11    14               109.31478
   61 Bend                    13    11    14               108.86260
   62 Bend                    15    17    18               116.87850
   63 Bend                    15    17    19               125.62335
   64 Bend                    16    15    17               121.39895
   65 Bend                    17    19    20               107.41343
   66 Bend                    17    19    21               108.58508
   67 Bend                    17    19    32               112.07803
   68 Bend                    18    17    19               117.43248
   69 Bend                    19    21    22               108.69402
   70 Bend                    19    21    23               108.87116
   71 Bend                    19    21    24               115.19080
   72 Bend                    19    32    33               122.33876
   73 Bend                    19    32    34               117.64030
   74 Bend                    20    19    21               107.34981
   75 Bend                    20    19    32               107.18702
   76 Bend                    21    19    32               113.91869
   77 Bend                    21    24    25               107.05988
   78 Bend                    21    24    26               110.09527
   79 Bend                    21    24    27               116.04169
   80 Bend                    22    21    23               107.65571
   81 Bend                    22    21    24               107.76510
   82 Bend                    23    21    24               108.41967
   83 Bend                    24    27    28               101.20923
   84 Bend                    25    24    26               106.85173
   85 Bend                    25    24    27               107.15713
   86 Bend                    26    24    27               109.19505
   87 Bend                    27    28    29               109.24065
   88 Bend                    27    28    30               109.64066
   89 Bend                    27    28    31               110.32455
   90 Bend                    29    28    30               109.11765
   91 Bend                    29    28    31               108.98082
   92 Bend                    30    28    31               109.51444
   93 Bend                    32    34    35               119.07161
   94 Bend                    32    34    36               118.67248
   95 Bend                    33    32    34               119.99485
   96 Bend                    35    34    36               122.14129
   97 Torsion                  1     2     5     6         119.93532
   98 Torsion                  1     2     5     7         -60.22994
   99 Torsion                  2     5     7     8           0.45023
  100 Torsion                  2     5     7     9        -179.37821
  101 Torsion                  3     2     5     6        -119.24524
  102 Torsion                  3     2     5     7          60.58950
  103 Torsion                  4     2     5     6           0.31806
  104 Torsion                  4     2     5     7        -179.84719
  105 Torsion                  5     7     9    10         177.53951
  106 Torsion                  5     7     9    11         -68.39366
  107 Torsion                  5     7     9    15          60.81570
  108 Torsion                  6     5     7     8        -179.72299
  109 Torsion                  6     5     7     9           0.44857
  110 Torsion                  7     9    11    12          67.61047
  111 Torsion                  7     9    11    13        -172.76461
  112 Torsion                  7     9    11    14         -53.08631
  113 Torsion                  7     9    15    16         140.84661
  114 Torsion                  7     9    15    17         -37.24681
  115 Torsion                  8     7     9    10          -2.28879
  116 Torsion                  8     7     9    11         111.77805
  117 Torsion                  8     7     9    15        -119.01260
  118 Torsion                  9    15    17    18          -4.45791
  119 Torsion                  9    15    17    19         178.57716
  120 Torsion                 10     9    11    12        -178.21284
  121 Torsion                 10     9    11    13         -58.58792
  122 Torsion                 10     9    11    14          61.09039
  123 Torsion                 10     9    15    16          23.35793
  124 Torsion                 10     9    15    17        -154.73550
  125 Torsion                 11     9    15    16         -91.37123
  126 Torsion                 11     9    15    17          90.53535
  127 Torsion                 12    11     9    15         -64.24005
  128 Torsion                 13    11     9    15          55.38486
  129 Torsion                 14    11     9    15         175.06317
  130 Torsion                 15    17    19    20          42.34929
  131 Torsion                 15    17    19    21         158.14619
  132 Torsion                 15    17    19    32         -75.12851
  133 Torsion                 16    15    17    18         177.49495
  134 Torsion                 16    15    17    19           0.53002
  135 Torsion                 17    19    21    22         -52.47543
  136 Torsion                 17    19    21    23          64.52742
  137 Torsion                 17    19    21    24        -173.48080
  138 Torsion                 17    19    32    33        -110.76051
  139 Torsion                 17    19    32    34          67.37957
  140 Torsion                 18    17    19    20        -134.60054
  141 Torsion                 18    17    19    21         -18.80364
  142 Torsion                 18    17    19    32         107.92166
  143 Torsion                 19    21    24    25        -178.08872
  144 Torsion                 19    21    24    26         -62.29279
  145 Torsion                 19    21    24    27          62.34782
  146 Torsion                 19    32    34    35          -2.71310
  147 Torsion                 19    32    34    36        -178.90533
  148 Torsion                 20    19    21    22          63.36264
  149 Torsion                 20    19    21    23        -179.63450
  150 Torsion                 20    19    21    24         -57.64272
  151 Torsion                 20    19    32    33         131.62648
  152 Torsion                 20    19    32    34         -50.23343
  153 Torsion                 21    19    32    33          13.02901
  154 Torsion                 21    19    32    34        -168.83091
  155 Torsion                 21    24    27    28         -95.64215
  156 Torsion                 22    21    19    32        -178.13289
  157 Torsion                 22    21    24    25          60.40187
  158 Torsion                 22    21    24    26         176.19780
  159 Torsion                 22    21    24    27         -59.16159
  160 Torsion                 23    21    19    32         -61.13004
  161 Torsion                 23    21    24    25         -55.85421
  162 Torsion                 23    21    24    26          59.94172
  163 Torsion                 23    21    24    27        -175.41767
  164 Torsion                 24    21    19    32          60.86174
  165 Torsion                 24    27    28    29        -175.10596
  166 Torsion                 24    27    28    30         -55.57605
  167 Torsion                 24    27    28    31          65.11560
  168 Torsion                 25    24    27    28         144.84722
  169 Torsion                 26    24    27    28          29.45961
  170 Torsion                 33    32    34    35         175.47246
  171 Torsion                 33    32    34    36          -0.71977


            XYZ format geometry
            -------------------
    36
 geometry
 H                     1.68069785    -5.33283492    -0.78567919
 C                     1.88203998    -4.30111234    -1.06448355
 H                     1.58325877    -4.12661905    -2.09634540
 H                     2.94681534    -4.09752066    -0.95669731
 C                     1.11180402    -3.37374857    -0.15350715
 O                     1.71389400    -2.56439008     0.53829520
 N                    -0.21662763    -3.50275767    -0.16860684
 H                    -0.58165582    -4.21247983    -0.78188971
 C                    -1.21657505    -2.73450336     0.59710489
 H                    -2.19303440    -3.10301301     0.27972060
 C                    -1.09371336    -3.08453763     2.08735052
 H                    -0.14690925    -2.71538285     2.48458562
 H                    -1.91161781    -2.61898163     2.63936132
 H                    -1.14571679    -4.16491545     2.22474194
 C                    -1.27168410    -1.20624178     0.35517613
 O                    -2.36523387    -0.64715108     0.31890646
 N                    -0.13722788    -0.53022751     0.15255380
 H                     0.72823094    -1.05152274     0.23665676
 C                    -0.03616320     0.91019187    -0.11822830
 H                    -0.73130538     1.41770946     0.55142030
 C                     1.38309608     1.38057256     0.25069731
 H                     1.60298891     1.06197918     1.27090631
 H                     2.10053081     0.89107468    -0.41099313
 C                     1.60949348     2.89833858     0.17446394
 H                     2.65460910     3.07870682     0.42534164
 H                     1.46516064     3.24754421    -0.84763608
 S                     0.60545704     3.91220178     1.29959959
 C                    -0.77426019     4.37963502     0.21698815
 H                    -1.42639532     5.07470491     0.74597927
 H                    -0.38812333     4.86462969    -0.68025902
 H                    -1.34885109     3.49960497    -0.06423493
 C                    -0.45596056     1.26004086    -1.56200697
 O                     0.34718626     1.64325149    -2.40297178
 N                    -1.72988565     1.09698529    -1.88843266
 H                    -2.36791457     0.71432362    -1.20287949
 H                    -2.01712684     1.30426944    -2.82946176

 ==============================================================================
                                internuclear distances
 ------------------------------------------------------------------------------
       center one      |      center two      | atomic units |  angstroms
 ------------------------------------------------------------------------------
    2 C                |   1 H                |     2.05513  |     1.08753
    3 H                |   2 C                |     2.05664  |     1.08833
    4 H                |   2 C                |     2.05869  |     1.08941
    5 C                |   2 C                |     2.85539  |     1.51101
    6 O                |   5 C                |     2.31147  |     1.22318
    7 N                |   5 C                |     2.52234  |     1.33477
    8 H                |   7 N                |     1.90203  |     1.00651
    9 C                |   7 N                |     2.78786  |     1.47527
   10 H                |   9 C                |     2.06145  |     1.09087
   11 C                |   9 C                |     2.90210  |     1.53572
   12 H                |  11 C                |     2.06189  |     1.09110
   13 H                |  11 C                |     2.06182  |     1.09107
   14 H                |  11 C                |     2.06041  |     1.09032
   15 C                |   9 C                |     2.92581  |     1.54827
   16 O                |  15 C                |     2.32194  |     1.22872
   17 N                |  15 C                |     2.52478  |     1.33605
   18 H                |  17 N                |     1.91585  |     1.01382
   19 C                |  17 N                |     2.77625  |     1.46913
   20 H                |  19 C                |     2.06078  |     1.09052
   21 C                |  19 C                |     2.91022  |     1.54002
   22 H                |  21 C                |     2.06204  |     1.09118
   23 H                |  21 C                |     2.06331  |     1.09186
   24 C                |  21 C                |     2.90347  |     1.53645
   25 H                |  24 C                |     2.05949  |     1.08983
   26 H                |  24 C                |     2.05925  |     1.08971
   27 S                |  24 C                |     3.43387  |     1.81712
   28 C                |  27 S                |     3.42982  |     1.81498
   29 H                |  28 C                |     2.05992  |     1.09006
   30 H                |  28 C                |     2.06091  |     1.09058
   31 H                |  28 C                |     2.05598  |     1.08798
   32 C                |  19 C                |     2.91724  |     1.54374
   33 O                |  32 C                |     2.31375  |     1.22438
   34 N                |  32 C                |     2.50417  |     1.32515
   35 H                |  34 N                |     1.91180  |     1.01168
   36 H                |  34 N                |     1.90010  |     1.00549
 ------------------------------------------------------------------------------
                         number of included internuclear distances:         35
 ==============================================================================



 ==============================================================================
                                 internuclear angles
 ------------------------------------------------------------------------------
        center 1       |       center 2       |       center 3       |  degrees
 ------------------------------------------------------------------------------
    1 H                |   2 C                |   3 H                |   110.14
    1 H                |   2 C                |   4 H                |   109.44
    1 H                |   2 C                |   5 C                |   109.47
    3 H                |   2 C                |   4 H                |   109.40
    3 H                |   2 C                |   5 C                |   109.47
    4 H                |   2 C                |   5 C                |   108.90
    2 C                |   5 C                |   6 O                |   119.75
    2 C                |   5 C                |   7 N                |   116.18
    6 O                |   5 C                |   7 N                |   124.07
    5 C                |   7 N                |   8 H                |   115.85
    5 C                |   7 N                |   9 C                |   128.20
    8 H                |   7 N                |   9 C                |   115.95
    7 N                |   9 C                |  10 H                |   106.25
    7 N                |   9 C                |  11 C                |   109.31
    7 N                |   9 C                |  15 C                |   117.20
   10 H                |   9 C                |  11 C                |   106.08
   10 H                |   9 C                |  15 C                |   104.84
   11 C                |   9 C                |  15 C                |   112.30
    9 C                |  11 C                |  12 H                |   110.22
    9 C                |  11 C                |  13 H                |   109.50
    9 C                |  11 C                |  14 H                |   110.14
   12 H                |  11 C                |  13 H                |   108.78
   12 H                |  11 C                |  14 H                |   109.31
   13 H                |  11 C                |  14 H                |   108.86
    9 C                |  15 C                |  16 O                |   119.04
    9 C                |  15 C                |  17 N                |   119.53
   16 O                |  15 C                |  17 N                |   121.40
   15 C                |  17 N                |  18 H                |   116.88
   15 C                |  17 N                |  19 C                |   125.62
   18 H                |  17 N                |  19 C                |   117.43
   17 N                |  19 C                |  20 H                |   107.41
   17 N                |  19 C                |  21 C                |   108.59
   17 N                |  19 C                |  32 C                |   112.08
   20 H                |  19 C                |  21 C                |   107.35
   20 H                |  19 C                |  32 C                |   107.19
   21 C                |  19 C                |  32 C                |   113.92
   19 C                |  21 C                |  22 H                |   108.69
   19 C                |  21 C                |  23 H                |   108.87
   19 C                |  21 C                |  24 C                |   115.19
   22 H                |  21 C                |  23 H                |   107.66
   22 H                |  21 C                |  24 C                |   107.77
   23 H                |  21 C                |  24 C                |   108.42
   21 C                |  24 C                |  25 H                |   107.06
   21 C                |  24 C                |  26 H                |   110.10
   21 C                |  24 C                |  27 S                |   116.04
   25 H                |  24 C                |  26 H                |   106.85
   25 H                |  24 C                |  27 S                |   107.16
   26 H                |  24 C                |  27 S                |   109.20
   24 C                |  27 S                |  28 C                |   101.21
   27 S                |  28 C                |  29 H                |   109.24
   27 S                |  28 C                |  30 H                |   109.64
   27 S                |  28 C                |  31 H                |   110.32
   29 H                |  28 C                |  30 H                |   109.12
   29 H                |  28 C                |  31 H                |   108.98
   30 H                |  28 C                |  31 H                |   109.51
   19 C                |  32 C                |  33 O                |   122.34
   19 C                |  32 C                |  34 N                |   117.64
   33 O                |  32 C                |  34 N                |   119.99
   32 C                |  34 N                |  35 H                |   119.07
   32 C                |  34 N                |  36 H                |   118.67
   35 H                |  34 N                |  36 H                |   122.14
 ------------------------------------------------------------------------------
                            number of included internuclear angles:         61
 ==============================================================================



  library name resolved from: environment
  library file name is: </opt/rit/el9/20230413/app/linux-rhel9-x86_64_v3/gcc-11.2.1/nwchem-7.2.0-oxtctbuhfuzyfaoziquq6bki22grib3g/share/nwchem/libraries/>
  


 Summary of "ao basis" -> "" (cartesian)
 ------------------------------------------------------------------------------
       Tag                 Description            Shells   Functions and Types
 ---------------- ------------------------------  ------  ---------------------
 *                        aug-cc-pvdz                 on all atoms 


                      Basis "ao basis" -> "ao basis" (cartesian)
                      -----
  H (Hydrogen)
  ------------
            Exponent  Coefficients 
       -------------- ---------------------------------------------------------
  1 S  1.30100000E+01  0.019685
  1 S  1.96200000E+00  0.137977
  1 S  4.44600000E-01  0.478148

  2 S  1.22000000E-01  1.000000

  3 S  2.97400000E-02  1.000000

  4 P  7.27000000E-01  1.000000

  5 P  1.41000000E-01  1.000000

  C (Carbon)
  ----------
            Exponent  Coefficients 
       -------------- ---------------------------------------------------------
  1 S  6.66500000E+03  0.000692
  1 S  1.00000000E+03  0.005329
  1 S  2.28000000E+02  0.027077
  1 S  6.47100000E+01  0.101718
  1 S  2.10600000E+01  0.274740
  1 S  7.49500000E+00  0.448564
  1 S  2.79700000E+00  0.285074
  1 S  5.21500000E-01  0.015204

  2 S  6.66500000E+03 -0.000146
  2 S  1.00000000E+03 -0.001154
  2 S  2.28000000E+02 -0.005725
  2 S  6.47100000E+01 -0.023312
  2 S  2.10600000E+01 -0.063955
  2 S  7.49500000E+00 -0.149981
  2 S  2.79700000E+00 -0.127262
  2 S  5.21500000E-01  0.544529

  3 S  1.59600000E-01  1.000000

  4 S  4.69000000E-02  1.000000

  5 P  9.43900000E+00  0.038109
  5 P  2.00200000E+00  0.209480
  5 P  5.45600000E-01  0.508557

  6 P  1.51700000E-01  1.000000

  7 P  4.04100000E-02  1.000000

  8 D  5.50000000E-01  1.000000

  9 D  1.51000000E-01  1.000000

  O (Oxygen)
  ----------
            Exponent  Coefficients 
       -------------- ---------------------------------------------------------
  1 S  1.17200000E+04  0.000710
  1 S  1.75900000E+03  0.005470
  1 S  4.00800000E+02  0.027837
  1 S  1.13700000E+02  0.104800
  1 S  3.70300000E+01  0.283062
  1 S  1.32700000E+01  0.448719
  1 S  5.02500000E+00  0.270952
  1 S  1.01300000E+00  0.015458

  2 S  1.17200000E+04 -0.000160
  2 S  1.75900000E+03 -0.001263
  2 S  4.00800000E+02 -0.006267
  2 S  1.13700000E+02 -0.025716
  2 S  3.70300000E+01 -0.070924
  2 S  1.32700000E+01 -0.165411
  2 S  5.02500000E+00 -0.116955
  2 S  1.01300000E+00  0.557368

  3 S  3.02300000E-01  1.000000

  4 S  7.89600000E-02  1.000000

  5 P  1.77000000E+01  0.043018
  5 P  3.85400000E+00  0.228913
  5 P  1.04600000E+00  0.508728

  6 P  2.75300000E-01  1.000000

  7 P  6.85600000E-02  1.000000

  8 D  1.18500000E+00  1.000000

  9 D  3.32000000E-01  1.000000

  N (Nitrogen)
  ------------
            Exponent  Coefficients 
       -------------- ---------------------------------------------------------
  1 S  9.04600000E+03  0.000700
  1 S  1.35700000E+03  0.005389
  1 S  3.09300000E+02  0.027406
  1 S  8.77300000E+01  0.103207
  1 S  2.85600000E+01  0.278723
  1 S  1.02100000E+01  0.448540
  1 S  3.83800000E+00  0.278238
  1 S  7.46600000E-01  0.015440

  2 S  9.04600000E+03 -0.000153
  2 S  1.35700000E+03 -0.001208
  2 S  3.09300000E+02 -0.005992
  2 S  8.77300000E+01 -0.024544
  2 S  2.85600000E+01 -0.067459
  2 S  1.02100000E+01 -0.158078
  2 S  3.83800000E+00 -0.121831
  2 S  7.46600000E-01  0.549003

  3 S  2.24800000E-01  1.000000

  4 S  6.12400000E-02  1.000000

  5 P  1.35500000E+01  0.039919
  5 P  2.91700000E+00  0.217169
  5 P  7.97300000E-01  0.510319

  6 P  2.18500000E-01  1.000000

  7 P  5.61100000E-02  1.000000

  8 D  8.17000000E-01  1.000000

  9 D  2.30000000E-01  1.000000

  S (Sulphur)
  -----------
            Exponent  Coefficients 
       -------------- ---------------------------------------------------------
  1 S  1.10800000E+05  0.000248
  1 S  1.66100000E+04  0.001920
  1 S  3.78100000E+03  0.009962
  1 S  1.07100000E+03  0.040298
  1 S  3.49800000E+02  0.128604
  1 S  1.26300000E+02  0.303480
  1 S  4.92600000E+01  0.421432
  1 S  2.01600000E+01  0.230781
  1 S  5.72000000E+00  0.017897
  1 S  2.18200000E+00 -0.002975
  1 S  4.32700000E-01  0.000850

  2 S  1.10800000E+05 -0.000069
  2 S  1.66100000E+04 -0.000528
  2 S  3.78100000E+03 -0.002797
  2 S  1.07100000E+03 -0.011265
  2 S  3.49800000E+02 -0.038883
  2 S  1.26300000E+02 -0.099503
  2 S  4.92600000E+01 -0.199740
  2 S  2.01600000E+01 -0.123360
  2 S  5.72000000E+00  0.513194
  2 S  2.18200000E+00  0.607120
  2 S  4.32700000E-01  0.039675

  3 S  1.10800000E+05  0.000020
  3 S  1.66100000E+04  0.000153
  3 S  3.78100000E+03  0.000810
  3 S  1.07100000E+03  0.003290
  3 S  3.49800000E+02  0.011297
  3 S  1.26300000E+02  0.029639
  3 S  4.92600000E+01  0.059985
  3 S  2.01600000E+01  0.041325
  3 S  5.72000000E+00 -0.207474
  3 S  2.18200000E+00 -0.392889
  3 S  4.32700000E-01  0.632840

  4 S  1.57000000E-01  1.000000

  5 S  5.07000000E-02  1.000000

  6 P  3.99700000E+02  0.004475
  6 P  9.41900000E+01  0.034171
  6 P  2.97500000E+01  0.144250
  6 P  1.07700000E+01  0.353928
  6 P  4.11900000E+00  0.459085
  6 P  1.62500000E+00  0.206383
  6 P  4.72600000E-01  0.010214

  7 P  3.99700000E+02 -0.001163
  7 P  9.41900000E+01 -0.008657
  7 P  2.97500000E+01 -0.039089
  7 P  1.07700000E+01 -0.093463
  7 P  4.11900000E+00 -0.147994
  7 P  1.62500000E+00  0.030190
  7 P  4.72600000E-01  0.561573

  8 P  1.40700000E-01  1.000000

  9 P  3.99000000E-02  1.000000

 10 D  4.79000000E-01  1.000000

 11 D  1.52000000E-01  1.000000



 Summary of "ao basis" -> "ao basis" (cartesian)
 ------------------------------------------------------------------------------
       Tag                 Description            Shells   Functions and Types
 ---------------- ------------------------------  ------  ---------------------
 H                        aug-cc-pvdz                5        9   3s2p
 C                        aug-cc-pvdz                9       25   4s3p2d
 O                        aug-cc-pvdz                9       25   4s3p2d
 N                        aug-cc-pvdz                9       25   4s3p2d
 S                        aug-cc-pvdz               11       29   5s4p2d


                                 NWChem SCF Module
                                 -----------------



  ao basis        = "ao basis"
  functions       =   600
  atoms           =    36
  closed shells   =    70
  open shells     =     0
  charge          =   0.00
  wavefunction    = RHF 
  input vectors   = atomic
  output vectors  = ./ALA_MET_4.movecs
  use symmetry    = F
  symmetry adapt  = F


 Summary of "ao basis" -> "ao basis" (cartesian)
 ------------------------------------------------------------------------------
       Tag                 Description            Shells   Functions and Types
 ---------------- ------------------------------  ------  ---------------------
 H                        aug-cc-pvdz                5        9   3s2p
 C                        aug-cc-pvdz                9       25   4s3p2d
 O                        aug-cc-pvdz                9       25   4s3p2d
 N                        aug-cc-pvdz                9       25   4s3p2d
 S                        aug-cc-pvdz               11       29   5s4p2d



 Forming initial guess at       1.8s


 !! The overlap matrix has   5 vectors deemed linearly dependent with
    eigenvalues:
 2.46D-06 2.91D-06 7.47D-06 8.24D-06 9.76D-06


      Superposition of Atomic Density Guess
      -------------------------------------

 Sum of atomic energies:       -1170.84498976

      Non-variational initial energy
      ------------------------------

 Total energy =   -1181.699147
 1-e energy   =   -4434.708985
 2-e energy   =    1826.836079
 HOMO         =      -0.267149
 LUMO         =       0.003162


 Starting SCF solution at     239.3s



 ----------------------------------------------
         Quadratically convergent ROHF

 Convergence threshold     :          1.000E-04
 Maximum no. of iterations :           30
 Final Fock-matrix accuracy:          1.000E-10
 ----------------------------------------------


              iter       energy          gnorm     gmax       time
             ----- ------------------- --------- --------- --------
                 1    -1175.0148993100  2.38D+00  1.86D-01    458.0
                 2    -1175.3205892374  8.28D-01  3.64D-02    948.8
                 3    -1175.3809001297  6.25D-02  3.83D-03   1648.6
                 4    -1175.3815023800  1.89D-03  9.34D-05   2781.5
                 5    -1175.3815028617  4.56D-06  4.19D-07   4534.2


       Final RHF  results 
       ------------------ 

         Total SCF energy =  -1175.381502861675
      One-electron energy =  -4447.525550316939
      Two-electron energy =   1845.970289358527
 Nuclear repulsion energy =   1426.173758096738

        Time for solution =   4301.7s


             Final eigenvalues
             -----------------

              1      
    1  -91.9391
    2  -20.5508
    3  -20.5387
    4  -20.5187
    5  -15.6247
    6  -15.5961
    7  -15.5797
    8  -11.3817
    9  -11.3710
   10  -11.3497
   11  -11.3164
   12  -11.2910
   13  -11.2602
   14  -11.2536
   15  -11.2522
   16  -11.2450
   17  -11.2385
   18   -8.9398
   19   -6.6221
   20   -6.6208
   21   -6.6188
   22   -1.4173
   23   -1.3994
   24   -1.3802
   25   -1.2708
   26   -1.2443
   27   -1.2094
   28   -1.0907
   29   -1.0729
   30   -1.0238
   31   -1.0094
   32   -0.9615
   33   -0.9049
   34   -0.8718
   35   -0.8388
   36   -0.8033
   37   -0.7816
   38   -0.7701
   39   -0.7379
   40   -0.7307
   41   -0.7140
   42   -0.6815
   43   -0.6722
   44   -0.6510
   45   -0.6394
   46   -0.6229
   47   -0.6141
   48   -0.6086
   49   -0.6047
   50   -0.5907
   51   -0.5832
   52   -0.5789
   53   -0.5717
   54   -0.5657
   55   -0.5583
   56   -0.5483
   57   -0.5375
   58   -0.5261
   59   -0.5239
   60   -0.5157
   61   -0.5070
   62   -0.4678
   63   -0.4551
   64   -0.4431
   65   -0.4366
   66   -0.4163
   67   -0.4124
   68   -0.4016
   69   -0.3876
   70   -0.3291
   71    0.0192
   72    0.0365
   73    0.0376
   74    0.0420
   75    0.0487
   76    0.0525
   77    0.0546
   78    0.0590
   79    0.0616
   80    0.0676

                       ROHF Final Molecular Orbital Analysis
                       -------------------------------------

 Vector   22  Occ=2.000000D+00  E=-1.417317D+00
              MO Center=  1.2D+00, -2.8D+00,  2.6D-01, r^2= 1.6D+00
   Bfn.  Coefficient  Atom+Function         Bfn.  Coefficient  Atom+Function  
  ----- ------------  ---------------      ----- ------------  ---------------
    80      0.347350   6 O  s                79      0.342178   6 O  s         
    54      0.236573   5 C  s                12      0.161452   2 C  s         

 Vector   23  Occ=2.000000D+00  E=-1.399423D+00
              MO Center= -1.6D+00, -8.1D-01,  2.1D-01, r^2= 2.2D+00
   Bfn.  Coefficient  Atom+Function         Bfn.  Coefficient  Atom+Function  
  ----- ------------  ---------------      ----- ------------  ---------------
   250      0.359999  16 O  s               249      0.338006  16 O  s         
   224      0.230545  15 C  s         

 Vector   24  Occ=2.000000D+00  E=-1.380170D+00
              MO Center= -1.7D-01,  1.4D+00, -2.0D+00, r^2= 1.5D+00
   Bfn.  Coefficient  Atom+Function         Bfn.  Coefficient  Atom+Function  
  ----- ------------  ---------------      ----- ------------  ---------------
   535      0.379926  33 O  s               534      0.347642  33 O  s         
   509      0.241729  32 C  s         

 Vector   25  Occ=2.000000D+00  E=-1.270796D+00
              MO Center=  4.3D-03, -3.2D+00, -1.1D-02, r^2= 1.8D+00
   Bfn.  Coefficient  Atom+Function         Bfn.  Coefficient  Atom+Function  
  ----- ------------  ---------------      ----- ------------  ---------------
   105      0.406064   7 N  s               104      0.344610   7 N  s         
    80     -0.213166   6 O  s                79     -0.176550   6 O  s         
    57     -0.168966   5 C  px              128      0.159602   8 H  s         

 Vector   26  Occ=2.000000D+00  E=-1.244295D+00
              MO Center= -4.2D-01, -4.5D-01,  5.5D-02, r^2= 2.2D+00
   Bfn.  Coefficient  Atom+Function         Bfn.  Coefficient  Atom+Function  
  ----- ------------  ---------------      ----- ------------  ---------------
   275      0.437666  17 N  s               274      0.338484  17 N  s         
   250     -0.202313  16 O  s               227      0.184482  15 C  px        
   249     -0.163844  16 O  s         

 Vector   27  Occ=2.000000D+00  E=-1.209390D+00
              MO Center= -1.3D+00,  1.1D+00, -1.8D+00, r^2= 1.6D+00
   Bfn.  Coefficient  Atom+Function         Bfn.  Coefficient  Atom+Function  
  ----- ------------  ---------------      ----- ------------  ---------------
   560      0.375827  34 N  s               559      0.366840  34 N  s         
   535     -0.211266  33 O  s               512     -0.204773  32 C  px        
   534     -0.173691  33 O  s               583      0.163321  35 H  s         
   275     -0.160975  17 N  s               592      0.157392  36 H  s         

 Vector   28  Occ=2.000000D+00  E=-1.090725D+00
              MO Center=  5.2D-01,  1.0D+00,  3.1D-01, r^2= 8.1D+00
   Bfn.  Coefficient  Atom+Function         Bfn.  Coefficient  Atom+Function  
  ----- ------------  ---------------      ----- ------------  ---------------
   342      0.197697  21 C  s               385      0.189243  24 C  s         
   349      0.182118  21 C  py              429      0.155755  27 S  s         
   343      0.152735  21 C  s         

 Vector   29  Occ=2.000000D+00  E=-1.072910D+00
              MO Center= -4.2D-02, -1.6D+00,  5.1D-01, r^2= 1.1D+01
   Bfn.  Coefficient  Atom+Function         Bfn.  Coefficient  Atom+Function  
  ----- ------------  ---------------      ----- ------------  ---------------
   138      0.217476   9 C  s               172      0.174689  11 C  s         
   343      0.156083  21 C  s         

 Vector   30  Occ=2.000000D+00  E=-1.023848D+00
              MO Center=  1.4D-01,  2.0D+00,  2.2D-01, r^2= 8.8D+00
   Bfn.  Coefficient  Atom+Function         Bfn.  Coefficient  Atom+Function  
  ----- ------------  ---------------      ----- ------------  ---------------
   429      0.219136  27 S  s               457      0.202111  28 C  s         
   308     -0.178538  19 C  s         

 Vector   31  Occ=2.000000D+00  E=-1.009389D+00
              MO Center=  8.6D-01, -3.5D+00, -1.9D-01, r^2= 6.9D+00
   Bfn.  Coefficient  Atom+Function         Bfn.  Coefficient  Atom+Function  
  ----- ------------  ---------------      ----- ------------  ---------------
    11      0.300604   2 C  s               172      0.169720  11 C  s         
   146      0.152059   9 C  pz        

 Vector   32  Occ=2.000000D+00  E=-9.615002D-01
              MO Center=  1.0D-01,  2.0D+00,  9.9D-02, r^2= 7.1D+00
   Bfn.  Coefficient  Atom+Function         Bfn.  Coefficient  Atom+Function  
  ----- ------------  ---------------      ----- ------------  ---------------
   385     -0.199907  24 C  s               457      0.200006  28 C  s         
   308      0.182384  19 C  s               349     -0.175191  21 C  py        
   387      0.169345  24 C  s         

 Vector   33  Occ=2.000000D+00  E=-9.048740D-01
              MO Center= -7.3D-01, -2.5D+00,  9.8D-01, r^2= 6.0D+00
   Bfn.  Coefficient  Atom+Function         Bfn.  Coefficient  Atom+Function  
  ----- ------------  ---------------      ----- ------------  ---------------
   172     -0.254697  11 C  s               145      0.240110   9 C  py        
   146     -0.182265   9 C  pz              138      0.178153   9 C  s         
   107     -0.167706   7 N  px        

 Vector   34  Occ=2.000000D+00  E=-8.717664D-01
              MO Center=  2.4D-01,  2.2D+00, -6.0D-02, r^2= 5.9D+00
   Bfn.  Coefficient  Atom+Function         Bfn.  Coefficient  Atom+Function  
  ----- ------------  ---------------      ----- ------------  ---------------
   309      0.345765  19 C  s               342     -0.209641  21 C  s         
   316     -0.203378  19 C  pz              429      0.170090  27 S  s         
   430      0.169708  27 S  s               457     -0.169065  28 C  s         
   343     -0.157255  21 C  s         

 Vector   35  Occ=2.000000D+00  E=-8.388452D-01
              MO Center= -2.3D-01, -1.7D+00, -1.4D-01, r^2= 7.5D+00
   Bfn.  Coefficient  Atom+Function         Bfn.  Coefficient  Atom+Function  
  ----- ------------  ---------------      ----- ------------  ---------------
   139      0.324065   9 C  s               309      0.243819  19 C  s         
   107      0.240298   7 N  px              128     -0.176414   8 H  s         
   224      0.169218  15 C  s               145      0.164573   9 C  py        
    54      0.161084   5 C  s         

 Vector   36  Occ=2.000000D+00  E=-8.032881D-01
              MO Center= -4.7D-02,  3.6D-01,  5.3D-02, r^2= 1.3D+01
   Bfn.  Coefficient  Atom+Function         Bfn.  Coefficient  Atom+Function  
  ----- ------------  ---------------      ----- ------------  ---------------
   430      0.268083  27 S  s               429      0.216100  27 S  s         
   128     -0.183690   8 H  s               225     -0.180459  15 C  s         
   139      0.152203   9 C  s         

 Vector   37  Occ=2.000000D+00  E=-7.816203D-01
              MO Center= -5.5D-01,  3.0D-02, -5.1D-01, r^2= 5.1D+00
   Bfn.  Coefficient  Atom+Function         Bfn.  Coefficient  Atom+Function  
  ----- ------------  ---------------      ----- ------------  ---------------
   225      0.276689  15 C  s               277     -0.275399  17 N  px        
   298     -0.245757  18 H  s               562     -0.223381  34 N  px        
   275     -0.203225  17 N  s               299     -0.171102  18 H  s         
   509     -0.153477  32 C  s         

 Vector   38  Occ=2.000000D+00  E=-7.701146D-01
              MO Center=  1.5D-01,  1.2D+00, -1.6D-01, r^2= 1.0D+01
   Bfn.  Coefficient  Atom+Function         Bfn.  Coefficient  Atom+Function  
  ----- ------------  ---------------      ----- ------------  ---------------
   430      0.268131  27 S  s               343      0.212011  21 C  s         
   387      0.188346  24 C  s               429      0.189026  27 S  s         
   562      0.180516  34 N  px              511     -0.165493  32 C  s         

 Vector   39  Occ=2.000000D+00  E=-7.379302D-01
              MO Center= -3.3D-01, -2.0D+00, -1.6D-01, r^2= 8.5D+00
   Bfn.  Coefficient  Atom+Function         Bfn.  Coefficient  Atom+Function  
  ----- ------------  ---------------      ----- ------------  ---------------
   225      0.248982  15 C  s               145     -0.226299   9 C  py        
   141      0.201312   9 C  px              109      0.187104   7 N  pz        
   139     -0.174025   9 C  s               108      0.164964   7 N  py        
   128     -0.158019   8 H  s         

 Vector   40  Occ=2.000000D+00  E=-7.306522D-01
              MO Center= -6.7D-01, -3.6D-01, -7.0D-01, r^2= 7.0D+00
   Bfn.  Coefficient  Atom+Function         Bfn.  Coefficient  Atom+Function  
  ----- ------------  ---------------      ----- ------------  ---------------
   583      0.233753  35 H  s               225     -0.219198  15 C  s         
   145      0.210576   9 C  py              564      0.196993  34 N  pz        
   315      0.178474  19 C  py              562     -0.177383  34 N  px        
   514      0.158149  32 C  pz              226      0.156785  15 C  s         

 Vector   41  Occ=2.000000D+00  E=-7.140158D-01
              MO Center=  1.9D-01, -1.2D+00, -3.4D-01, r^2= 9.8D+00
   Bfn.  Coefficient  Atom+Function         Bfn.  Coefficient  Atom+Function  
  ----- ------------  ---------------      ----- ------------  ---------------
   343      0.247374  21 C  s               564      0.192984  34 N  pz        
    83     -0.186973   6 O  py              309     -0.175629  19 C  s         
   592     -0.175848  36 H  s                57      0.173500   5 C  px        
    80     -0.170478   6 O  s         

 Vector   42  Occ=2.000000D+00  E=-6.814532D-01
              MO Center= -2.6D-01,  6.5D-01, -1.0D+00, r^2= 6.3D+00
   Bfn.  Coefficient  Atom+Function         Bfn.  Coefficient  Atom+Function  
  ----- ------------  ---------------      ----- ------------  ---------------
   512      0.225475  32 C  px              564     -0.225631  34 N  pz        
   309      0.217574  19 C  s               592      0.215629  36 H  s         
   539      0.197064  33 O  pz              535     -0.191700  33 O  s         
   313     -0.186971  19 C  pz              316     -0.170266  19 C  pz        
   333     -0.157640  20 H  s         

 Vector   43  Occ=2.000000D+00  E=-6.722062D-01
              MO Center= -1.5D-01, -6.2D-01,  1.1D-02, r^2= 7.5D+00
   Bfn.  Coefficient  Atom+Function         Bfn.  Coefficient  Atom+Function  
  ----- ------------  ---------------      ----- ------------  ---------------
   315      0.235446  19 C  py              343     -0.218505  21 C  s         
   312      0.196629  19 C  py              252     -0.189415  16 O  px        
   278     -0.183289  17 N  py              250      0.182045  16 O  s         
   309      0.172356  19 C  s               227      0.161848  15 C  px        
    57      0.153882   5 C  px              332      0.152976  20 H  s         

 Vector   44  Occ=2.000000D+00  E=-6.510129D-01
              MO Center=  4.4D-01, -2.9D+00, -1.3D-01, r^2= 6.6D+00
   Bfn.  Coefficient  Atom+Function         Bfn.  Coefficient  Atom+Function  
  ----- ------------  ---------------      ----- ------------  ---------------
   173      0.225344  11 C  s               139     -0.212437   9 C  s         
    58      0.203406   5 C  py               84     -0.180249   6 O  pz        
   108      0.171092   7 N  py               16     -0.163547   2 C  pz        

 Vector   45  Occ=2.000000D+00  E=-6.393701D-01
              MO Center= -2.3D-01, -2.3D+00,  9.2D-02, r^2= 7.7D+00
   Bfn.  Coefficient  Atom+Function         Bfn.  Coefficient  Atom+Function  
  ----- ------------  ---------------      ----- ------------  ---------------
   139      0.213239   9 C  s               162      0.190682  10 H  s         
   141     -0.172768   9 C  px               83      0.166081   6 O  py        
    35      0.151724   3 H  s         

 Vector   46  Occ=2.000000D+00  E=-6.229451D-01
              MO Center= -2.5D-01, -6.5D-01,  3.7D-01, r^2= 1.1D+01
   Bfn.  Coefficient  Atom+Function         Bfn.  Coefficient  Atom+Function  
  ----- ------------  ---------------      ----- ------------  ---------------
   252      0.192861  16 O  px              333     -0.185163  20 H  s         
   176     -0.154597  11 C  py        

 Vector   47  Occ=2.000000D+00  E=-6.140572D-01
              MO Center=  8.9D-01,  1.1D-01, -2.5D-01, r^2= 1.2D+01
   Bfn.  Coefficient  Atom+Function         Bfn.  Coefficient  Atom+Function  
  ----- ------------  ---------------      ----- ------------  ---------------
   390     -0.172881  24 C  pz               82      0.170067   6 O  px        
   347     -0.164570  21 C  pz              343      0.160118  21 C  s         
    59     -0.150580   5 C  pz        

 Vector   48  Occ=2.000000D+00  E=-6.085711D-01
              MO Center= -4.1D-01, -1.1D+00, -2.5D-01, r^2= 9.9D+00
   Bfn.  Coefficient  Atom+Function         Bfn.  Coefficient  Atom+Function  
  ----- ------------  ---------------      ----- ------------  ---------------
   252      0.251928  16 O  px              539      0.168834  33 O  pz        
    15      0.164918   2 C  py              227     -0.164873  15 C  px        
   250     -0.156987  16 O  s         

 Vector   49  Occ=2.000000D+00  E=-6.046908D-01
              MO Center= -1.7D-02, -1.7D+00,  2.1D-01, r^2= 8.9D+00
   Bfn.  Coefficient  Atom+Function         Bfn.  Coefficient  Atom+Function  
  ----- ------------  ---------------      ----- ------------  ---------------
    82      0.185941   6 O  px              229     -0.173238  15 C  pz        
   254     -0.169449  16 O  pz               58     -0.166809   5 C  py        
    16      0.161538   2 C  pz        

 Vector   50  Occ=2.000000D+00  E=-5.906590D-01
              MO Center= -1.5D-01,  2.4D+00, -3.0D-01, r^2= 8.5D+00
   Bfn.  Coefficient  Atom+Function         Bfn.  Coefficient  Atom+Function  
  ----- ------------  ---------------      ----- ------------  ---------------
   462      0.209744  28 C  pz              343     -0.187753  21 C  s         
   481      0.186570  29 H  s               482      0.182393  29 H  s         
   490     -0.182843  30 H  s               514      0.181047  32 C  pz        
   510     -0.174217  32 C  s               537      0.174557  33 O  px        
   386      0.166895  24 C  s               316     -0.165748  19 C  pz        

 Vector   51  Occ=2.000000D+00  E=-5.832209D-01
              MO Center=  1.3D+00, -3.6D+00, -3.2D-01, r^2= 6.8D+00
   Bfn.  Coefficient  Atom+Function         Bfn.  Coefficient  Atom+Function  
  ----- ------------  ---------------      ----- ------------  ---------------
    14      0.322053   2 C  px               44      0.316446   4 H  s         
    45      0.262511   4 H  s                35     -0.191649   3 H  s         
   206      0.179565  13 H  s               175     -0.175489  11 C  px        
   205      0.156849  13 H  s         

 Vector   52  Occ=2.000000D+00  E=-5.788983D-01
              MO Center= -6.3D-01,  3.0D+00,  2.5D-01, r^2= 8.6D+00
   Bfn.  Coefficient  Atom+Function         Bfn.  Coefficient  Atom+Function  
  ----- ------------  ---------------      ----- ------------  ---------------
   461     -0.353534  28 C  py              386      0.333206  24 C  s         
   499      0.311552  31 H  s               309     -0.226816  19 C  s         
   333      0.225906  20 H  s               482     -0.194056  29 H  s         
   318     -0.191130  19 C  py              315     -0.182081  19 C  py        
   490     -0.170664  30 H  s               500      0.154304  31 H  s         

 Vector   53  Occ=2.000000D+00  E=-5.716684D-01
              MO Center= -3.4D-02,  2.0D+00, -3.5D-01, r^2= 1.1D+01
   Bfn.  Coefficient  Atom+Function         Bfn.  Coefficient  Atom+Function  
  ----- ------------  ---------------      ----- ------------  ---------------
   386      0.305518  24 C  s               333      0.281023  20 H  s         
   462      0.244864  28 C  pz              343     -0.226209  21 C  s         
   490     -0.225447  30 H  s               510      0.206188  32 C  s         
   315     -0.192566  19 C  py              482      0.177476  29 H  s         
   537     -0.175576  33 O  px              316      0.171886  19 C  pz        

 Vector   54  Occ=2.000000D+00  E=-5.657431D-01
              MO Center=  3.4D-01,  2.5D-01, -4.7D-01, r^2= 1.3D+01
   Bfn.  Coefficient  Atom+Function         Bfn.  Coefficient  Atom+Function  
  ----- ------------  ---------------      ----- ------------  ---------------
   386      0.209822  24 C  s               482      0.206554  29 H  s         
   392     -0.172963  24 C  py              563     -0.162772  34 N  py        
   538     -0.152276  33 O  py              375     -0.151280  23 H  s         

 Vector   55  Occ=2.000000D+00  E=-5.583457D-01
              MO Center= -3.1D-02, -1.5D+00, -3.5D-02, r^2= 1.1D+01
   Bfn.  Coefficient  Atom+Function         Bfn.  Coefficient  Atom+Function  
  ----- ------------  ---------------      ----- ------------  ---------------
   206      0.194398  13 H  s               106      0.178103   7 N  s         
   205      0.151476  13 H  s         

 Vector   56  Occ=2.000000D+00  E=-5.482757D-01
              MO Center= -7.1D-01, -9.1D-01,  4.3D-01, r^2= 1.1D+01
   Bfn.  Coefficient  Atom+Function         Bfn.  Coefficient  Atom+Function  
  ----- ------------  ---------------      ----- ------------  ---------------
   176      0.261051  11 C  py              333     -0.261877  20 H  s         
   214     -0.247085  14 H  s               215     -0.243366  14 H  s         
   139     -0.207465   9 C  s               538      0.179845  33 O  py        
   309      0.167153  19 C  s               197      0.162662  12 H  s         
   254     -0.163354  16 O  pz        

 Vector   57  Occ=2.000000D+00  E=-5.374901D-01
              MO Center= -3.7D-02, -2.3D+00,  6.8D-01, r^2= 8.5D+00
   Bfn.  Coefficient  Atom+Function         Bfn.  Coefficient  Atom+Function  
  ----- ------------  ---------------      ----- ------------  ---------------
   175      0.242929  11 C  px              106     -0.230520   7 N  s         
    13     -0.214463   2 C  s               197      0.215415  12 H  s         
   234     -0.203355  15 C  py              205     -0.202065  13 H  s         
   511      0.200703  32 C  s               196      0.185144  12 H  s         
   206     -0.185733  13 H  s               226      0.164393  15 C  s         

 Vector   58  Occ=2.000000D+00  E=-5.261133D-01
              MO Center=  1.1D-01,  2.3D-02,  6.5D-02, r^2= 9.8D+00
   Bfn.  Coefficient  Atom+Function         Bfn.  Coefficient  Atom+Function  
  ----- ------------  ---------------      ----- ------------  ---------------
   386      0.275608  24 C  s               410     -0.173973  25 H  s         
   312     -0.165864  19 C  py              392     -0.165358  24 C  py        
   278      0.163833  17 N  py              215      0.156440  14 H  s         
   332     -0.156532  20 H  s               346      0.152553  21 C  py        

 Vector   59  Occ=2.000000D+00  E=-5.239084D-01
              MO Center= -5.4D-01, -1.6D+00,  6.1D-01, r^2= 7.8D+00
   Bfn.  Coefficient  Atom+Function         Bfn.  Coefficient  Atom+Function  
  ----- ------------  ---------------      ----- ------------  ---------------
   143      0.238607   9 C  pz              177     -0.217330  11 C  pz        
   254     -0.192555  16 O  pz              162     -0.187012  10 H  s         
   163     -0.182127  10 H  s               196     -0.176760  12 H  s         
   180     -0.153798  11 C  pz        

 Vector   60  Occ=2.000000D+00  E=-5.157091D-01
              MO Center=  9.1D-02,  1.3D+00,  3.4D-01, r^2= 8.3D+00
   Bfn.  Coefficient  Atom+Function         Bfn.  Coefficient  Atom+Function  
  ----- ------------  ---------------      ----- ------------  ---------------
   343      0.322409  21 C  s               311      0.268494  19 C  px        
   348     -0.219933  21 C  px              345     -0.205142  21 C  px        
   387     -0.197871  24 C  s               392      0.198448  24 C  py        
   389      0.184181  24 C  py              435      0.178482  27 S  px        
   460     -0.177261  28 C  px              386     -0.166656  24 C  s         

 Vector   61  Occ=2.000000D+00  E=-5.070130D-01
              MO Center=  1.1D+00,  2.0D+00,  1.5D-01, r^2= 3.7D+00
   Bfn.  Coefficient  Atom+Function         Bfn.  Coefficient  Atom+Function  
  ----- ------------  ---------------      ----- ------------  ---------------
   367      0.322158  22 H  s               366      0.317562  22 H  s         
   347      0.300535  21 C  pz              392      0.256358  24 C  py        
   343      0.241883  21 C  s               376     -0.234729  23 H  s         
   418      0.212840  26 H  s               315     -0.180561  19 C  py        
   389      0.178432  24 C  py              390     -0.174660  24 C  pz        

 Vector   62  Occ=2.000000D+00  E=-4.678351D-01
              MO Center=  7.3D-01,  2.7D+00,  3.5D-01, r^2= 5.0D+00
   Bfn.  Coefficient  Atom+Function         Bfn.  Coefficient  Atom+Function  
  ----- ------------  ---------------      ----- ------------  ---------------
   419      0.281960  26 H  s               388     -0.229008  24 C  px        
   435      0.225931  27 S  px              409     -0.208425  25 H  s         
   311     -0.203602  19 C  px              345      0.204018  21 C  px        
   460     -0.202263  28 C  px              375      0.196108  23 H  s         
   386     -0.186915  24 C  s               410     -0.187331  25 H  s         

 Vector   63  Occ=2.000000D+00  E=-4.550795D-01
              MO Center= -5.3D-01, -1.8D+00,  3.0D-01, r^2= 6.0D+00
   Bfn.  Coefficient  Atom+Function         Bfn.  Coefficient  Atom+Function  
  ----- ------------  ---------------      ----- ------------  ---------------
   253      0.338332  16 O  py              256      0.276609  16 O  py        
   234     -0.267108  15 C  py               84      0.251768   6 O  pz        
   163     -0.224978  10 H  s               139      0.205848   9 C  s         
    87      0.199040   6 O  pz              109     -0.191084   7 N  pz        
   252      0.185161  16 O  px               82     -0.177489   6 O  px        

 Vector   64  Occ=2.000000D+00  E=-4.430901D-01
              MO Center=  9.8D-01, -2.6D+00,  2.1D-01, r^2= 4.1D+00
   Bfn.  Coefficient  Atom+Function         Bfn.  Coefficient  Atom+Function  
  ----- ------------  ---------------      ----- ------------  ---------------
    82      0.399434   6 O  px               85      0.330911   6 O  px        
    83     -0.263252   6 O  py               86     -0.212328   6 O  py        
   105      0.176053   7 N  s               276      0.159336  17 N  s         
   253      0.154455  16 O  py        

 Vector   65  Occ=2.000000D+00  E=-4.365835D-01
              MO Center= -3.0D-01,  7.4D-01, -9.9D-01, r^2= 6.4D+00
   Bfn.  Coefficient  Atom+Function         Bfn.  Coefficient  Atom+Function  
  ----- ------------  ---------------      ----- ------------  ---------------
   537      0.321787  33 O  px              539      0.281789  33 O  pz        
   540      0.250980  33 O  px              254     -0.246684  16 O  pz        
   542      0.231257  33 O  pz              279      0.211261  17 N  pz        
   282      0.210586  17 N  pz              529     -0.206320  32 C  dxz       
   333     -0.197449  20 H  s               257     -0.193918  16 O  pz        

 Vector   66  Occ=2.000000D+00  E=-4.163102D-01
              MO Center=  4.5D-01,  3.3D+00,  7.6D-01, r^2= 5.3D+00
   Bfn.  Coefficient  Atom+Function         Bfn.  Coefficient  Atom+Function  
  ----- ------------  ---------------      ----- ------------  ---------------
   430      0.382417  27 S  s               437      0.372967  27 S  pz        
   482     -0.261420  29 H  s               440      0.252619  27 S  pz        
   390     -0.203091  24 C  pz              343     -0.167425  21 C  s         
   392     -0.166086  24 C  py              459      0.165598  28 C  s         
   463     -0.162486  28 C  px              462     -0.160537  28 C  pz        

 Vector   67  Occ=2.000000D+00  E=-4.123732D-01
              MO Center= -5.4D-01, -2.2D+00,  2.5D-01, r^2= 5.4D+00
   Bfn.  Coefficient  Atom+Function         Bfn.  Coefficient  Atom+Function  
  ----- ------------  ---------------      ----- ------------  ---------------
   253      0.290860  16 O  py              109      0.258788   7 N  pz        
   112      0.248956   7 N  pz              108     -0.244359   7 N  py        
   256      0.225670  16 O  py              111     -0.220406   7 N  py        
    84     -0.198513   6 O  pz              387     -0.163092  24 C  s         
    87     -0.159422   6 O  pz              145      0.159881   9 C  py        

 Vector   68  Occ=2.000000D+00  E=-4.015677D-01
              MO Center= -7.4D-01,  1.4D+00, -1.8D+00, r^2= 3.3D+00
   Bfn.  Coefficient  Atom+Function         Bfn.  Coefficient  Atom+Function  
  ----- ------------  ---------------      ----- ------------  ---------------
   563      0.401862  34 N  py              538     -0.363712  33 O  py        
   566      0.353285  34 N  py              541     -0.287271  33 O  py        
   386      0.164811  24 C  s         

 Vector   69  Occ=2.000000D+00  E=-3.876351D-01
              MO Center= -4.4D-01,  3.8D-01, -6.1D-01, r^2= 4.6D+00
   Bfn.  Coefficient  Atom+Function         Bfn.  Coefficient  Atom+Function  
  ----- ------------  ---------------      ----- ------------  ---------------
   279      0.353824  17 N  pz              282      0.328276  17 N  pz        
   539     -0.265048  33 O  pz              254     -0.247834  16 O  pz        
   542     -0.200676  33 O  pz              257     -0.198980  16 O  pz        
   313     -0.188802  19 C  pz              510      0.188890  32 C  s         
   537     -0.179359  33 O  px              367      0.175907  22 H  s         

 Vector   70  Occ=2.000000D+00  E=-3.290753D-01
              MO Center=  5.7D-01,  3.8D+00,  1.1D+00, r^2= 2.3D+00
   Bfn.  Coefficient  Atom+Function         Bfn.  Coefficient  Atom+Function  
  ----- ------------  ---------------      ----- ------------  ---------------
   436      0.421367  27 S  py              439      0.416958  27 S  py        
   435      0.265303  27 S  px              438      0.263947  27 S  px        
   500      0.186763  31 H  s               440     -0.166573  27 S  pz        
   437     -0.156582  27 S  pz        

 Vector   71  Occ=0.000000D+00  E= 1.918112D-02
              MO Center= -7.0D-01, -5.6D+00, -9.8D-01, r^2= 1.7D+01
   Bfn.  Coefficient  Atom+Function         Bfn.  Coefficient  Atom+Function  
  ----- ------------  ---------------      ----- ------------  ---------------
   300      5.184851  18 H  s               234     -3.588949  15 C  py        
   511      2.918790  32 C  s                64     -2.596532   5 C  py        
   148     -2.365423   9 C  py              106     -2.307137   7 N  s         
   226      1.908669  15 C  s                12      1.754258   2 C  s         
   310      1.761138  19 C  s               233     -1.686085  15 C  px        

 Vector   72  Occ=0.000000D+00  E= 3.645819D-02
              MO Center= -3.2D-01, -3.3D+00, -1.2D+00, r^2= 3.7D+01
   Bfn.  Coefficient  Atom+Function         Bfn.  Coefficient  Atom+Function  
  ----- ------------  ---------------      ----- ------------  ---------------
   300      2.620201  18 H  s                63      2.542911   5 C  px        
   164      2.430414  10 H  s                 3     -2.186201   1 H  s         
   106      2.172279   7 N  s               147      1.887926   9 C  px        
    64     -1.871006   5 C  py               46     -1.727703   4 H  s         
   561      1.735894  34 N  s               130      1.704155   8 H  s         

 Vector   73  Occ=0.000000D+00  E= 3.759362D-02
              MO Center= -3.2D-01, -3.9D+00, -3.4D-01, r^2= 3.3D+01
   Bfn.  Coefficient  Atom+Function         Bfn.  Coefficient  Atom+Function  
  ----- ------------  ---------------      ----- ------------  ---------------
   106      3.204097   7 N  s               234      2.864979  15 C  py        
   216      2.747414  14 H  s                37     -2.515620   3 H  s         
    63      2.044972   5 C  px               12      2.027566   2 C  s         
   235     -1.725104  15 C  pz              173     -1.696138  11 C  s         
   233      1.496601  15 C  px              561     -1.502161  34 N  s         

 Vector   74  Occ=0.000000D+00  E= 4.198523D-02
              MO Center= -1.0D+00,  8.4D-01,  4.1D-01, r^2= 4.4D+01
   Bfn.  Coefficient  Atom+Function         Bfn.  Coefficient  Atom+Function  
  ----- ------------  ---------------      ----- ------------  ---------------
   300      4.724295  18 H  s               511      4.221126  32 C  s         
   352      2.528030  21 C  py              561     -2.470418  34 N  s         
   149      2.292171   9 C  pz              387     -2.172724  24 C  s         
   310      2.077939  19 C  s               483     -2.014731  29 H  s         
   130      1.957737   8 H  s               459      1.804370  28 C  s         

 Vector   75  Occ=0.000000D+00  E= 4.865529D-02
              MO Center=  9.5D-01, -9.5D-02,  2.7D-01, r^2= 4.6D+01
   Bfn.  Coefficient  Atom+Function         Bfn.  Coefficient  Atom+Function  
  ----- ------------  ---------------      ----- ------------  ---------------
   387      4.340015  24 C  s                 3     -3.055963   1 H  s         
   411      3.048084  25 H  s               394     -2.943319  24 C  px        
   300     -2.182726  18 H  s               164      2.102016  10 H  s         
   317     -2.070967  19 C  px              561     -1.936865  34 N  s         
   483     -1.835480  29 H  s               511     -1.686502  32 C  s         

 Vector   76  Occ=0.000000D+00  E= 5.254802D-02
              MO Center=  3.0D-01,  2.0D+00,  1.3D-01, r^2= 4.8D+01
   Bfn.  Coefficient  Atom+Function         Bfn.  Coefficient  Atom+Function  
  ----- ------------  ---------------      ----- ------------  ---------------
   411      3.457783  25 H  s               387      2.932058  24 C  s         
   483      2.316080  29 H  s               518     -2.308547  32 C  px        
   561     -2.235297  34 N  s               501     -2.199848  31 H  s         
   395     -2.159401  24 C  py              318     -2.071590  19 C  py        
   459     -1.995200  28 C  s               130      1.965555   8 H  s         

 Vector   77  Occ=0.000000D+00  E= 5.463169D-02
              MO Center= -9.7D-01,  7.3D-01, -2.0D-01, r^2= 4.6D+01
   Bfn.  Coefficient  Atom+Function         Bfn.  Coefficient  Atom+Function  
  ----- ------------  ---------------      ----- ------------  ---------------
    13      3.161303   2 C  s               483     -3.100187  29 H  s         
   300      3.031026  18 H  s               561      2.990027  34 N  s         
   207     -2.871996  13 H  s               511     -2.531878  32 C  s         
   411      2.492368  25 H  s                37     -2.403201   3 H  s         
   226     -2.270179  15 C  s               234      2.277029  15 C  py        

 Vector   78  Occ=0.000000D+00  E= 5.899748D-02
              MO Center=  2.7D-01, -2.8D+00, -3.6D-01, r^2= 4.0D+01
   Bfn.  Coefficient  Atom+Function         Bfn.  Coefficient  Atom+Function  
  ----- ------------  ---------------      ----- ------------  ---------------
   164      5.596509  10 H  s                46      4.168081   4 H  s         
   106     -3.175403   7 N  s               113     -2.927265   7 N  px        
    56      2.772976   5 C  s                63     -2.673619   5 C  px        
   147      2.420110   9 C  px               37     -2.329941   3 H  s         
   130     -2.111849   8 H  s               149      2.120313   9 C  pz        

 Vector   79  Occ=0.000000D+00  E= 6.155101D-02
              MO Center=  1.4D-01, -1.3D+00,  4.5D-01, r^2= 4.5D+01
   Bfn.  Coefficient  Atom+Function         Bfn.  Coefficient  Atom+Function  
  ----- ------------  ---------------      ----- ------------  ---------------
   234      5.423013  15 C  py               13      5.379653   2 C  s         
   216      4.726972  14 H  s               511     -3.946419  32 C  s         
   147     -3.353634   9 C  px              318      3.159181  19 C  py        
    63     -2.852478   5 C  px              198     -2.861635  12 H  s         
    37      2.829161   3 H  s                 3     -2.450235   1 H  s         

 Vector   80  Occ=0.000000D+00  E= 6.759792D-02
              MO Center=  2.4D-01, -1.4D+00,  1.1D+00, r^2= 4.7D+01
   Bfn.  Coefficient  Atom+Function         Bfn.  Coefficient  Atom+Function  
  ----- ------------  ---------------      ----- ------------  ---------------
   207      4.427580  13 H  s               387      3.498535  24 C  s         
    13     -3.455592   2 C  s                 3      2.798305   1 H  s         
   198     -2.753216  12 H  s               411      2.416053  25 H  s         
    46     -2.324157   4 H  s               352     -2.218868  21 C  py        
   483     -2.202338  29 H  s               234     -2.019695  15 C  py        

 Vector   81  Occ=0.000000D+00  E= 7.216697D-02
              MO Center=  3.0D-01,  1.9D+00,  2.4D-02, r^2= 4.6D+01
   Bfn.  Coefficient  Atom+Function         Bfn.  Coefficient  Atom+Function  
  ----- ------------  ---------------      ----- ------------  ---------------
   492      4.540526  30 H  s               511      4.455179  32 C  s         
   198      4.108828  12 H  s               216     -3.844052  14 H  s         
   300     -3.570681  18 H  s                56      3.024213   5 C  s         
    13     -2.971963   2 C  s               411     -2.816630  25 H  s         
   310      2.461076  19 C  s               226      2.397742  15 C  s         

 Vector   82  Occ=0.000000D+00  E= 7.998648D-02
              MO Center=  7.3D-02, -5.9D-02, -3.6D-02, r^2= 4.2D+01
   Bfn.  Coefficient  Atom+Function         Bfn.  Coefficient  Atom+Function  
  ----- ------------  ---------------      ----- ------------  ---------------
   300     -4.945965  18 H  s               164      4.835731  10 H  s         
   501     -4.741882  31 H  s                56      4.290949   5 C  s         
   130     -3.746890   8 H  s               387      3.710711  24 C  s         
   207     -3.418346  13 H  s               147      3.297431   9 C  px        
   368      3.273550  22 H  s               377     -3.280400  23 H  s         

 Vector   83  Occ=0.000000D+00  E= 8.336026D-02
              MO Center= -1.4D+00,  1.4D+00, -6.4D-01, r^2= 3.8D+01
   Bfn.  Coefficient  Atom+Function         Bfn.  Coefficient  Atom+Function  
  ----- ------------  ---------------      ----- ------------  ---------------
   334      6.975246  20 H  s               501     -6.735637  31 H  s         
   511     -5.699510  32 C  s               459      3.819761  28 C  s         
   276      3.761953  17 N  s                56     -3.702773   5 C  s         
   585     -3.511670  35 H  s                13      3.479191   2 C  s         
   483      3.198019  29 H  s               310     -3.055635  19 C  s         

 Vector   84  Occ=0.000000D+00  E= 8.425981D-02
              MO Center= -3.0D-03, -7.1D-01, -1.8D-01, r^2= 4.2D+01
   Bfn.  Coefficient  Atom+Function         Bfn.  Coefficient  Atom+Function  
  ----- ------------  ---------------      ----- ------------  ---------------
   198      5.420260  12 H  s               420      4.737566  26 H  s         
   234     -4.264511  15 C  py              147      3.940117   9 C  px        
   501     -3.879784  31 H  s               164      3.688634  10 H  s         
   276      3.601583  17 N  s               207     -3.507780  13 H  s         
   334      3.428866  20 H  s               235      3.115981  15 C  pz        

 Vector   85  Occ=0.000000D+00  E= 8.963733D-02
              MO Center=  1.5D+00, -5.2D-01,  8.5D-02, r^2= 4.1D+01
   Bfn.  Coefficient  Atom+Function         Bfn.  Coefficient  Atom+Function  
  ----- ------------  ---------------      ----- ------------  ---------------
   334      5.623607  20 H  s               368     -4.743083  22 H  s         
   174     -4.472483  11 C  s               164     -4.246656  10 H  s         
   501     -4.259802  31 H  s               317      3.938018  19 C  px        
   411      3.684944  25 H  s               377     -3.580148  23 H  s         
    46      3.559032   4 H  s               130      3.490764   8 H  s         

 Vector   86  Occ=0.000000D+00  E= 9.316096D-02
              MO Center= -6.4D-01,  8.8D-01,  1.5D+00, r^2= 3.6D+01
   Bfn.  Coefficient  Atom+Function         Bfn.  Coefficient  Atom+Function  
  ----- ------------  ---------------      ----- ------------  ---------------
   300      8.495905  18 H  s               276      5.294743  17 N  s         
   334      5.123880  20 H  s               198     -4.350246  12 H  s         
   317      4.166390  19 C  px              352      3.619677  21 C  py        
   216      3.422901  14 H  s               431     -3.428315  27 S  s         
   377     -3.309132  23 H  s               483     -3.318180  29 H  s         

 Vector   87  Occ=0.000000D+00  E= 9.500006D-02
              MO Center=  5.5D-02,  7.0D-01, -9.4D-01, r^2= 4.2D+01
   Bfn.  Coefficient  Atom+Function         Bfn.  Coefficient  Atom+Function  
  ----- ------------  ---------------      ----- ------------  ---------------
   300     12.836840  18 H  s                56     -9.276297   5 C  s         
   420     -6.790788  26 H  s               352      6.164557  21 C  py        
   501     -5.518752  31 H  s               492      5.234996  30 H  s         
   318      5.109592  19 C  py              147     -4.864538   9 C  px        
   106      4.755628   7 N  s               387     -4.739190  24 C  s         

 Vector   88  Occ=0.000000D+00  E= 1.038765D-01
              MO Center=  2.8D-02, -2.5D-01, -4.5D-01, r^2= 4.1D+01
   Bfn.  Coefficient  Atom+Function         Bfn.  Coefficient  Atom+Function  
  ----- ------------  ---------------      ----- ------------  ---------------
   300     10.056270  18 H  s                56     -8.602223   5 C  s         
   501      7.741523  31 H  s               234      6.885163  15 C  py        
   174      5.881337  11 C  s               377     -5.729164  23 H  s         
   318      5.669529  19 C  py              585     -5.232085  35 H  s         
   411      4.471875  25 H  s                13      4.391584   2 C  s         

 Vector   89  Occ=0.000000D+00  E= 1.112911D-01
              MO Center=  9.1D-01,  1.3D+00,  1.5D-01, r^2= 3.9D+01
   Bfn.  Coefficient  Atom+Function         Bfn.  Coefficient  Atom+Function  
  ----- ------------  ---------------      ----- ------------  ---------------
   334     12.467356  20 H  s               420     -9.572997  26 H  s         
[...]
   300     -9.207508  18 H  s               174     -8.380587  11 C  s         
   458      7.778216  28 C  s               318     -7.547792  19 C  py        
   459      6.336742  28 C  s               387      6.269969  24 C  s         
   284      5.511159  17 N  py              491     -5.327684  30 H  s         

 Vector  176  Occ=0.000000D+00  E= 4.410429D-01
              MO Center= -1.2D-01,  1.5D-01, -1.1D-01, r^2= 2.3D+01
   Bfn.  Coefficient  Atom+Function         Bfn.  Coefficient  Atom+Function  
  ----- ------------  ---------------      ----- ------------  ---------------
   234     12.861647  15 C  py              317      9.330746  19 C  px        
    13      7.998012   2 C  s               106      7.349229   7 N  s         
   147     -7.091852   9 C  px              511     -6.555219  32 C  s         
   387     -6.482944  24 C  s                12      5.960504   2 C  s         
    36     -5.798623   3 H  s               561      5.822920  34 N  s         

 Vector  177  Occ=0.000000D+00  E= 4.462605D-01
              MO Center= -4.7D-01, -1.4D-01,  2.8D-01, r^2= 2.3D+01
   Bfn.  Coefficient  Atom+Function         Bfn.  Coefficient  Atom+Function  
  ----- ------------  ---------------      ----- ------------  ---------------
   234     14.073129  15 C  py              147    -10.925936   9 C  px        
    13     10.823162   2 C  s               317     -9.029740  19 C  px        
   511     -7.890266  32 C  s               233      7.798727  15 C  px        
   458     -7.490346  28 C  s                63     -6.709782   5 C  px        
   334     -6.613469  20 H  s               276     -6.082284  17 N  s         

 Vector  178  Occ=0.000000D+00  E= 4.505616D-01
              MO Center= -2.8D-01, -4.3D-01, -1.7D-01, r^2= 2.2D+01
   Bfn.  Coefficient  Atom+Function         Bfn.  Coefficient  Atom+Function  
  ----- ------------  ---------------      ----- ------------  ---------------
   511     14.028465  32 C  s               561    -13.656053  34 N  s         
   234    -12.381736  15 C  py              106    -11.692211   7 N  s         
   387    -10.879710  24 C  s               226     10.716507  15 C  s         
   310      9.989414  19 C  s                13     -8.812757   2 C  s         
   147      7.885105   9 C  px               56      7.447240   5 C  s         

 Vector  179  Occ=0.000000D+00  E= 4.537669D-01
              MO Center=  2.3D-01, -8.4D-02,  1.7D-01, r^2= 2.4D+01
   Bfn.  Coefficient  Atom+Function         Bfn.  Coefficient  Atom+Function  
  ----- ------------  ---------------      ----- ------------  ---------------
   234     12.353698  15 C  py               56    -10.423255   5 C  s         
   343      8.860336  21 C  s               317      8.753683  19 C  px        
   174      8.615913  11 C  s               367     -7.507954  22 H  s         
   376     -6.236406  23 H  s               561     -5.814038  34 N  s         
   163      5.494991  10 H  s                12     -5.304770   2 C  s         

 Vector  180  Occ=0.000000D+00  E= 4.594328D-01
              MO Center= -9.3D-02,  3.6D-01,  2.6D-01, r^2= 2.2D+01
   Bfn.  Coefficient  Atom+Function         Bfn.  Coefficient  Atom+Function  
  ----- ------------  ---------------      ----- ------------  ---------------
   387     13.793868  24 C  s                13    -12.389953   2 C  s         
   234     -8.389300  15 C  py              318     -7.370495  19 C  py        
   511      7.153407  32 C  s               276     -7.006344  17 N  s         
   319      6.558725  19 C  pz              317     -6.352899  19 C  px        
   334     -6.291104  20 H  s               226      5.972040  15 C  s         

 Vector  181  Occ=0.000000D+00  E= 4.634315D-01
              MO Center= -3.2D-02,  5.4D-01, -1.7D-01, r^2= 2.4D+01
   Bfn.  Coefficient  Atom+Function         Bfn.  Coefficient  Atom+Function  
  ----- ------------  ---------------      ----- ------------  ---------------
   234     17.511255  15 C  py              106     14.115348   7 N  s         
    13     11.500308   2 C  s               300     11.439141  18 H  s         
   226     -7.761212  15 C  s                12      7.667573   2 C  s         
   319     -7.576814  19 C  pz              147     -7.429461   9 C  px        
    56     -6.628297   5 C  s               318      6.350138  19 C  py        

 Vector  182  Occ=0.000000D+00  E= 4.655772D-01
              MO Center= -5.0D-01,  1.1D+00,  2.5D-01, r^2= 2.2D+01
   Bfn.  Coefficient  Atom+Function         Bfn.  Coefficient  Atom+Function  
  ----- ------------  ---------------      ----- ------------  ---------------
   491      6.425568  30 H  s               206      5.136173  13 H  s         
   318     -4.317237  19 C  py              561      4.167887  34 N  s         
   173     -3.613147  11 C  s               459     -3.602260  28 C  s         
    12     -3.551170   2 C  s               367     -3.401936  22 H  s         
   518      3.150537  32 C  px              492      3.045116  30 H  s         

 Vector  183  Occ=0.000000D+00  E= 4.699425D-01
              MO Center= -1.3D-01, -1.7D+00,  5.3D-01, r^2= 2.1D+01
   Bfn.  Coefficient  Atom+Function         Bfn.  Coefficient  Atom+Function  
  ----- ------------  ---------------      ----- ------------  ---------------
   300     13.396311  18 H  s                56    -10.214482   5 C  s         
    13     -6.430043   2 C  s               106      6.217627   7 N  s         
    81      5.987645   6 O  s               387      5.056979  24 C  s         
   317     -4.981795  19 C  px              173     -4.873591  11 C  s         
   206      4.684999  13 H  s               215      4.667156  14 H  s         

 Vector  184  Occ=0.000000D+00  E= 4.740313D-01
              MO Center= -2.7D-01, -1.4D+00,  1.9D-01, r^2= 2.2D+01
   Bfn.  Coefficient  Atom+Function         Bfn.  Coefficient  Atom+Function  
  ----- ------------  ---------------      ----- ------------  ---------------
   173     11.074922  11 C  s               234     -9.875671  15 C  py        
    13     -9.499520   2 C  s               276     -9.169889  17 N  s         
    12     -8.491213   2 C  s               215     -8.245235  14 H  s         
   387      7.932949  24 C  s               318     -7.702460  19 C  py        
   197     -7.319261  12 H  s                45      6.761397   4 H  s         

 Vector  185  Occ=0.000000D+00  E= 4.771564D-01
              MO Center=  5.4D-01,  3.9D-01, -1.3D-02, r^2= 2.0D+01
   Bfn.  Coefficient  Atom+Function         Bfn.  Coefficient  Atom+Function  
  ----- ------------  ---------------      ----- ------------  ---------------
   387     16.927099  24 C  s               511    -13.588165  32 C  s         
   300     -7.539094  18 H  s               343      7.254378  21 C  s         
   367     -7.158099  22 H  s               174      7.113043  11 C  s         
    13      7.049856   2 C  s               561     -6.099395  34 N  s         
   234      5.937447  15 C  py              233      5.895825  15 C  px        

 Vector  186  Occ=0.000000D+00  E= 4.779328D-01
              MO Center=  8.0D-02, -8.1D-02,  8.0D-02, r^2= 2.3D+01
   Bfn.  Coefficient  Atom+Function         Bfn.  Coefficient  Atom+Function  
  ----- ------------  ---------------      ----- ------------  ---------------
   234     22.474079  15 C  py               13     15.942849   2 C  s         
   387    -15.922565  24 C  s               283     10.678685  17 N  px        
   147    -10.169143   9 C  px              317      9.128715  19 C  px        
   233      8.938599  15 C  px              459      8.574127  28 C  s         
   148      8.451283   9 C  py               63     -8.128489   5 C  px        

 Vector  187  Occ=0.000000D+00  E= 4.817102D-01
              MO Center= -6.1D-02,  6.5D-01, -1.8D-01, r^2= 2.3D+01
   Bfn.  Coefficient  Atom+Function         Bfn.  Coefficient  Atom+Function  
  ----- ------------  ---------------      ----- ------------  ---------------
   174     17.696943  11 C  s               511    -15.973008  32 C  s         
   106    -11.965098   7 N  s               276     10.916364  17 N  s         
   352    -10.293285  21 C  py              561     10.267172  34 N  s         
   387     10.078923  24 C  s               149     -8.792507   9 C  pz        
    56     -8.656014   5 C  s               318      8.471873  19 C  py        

 Vector  188  Occ=0.000000D+00  E= 4.859603D-01
              MO Center= -5.1D-01,  1.2D-01, -2.2D-01, r^2= 2.1D+01
   Bfn.  Coefficient  Atom+Function         Bfn.  Coefficient  Atom+Function  
  ----- ------------  ---------------      ----- ------------  ---------------
    56     10.122227   5 C  s               234     -9.764280  15 C  py        
   561     -8.002496  34 N  s               458     -6.516684  28 C  s         
   174     -5.813185  11 C  s               491      5.627525  30 H  s         
   235      5.512880  15 C  pz              518     -5.092587  32 C  px        
   284      4.698868  17 N  py               81     -4.528603   6 O  s         

 Vector  189  Occ=0.000000D+00  E= 4.885133D-01
              MO Center=  5.4D-01, -8.6D-01, -4.5D-01, r^2= 2.2D+01
   Bfn.  Coefficient  Atom+Function         Bfn.  Coefficient  Atom+Function  
  ----- ------------  ---------------      ----- ------------  ---------------
   387     16.321302  24 C  s               174    -13.582509  11 C  s         
   300      9.797971  18 H  s                12     -8.942812   2 C  s         
    63     -8.449350   5 C  px              113     -7.766957   7 N  px        
   226     -7.133631  15 C  s               284     -6.443033  17 N  py        
    36      6.372140   3 H  s               139     -5.744141   9 C  s         

 Vector  190  Occ=0.000000D+00  E= 4.941263D-01
              MO Center= -1.6D-02, -6.2D-01, -7.3D-02, r^2= 2.3D+01
   Bfn.  Coefficient  Atom+Function         Bfn.  Coefficient  Atom+Function  
  ----- ------------  ---------------      ----- ------------  ---------------
   459      8.944891  28 C  s               276      7.762246  17 N  s         
   458      7.454637  28 C  s               197      6.968900  12 H  s         
   500     -6.390539  31 H  s               226     -6.342431  15 C  s         
   333     -5.739472  20 H  s               173     -5.505111  11 C  s         
   367     -5.240592  22 H  s               106      4.834951   7 N  s         

 Vector  191  Occ=0.000000D+00  E= 4.986618D-01
              MO Center=  4.3D-02,  1.7D+00,  4.2D-01, r^2= 1.9D+01
   Bfn.  Coefficient  Atom+Function         Bfn.  Coefficient  Atom+Function  
  ----- ------------  ---------------      ----- ------------  ---------------
   511      9.551498  32 C  s               276     -8.612021  17 N  s         
    13     -8.154483   2 C  s               482     -6.074466  29 H  s         
   387      5.352631  24 C  s               458      5.206662  28 C  s         
    56      4.583544   5 C  s               386      4.574984  24 C  s         
   410     -4.559713  25 H  s               106     -4.479651   7 N  s         

 Vector  192  Occ=0.000000D+00  E= 5.039059D-01
              MO Center=  1.8D-01,  5.3D-01, -2.2D-01, r^2= 2.2D+01
   Bfn.  Coefficient  Atom+Function         Bfn.  Coefficient  Atom+Function  
  ----- ------------  ---------------      ----- ------------  ---------------
   459     11.327733  28 C  s               511    -10.081356  32 C  s         
   458      9.414216  28 C  s               310     -8.132060  19 C  s         
   300      7.569165  18 H  s               226     -7.121545  15 C  s         
   500     -6.572967  31 H  s               387      6.401909  24 C  s         
   482     -6.396869  29 H  s               173     -6.237220  11 C  s         


 center of mass
 --------------
 x =  -0.00377388 y =   0.04421444 z =  -0.00170311

 moments of inertia (a.u.)
 ------------------
        8414.654277209958           0.000000000001          -0.000000000000
           0.000000000001        2735.215471843470           0.000000000000
          -0.000000000000           0.000000000000        8686.598895745670

  Mulliken analysis of the total density
  --------------------------------------

    Atom       Charge   Shell Charges
 -----------   ------   -------------------------------------------------------
    1 H    1     0.88   0.76  0.15 -0.00  0.03 -0.06
    2 C    6     6.17   2.01  0.66  0.24  0.05  2.07  0.99 -0.00  0.06  0.09
    3 H    1     0.84   0.76  0.11 -0.00  0.03 -0.06
    4 H    1     0.98   0.76  0.23  0.01  0.03 -0.05
    5 C    6     5.10   2.01  0.68  0.09  0.06  1.89  0.32 -0.12  0.24 -0.06
    6 O    8     8.77   2.01  0.82  1.00  0.14  2.80  1.87  0.13  0.02 -0.01
    7 N    7     7.36   2.01  0.72  0.82 -0.22  2.45  1.44  0.05  0.05  0.04
    8 H    1     1.07   0.77  0.27 -0.01  0.05 -0.01
    9 C    6     6.58   2.01  0.66  0.18  0.02  1.99  1.51 -0.06  0.14  0.14
   10 H    1     1.17   0.78  0.35  0.03  0.03 -0.02
   11 C    6     5.74   2.01  0.66  0.33  0.17  2.04  0.48 -0.05  0.07  0.03
   12 H    1     0.92   0.77  0.15  0.04  0.03 -0.06
   13 H    1     0.92   0.77  0.19  0.00  0.03 -0.08
   14 H    1     0.95   0.77  0.23  0.00  0.03 -0.08
   15 C    6     4.73   2.01  0.68 -0.03  0.13  1.88  0.04  0.11  0.24 -0.33
   16 O    8     8.86   2.01  0.82  1.03  0.17  2.80  1.87  0.17  0.01 -0.00
   17 N    7     7.52   2.01  0.72  0.93 -0.17  2.45  1.43  0.03  0.05  0.08
   18 H    1     0.84   0.73  0.32 -0.10  0.06 -0.17
   19 C    6     6.22   2.01  0.66  0.15  0.00  2.00  1.19  0.08  0.14 -0.00
   20 H    1     1.08   0.78  0.30 -0.04  0.03  0.01
   21 C    6     6.19   2.01  0.67  0.52  0.02  2.03  0.60 -0.01  0.09  0.25
   22 H    1     0.96   0.78  0.25 -0.01  0.03 -0.09
   23 H    1     0.91   0.78  0.20  0.00  0.03 -0.10
   24 C    6     5.67   2.01  0.66 -0.04 -0.14  1.99  1.16  0.05  0.10 -0.12
   25 H    1     1.18   0.77  0.41 -0.00  0.03 -0.02
   26 H    1     1.09   0.76  0.31 -0.00  0.03 -0.01
   27 S   16    15.45   2.00  2.03  0.86  0.73  0.08  6.00  2.31  1.44  0.10  0.12 -0.21
   28 C    6     5.87   2.01  0.65  0.35 -0.10  2.00  0.91 -0.01  0.07 -0.01
   29 H    1     1.21   0.76  0.46 -0.01  0.03 -0.03
   30 H    1     1.01   0.76  0.23  0.00  0.03 -0.01
   31 H    1     1.11   0.77  0.26  0.04  0.03  0.01
   32 C    6     4.56   2.01  0.68 -0.01  0.10  1.89 -0.13 -0.02  0.24 -0.20
   33 O    8     8.85   2.01  0.82  1.05  0.18  2.79  1.84  0.15  0.01  0.00
   34 N    7     7.31   2.01  0.72  0.82 -0.11  2.47  1.27  0.11  0.04 -0.02
   35 H    1     0.89   0.73  0.17 -0.01  0.06 -0.06
   36 H    1     1.02   0.76  0.23 -0.00  0.05 -0.02

       Multipole analysis of the density wrt the origin
       ------------------------------------------------

     L   x y z        total         open         nuclear
     -   - - -        -----         ----         -------
     0   0 0 0     -0.000000      0.000000    140.000000

     1   1 0 0     -0.623824      0.000000      0.000000
     1   0 1 0     -2.505244      0.000000     -0.000000
     1   0 0 1     -0.486701      0.000000     -0.000000

     2   2 0 0    -84.593135      0.000000    849.436237
     2   1 1 0     -2.331794      0.000000    -20.478494
     2   1 0 1      2.242811      0.000000    -12.215277
     2   0 2 0    -67.333071      0.000000   3964.831601
     2   0 1 1      2.860731      0.000000    -13.905431
     2   0 0 2    -88.027429      0.000000    683.657163


 Task  times  cpu:     4541.3s     wall:     4771.3s


                                NWChem Input Module
                                -------------------


 Summary of allocated global arrays
-----------------------------------
  No active global arrays


MA_summarize_allocated_blocks: starting scan ...
MA_summarize_allocated_blocks: scan completed: 0 heap blocks, 0 stack blocks
MA usage statistics:

	allocation statistics:
					      heap	     stack
					      ----	     -----
	current number of blocks	         0	         0
	maximum number of blocks	        16	        14
	current total bytes		         0	         0
	maximum total bytes		    138096	  33951752
	maximum total K-bytes		       139	     33952
	maximum total M-bytes		         1	        34


                                     CITATION
                                     --------
                Please cite the following reference when publishing
                           results obtained with NWChem:

          E. Apra, E. J. Bylaska, W. A. de Jong, N. Govind, K. Kowalski,
       T. P. Straatsma, M. Valiev, H. J. J. van Dam, Y. Alexeev, J. Anchell,
       V. Anisimov, F. W. Aquino, R. Atta-Fynn, J. Autschbach, N. P. Bauman,
     J. C. Becca, D. E. Bernholdt, K. Bhaskaran-Nair, S. Bogatko, P. Borowski,
         J. Boschen, J. Brabec, A. Bruner, E. Cauet, Y. Chen, G. N. Chuev,
      C. J. Cramer, J. Daily, M. J. O. Deegan, T. H. Dunning Jr., M. Dupuis,
   K. G. Dyall, G. I. Fann, S. A. Fischer, A. Fonari, H. Fruchtl, L. Gagliardi,
      J. Garza, N. Gawande, S. Ghosh, K. Glaesemann, A. W. Gotz, J. Hammond,
       V. Helms, E. D. Hermes, K. Hirao, S. Hirata, M. Jacquelin, L. Jensen,
   B. G. Johnson, H. Jonsson, R. A. Kendall, M. Klemm, R. Kobayashi, V. Konkov,
      S. Krishnamoorthy, M. Krishnan, Z. Lin, R. D. Lins, R. J. Littlefield,
      A. J. Logsdail, K. Lopata, W. Ma, A. V. Marenich, J. Martin del Campo,
   D. Mejia-Rodriguez, J. E. Moore, J. M. Mullin, T. Nakajima, D. R. Nascimento,
    J. A. Nichols, P. J. Nichols, J. Nieplocha, A. Otero-de-la-Roza, B. Palmer,
    A. Panyala, T. Pirojsirikul, B. Peng, R. Peverati, J. Pittner, L. Pollack,
   R. M. Richard, P. Sadayappan, G. C. Schatz, W. A. Shelton, D. W. Silverstein,
   D. M. A. Smith, T. A. Soares, D. Song, M. Swart, H. L. Taylor, G. S. Thomas,
            V. Tipparaju, D. G. Truhlar, K. Tsemekhman, T. Van Voorhis,
      A. Vazquez-Mayagoitia, P. Verma, O. Villa, A. Vishnu, K. D. Vogiatzis,
        D. Wang, J. H. Weare, M. J. Williamson, T. L. Windus, K. Wolinski,
        A. T. Wong, Q. Wu, C. Yang, Q. Yu, M. Zacharias, Z. Zhang, Y. Zhao,
                                and R. J. Harrison
                        "NWChem: Past, present, and future
                         J. Chem. Phys. 152, 184102 (2020)
                               doi:10.1063/5.0004997

                                      AUTHORS
                                      -------
  E. Apra, E. J. Bylaska, N. Govind, K. Kowalski, M. Valiev, D. Mejia-Rodriguez,
       A. Kunitsa, N. P. Bauman, A. Panyala, W. A. de Jong, T. P. Straatsma,
   H. J. J. van Dam, D. Wang, T. L. Windus, J. Hammond, J. Autschbach, A. Woods,
    K. Bhaskaran-Nair, J. Brabec, K. Lopata, S. A. Fischer, S. Krishnamoorthy,
     M. Jacquelin, W. Ma, M. Klemm, O. Villa, Y. Chen, V. Anisimov, F. Aquino,
     S. Hirata, M. T. Hackler, E. Hermes, L. Jensen, J. E. Moore, J. C. Becca,
      V. Konjkov, T. Risthaus, M. Malagoli, A. Marenich, A. Otero-de-la-Roza,
        J. Mullin, P. Nichols, R. Peverati, J. Pittner, Y. Zhao, P.-D. Fan,
        A. Fonari, M. J. Williamson, R. J. Harrison, J. R. Rehr, M. Dupuis,
     D. Silverstein, D. M. A. Smith, J. Nieplocha, V. Tipparaju, M. Krishnan,
     B. E. Van Kuiken, A. Vazquez-Mayagoitia, M. Swart, Q. Wu, T. Van Voorhis,
     A. A. Auer, M. Nooijen, L. D. Crosby, E. Brown, G. Cisneros, G. I. Fann,
   H. Fruchtl, J. Garza, K. Hirao, R. A. Kendall, J. A. Nichols, K. Tsemekhman,
    K. Wolinski, J. Anchell, D. E. Bernholdt, P. Borowski, T. Clark, D. Clerc,
   H. Dachsel, M. J. O. Deegan, K. Dyall, D. Elwood, E. Glendening, M. Gutowski,
   A. C. Hess, J. Jaffe, B. G. Johnson, J. Ju, R. Kobayashi, R. Kutteh, Z. Lin,
   R. Littlefield, X. Long, B. Meng, T. Nakajima, S. Niu, L. Pollack, M. Rosing,
   K. Glaesemann, G. Sandrone, M. Stave, H. Taylor, G. Thomas, J. H. van Lenthe,
                               A. T. Wong, Z. Zhang.

 Total times  cpu:     4541.3s     wall:     4771.7s
