export TMOUT=5400
export TMPDIR=/tmp
export PTMPDIR=/tmp/ptmp
 argument  1 = ALA_THR_0.nw
                                         
                                         


             Northwest Computational Chemistry Package (NWChem) 7.2.0
             --------------------------------------------------------


                    Environmental Molecular Sciences Laboratory
                       Pacific Northwest National Laboratory
                                Richland, WA 99352

                              Copyright (c) 1994-2022
                       Pacific Northwest National Laboratory
                            Battelle Memorial Institute

             NWChem is an open-source computational chemistry package
                        distributed under the terms of the
                      Educational Community License (ECL) 2.0
             A copy of the license is included with this distribution
                              in the LICENSE.TXT file

                                  ACKNOWLEDGMENT
                                  --------------

            This software and its documentation were developed at the
            EMSL at Pacific Northwest National Laboratory, a multiprogram
            national laboratory, operated for the U.S. Department of Energy
            by Battelle under Contract Number DE-AC05-76RL01830. Support
            for this work was provided by the Department of Energy Office
            of Biological and Environmental Research, Office of Basic
            Energy Sciences, and the Office of Advanced Scientific Computing.


           Job information
           ---------------

    hostname        = nova18-41
    program         = /opt/rit/el9/20230413/app/linux-rhel9-x86_64_v3/gcc-11.2.1/nwchem-7.2.0-oxtctbuhfuzyfaoziquq6bki22grib3g/bin/nwchem
    date            = Mon Jun 30 09:31:52 2025

    compiled        = Wed_May_17_23:46:39_2023
    source          = /tmp/root/spack-stage/spack-stage-nwchem-7.2.0-oxtctbuhfuzyfaoziquq6bki22grib3g/spack-src
    nwchem branch   = 7.2.0
    nwchem revision = d0d141fd
    ga revision     = 5.8.0
    use scalapack   = T
    input           = ALA_THR_0.nw
    prefix          = ALA_THR_0.
    data base       = ./ALA_THR_0.db
    status          = startup
    nproc           =        8
    time left       =     -1s



           Memory information
           ------------------

    heap     =   26214396 doubles =    200.0 Mbytes
    stack    =   26214401 doubles =    200.0 Mbytes
    global   =   52428800 doubles =    400.0 Mbytes (distinct from heap & stack)
    total    =  104857597 doubles =    800.0 Mbytes
    verify   = yes
    hardfail = no 


           Directory information
           ---------------------

  0 permanent = .
  0 scratch   = .




                                NWChem Input Module
                                -------------------



 Scaling coordinates for geometry "geometry" by  1.889725989
 (inverse scale =  0.529177249)

 C1  symmetry detected

          ------
          auto-z
          ------
  no constraints, skipping    0.0000000000000000     
  no constraints, skipping    0.0000000000000000     


                             Geometry "geometry" -> ""
                             -------------------------

 Output coordinates in angstroms (scale by  1.889725989 to convert to a.u.)

  No.       Tag          Charge          X              Y              Z
 ---- ---------------- ---------- -------------- -------------- --------------
    1 H                    1.0000    -1.75328887     4.76119585     1.31719755
    2 C                    6.0000    -0.73279764     4.60538161     0.97171012
    3 H                    1.0000    -0.06217946     4.55770968     1.82873967
    4 H                    1.0000    -0.44118960     5.42114558     0.31355824
    5 C                    6.0000    -0.66603905     3.30096301     0.21435855
    6 O                    8.0000    -1.66994047     2.61227186     0.08084658
    7 N                    7.0000     0.51772747     2.95789069    -0.28839806
    8 H                    1.0000     1.30903829     3.55222891    -0.11024571
    9 C                    6.0000     0.74883970     1.67982206    -0.95884994
   10 H                    1.0000    -0.03678867     1.53785158    -1.70383749
   11 C                    6.0000     2.09565183     1.73463894    -1.69030135
   12 H                    1.0000     2.90424013     1.88023681    -0.97312897
   13 H                    1.0000     2.26016992     0.79863880    -2.22583337
   14 H                    1.0000     2.09482064     2.55610938    -2.40804966
   15 C                    6.0000     0.68488907     0.50430655     0.03541491
   16 O                    8.0000     1.31873512     0.53689509     1.09110766
   17 N                    7.0000    -0.04348578    -0.55720327    -0.31787957
   18 H                    1.0000    -0.54464762    -0.52642557    -1.19455941
   19 C                    6.0000    -0.26756387    -1.75511648     0.51281408
   20 H                    1.0000    -0.41470580    -1.43275195     1.54347376
   21 C                    6.0000    -1.55061085    -2.47990530     0.06723848
   22 H                    1.0000    -1.69205175    -3.36581800     0.68711521
   23 C                    6.0000    -2.79794193    -1.60418643     0.19126933
   24 H                    1.0000    -2.73455698    -0.74598215    -0.47756156
   25 H                    1.0000    -3.67693376    -2.19339150    -0.07343758
   26 H                    1.0000    -2.90230676    -1.25468669     1.21864264
   27 O                    8.0000    -1.43183822    -2.87376166    -1.27942452
   28 H                    1.0000    -0.74915460    -3.55908449    -1.29407712
   29 C                    6.0000     0.94144833    -2.70714252     0.51452057
   30 O                    8.0000     0.84928713    -3.86368025     0.11368793
   31 N                    7.0000     2.11002179    -2.23471509     0.92275262
   32 H                    1.0000     2.17511598    -1.26989354     1.22252940
   33 H                    1.0000     2.90937266    -2.84525790     0.91535966

      Atomic Mass 
      ----------- 

      H                  1.007825
      C                 12.000000
      O                 15.994910
      N                 14.003070


 Effective nuclear repulsion energy (a.u.)    1199.0953144429

            Nuclear Dipole moment (a.u.) 
            ----------------------------
        X                 Y               Z
 ---------------- ---------------- ----------------
     0.0000000000     0.0000000000    -0.0000000000



                                Z-matrix (autoz)
                                -------- 

 Units are Angstrom for bonds and degrees for angles

      Type          Name      I     J     K     L     M      Value
      ----------- --------  ----- ----- ----- ----- ----- ----------
    1 Stretch                  1     2                       1.08860
    2 Stretch                  2     3                       1.08927
    3 Stretch                  2     4                       1.08797
    4 Stretch                  2     5                       1.50982
    5 Stretch                  5     6                       1.22472
    6 Stretch                  5     7                       1.33108
    7 Stretch                  7     8                       1.00556
    8 Stretch                  7     9                       1.46164
    9 Stretch                  9    10                       1.09196
   10 Stretch                  9    11                       1.53360
   11 Stretch                  9    15                       1.54094
   12 Stretch                 11    12                       1.09057
   13 Stretch                 11    13                       1.09085
   14 Stretch                 11    14                       1.09086
   15 Stretch                 15    16                       1.23179
   16 Stretch                 15    17                       1.33497
   17 Stretch                 17    18                       1.01029
   18 Stretch                 17    19                       1.47488
   19 Stretch                 19    20                       1.08988
   20 Stretch                 19    21                       1.53950
   21 Stretch                 19    29                       1.53885
   22 Stretch                 21    22                       1.09046
   23 Stretch                 21    23                       1.52909
   24 Stretch                 21    27                       1.40809
   25 Stretch                 23    24                       1.08989
   26 Stretch                 23    25                       1.09081
   27 Stretch                 23    26                       1.09020
   28 Stretch                 27    28                       0.96744
   29 Stretch                 29    30                       1.22749
   30 Stretch                 29    31                       1.32492
   31 Stretch                 31    32                       1.01241
   32 Stretch                 31    33                       1.00587
   33 Bend                     1     2     3               109.49367
   34 Bend                     1     2     4               109.62902
   35 Bend                     1     2     5               108.92375
   36 Bend                     2     5     6               120.28259
   37 Bend                     2     5     7               116.83768
   38 Bend                     3     2     4               110.10624
   39 Bend                     3     2     5               109.24676
   40 Bend                     4     2     5               109.42073
   41 Bend                     5     7     8               118.72397
   42 Bend                     5     7     9               122.63223
   43 Bend                     6     5     7               122.87944
   44 Bend                     7     9    10               108.23240
   45 Bend                     7     9    11               109.04937
   46 Bend                     7     9    15               111.37801
   47 Bend                     8     7     9               118.27210
   48 Bend                     9    11    12               110.01426
   49 Bend                     9    11    13               109.62891
   50 Bend                     9    11    14               109.88081
   51 Bend                     9    15    16               120.76063
   52 Bend                     9    15    17               117.28875
   53 Bend                    10     9    11               108.12471
   54 Bend                    10     9    15               108.12967
   55 Bend                    11     9    15               111.80559
   56 Bend                    12    11    13               109.00039
   57 Bend                    12    11    14               109.43355
   58 Bend                    13    11    14               108.85954
   59 Bend                    15    17    18               118.42961
   60 Bend                    15    17    19               125.42760
   61 Bend                    16    15    17               121.91122
   62 Bend                    17    19    20               108.23422
   63 Bend                    17    19    21               110.24235
   64 Bend                    17    19    29               112.56571
   65 Bend                    18    17    19               115.98411
   66 Bend                    19    21    22               109.02969
   67 Bend                    19    21    23               112.75208
   68 Bend                    19    21    27               109.76652
   69 Bend                    19    29    30               121.57054
   70 Bend                    19    29    31               118.20931
   71 Bend                    20    19    21               107.48386
   72 Bend                    20    19    29               106.73881
   73 Bend                    21    19    29               111.33624
   74 Bend                    21    23    24               110.71647
   75 Bend                    21    23    25               109.16564
   76 Bend                    21    23    26               109.76301
   77 Bend                    21    27    28               105.79223
   78 Bend                    22    21    23               108.26207
   79 Bend                    22    21    27               109.10830
   80 Bend                    23    21    27               107.85290
   81 Bend                    24    23    25               108.86107
   82 Bend                    24    23    26               109.35590
   83 Bend                    25    23    26               108.94798
   84 Bend                    29    31    32               119.19294
   85 Bend                    29    31    33               118.83009
   86 Bend                    30    29    31               120.18513
   87 Bend                    32    31    33               121.97342
   88 Torsion                  1     2     5     6          -0.21248
   89 Torsion                  1     2     5     7         179.59691
   90 Torsion                  2     5     7     8           2.59010
   91 Torsion                  2     5     7     9         175.46478
   92 Torsion                  3     2     5     6         119.34900
   93 Torsion                  3     2     5     7         -60.84162
   94 Torsion                  4     2     5     6        -120.04191
   95 Torsion                  4     2     5     7          59.76748
   96 Torsion                  5     7     9    10          49.69898
   97 Torsion                  5     7     9    11         167.10208
   98 Torsion                  5     7     9    15         -69.03686
   99 Torsion                  6     5     7     8        -177.60590
  100 Torsion                  6     5     7     9          -4.73123
  101 Torsion                  7     9    11    12          62.29963
  102 Torsion                  7     9    11    13        -177.84646
  103 Torsion                  7     9    11    14         -58.24829
  104 Torsion                  7     9    15    16         -49.34468
  105 Torsion                  7     9    15    17         132.89551
  106 Torsion                  8     7     9    10        -137.39575
  107 Torsion                  8     7     9    11         -19.99264
  108 Torsion                  8     7     9    15         103.86842
  109 Torsion                  9    15    17    18          -2.43268
  110 Torsion                  9    15    17    19        -177.65679
  111 Torsion                 10     9    11    12         179.77084
  112 Torsion                 10     9    11    13         -60.37524
  113 Torsion                 10     9    11    14          59.22293
  114 Torsion                 10     9    15    16        -168.14196
  115 Torsion                 10     9    15    17          14.09822
  116 Torsion                 11     9    15    16          72.93984
  117 Torsion                 11     9    15    17        -104.81998
  118 Torsion                 12    11     9    15         -61.30802
  119 Torsion                 13    11     9    15          58.54589
  120 Torsion                 14    11     9    15         178.14406
  121 Torsion                 15    17    19    20          39.96403
  122 Torsion                 15    17    19    21         157.26294
  123 Torsion                 15    17    19    29         -77.76433
  124 Torsion                 16    15    17    18         179.83508
  125 Torsion                 16    15    17    19           4.61096
  126 Torsion                 17    19    21    22         179.47930
  127 Torsion                 17    19    21    23         -60.24937
  128 Torsion                 17    19    21    27          60.01333
  129 Torsion                 17    19    29    30        -119.87042
  130 Torsion                 17    19    29    31          57.98024
  131 Torsion                 18    17    19    20        -135.36399
  132 Torsion                 18    17    19    21         -18.06508
  133 Torsion                 18    17    19    29         106.90765
  134 Torsion                 19    21    23    24          63.98104
  135 Torsion                 19    21    23    25        -176.19411
  136 Torsion                 19    21    23    26         -56.84328
  137 Torsion                 19    21    27    28          67.79305
  138 Torsion                 19    29    31    32           0.18427
  139 Torsion                 19    29    31    33        -179.14457
  140 Torsion                 20    19    21    22         -62.75796
  141 Torsion                 20    19    21    23          57.51338
  142 Torsion                 20    19    21    27         177.77607
  143 Torsion                 20    19    29    30         121.52139
  144 Torsion                 20    19    29    31         -60.62795
  145 Torsion                 21    19    29    30           4.50191
  146 Torsion                 21    19    29    31        -177.64742
  147 Torsion                 22    21    19    29          53.80729
  148 Torsion                 22    21    23    24        -175.30774
  149 Torsion                 22    21    23    25         -55.48289
  150 Torsion                 22    21    23    26          63.86794
  151 Torsion                 22    21    27    28         -51.62477
  152 Torsion                 23    21    19    29         174.07862
  153 Torsion                 23    21    27    28        -169.01172
  154 Torsion                 24    23    21    27         -57.37475
  155 Torsion                 25    23    21    27          62.45010
  156 Torsion                 26    23    21    27        -178.19907
  157 Torsion                 27    21    19    29         -65.65868
  158 Torsion                 30    29    31    32         178.06580
  159 Torsion                 30    29    31    33          -1.26303


            XYZ format geometry
            -------------------
    33
 geometry
 H                    -1.75328887     4.76119585     1.31719755
 C                    -0.73279764     4.60538161     0.97171012
 H                    -0.06217946     4.55770968     1.82873967
 H                    -0.44118960     5.42114558     0.31355824
 C                    -0.66603905     3.30096301     0.21435855
 O                    -1.66994047     2.61227186     0.08084658
 N                     0.51772747     2.95789069    -0.28839806
 H                     1.30903829     3.55222891    -0.11024571
 C                     0.74883970     1.67982206    -0.95884994
 H                    -0.03678867     1.53785158    -1.70383749
 C                     2.09565183     1.73463894    -1.69030135
 H                     2.90424013     1.88023681    -0.97312897
 H                     2.26016992     0.79863880    -2.22583337
 H                     2.09482064     2.55610938    -2.40804966
 C                     0.68488907     0.50430655     0.03541491
 O                     1.31873512     0.53689509     1.09110766
 N                    -0.04348578    -0.55720327    -0.31787957
 H                    -0.54464762    -0.52642557    -1.19455941
 C                    -0.26756387    -1.75511648     0.51281408
 H                    -0.41470580    -1.43275195     1.54347376
 C                    -1.55061085    -2.47990530     0.06723848
 H                    -1.69205175    -3.36581800     0.68711521
 C                    -2.79794193    -1.60418643     0.19126933
 H                    -2.73455698    -0.74598215    -0.47756156
 H                    -3.67693376    -2.19339150    -0.07343758
 H                    -2.90230676    -1.25468669     1.21864264
 O                    -1.43183822    -2.87376166    -1.27942452
 H                    -0.74915460    -3.55908449    -1.29407712
 C                     0.94144833    -2.70714252     0.51452057
 O                     0.84928713    -3.86368025     0.11368793
 N                     2.11002179    -2.23471509     0.92275262
 H                     2.17511598    -1.26989354     1.22252940
 H                     2.90937266    -2.84525790     0.91535966

 ==============================================================================
                                internuclear distances
 ------------------------------------------------------------------------------
       center one      |      center two      | atomic units |  angstroms
 ------------------------------------------------------------------------------
    2 C                |   1 H                |     2.05715  |     1.08860
    3 H                |   2 C                |     2.05841  |     1.08927
    4 H                |   2 C                |     2.05596  |     1.08797
    5 C                |   2 C                |     2.85314  |     1.50982
    6 O                |   5 C                |     2.31439  |     1.22472
    7 N                |   5 C                |     2.51537  |     1.33108
    8 H                |   7 N                |     1.90023  |     1.00556
    9 C                |   7 N                |     2.76209  |     1.46164
   10 H                |   9 C                |     2.06350  |     1.09196
   11 C                |   9 C                |     2.89808  |     1.53360
   12 H                |  11 C                |     2.06088  |     1.09057
   13 H                |  11 C                |     2.06141  |     1.09085
   14 H                |  11 C                |     2.06143  |     1.09086
   15 C                |   9 C                |     2.91195  |     1.54094
   16 O                |  15 C                |     2.32775  |     1.23179
   17 N                |  15 C                |     2.52273  |     1.33497
   18 H                |  17 N                |     1.90916  |     1.01029
   19 C                |  17 N                |     2.78711  |     1.47488
   20 H                |  19 C                |     2.05957  |     1.08988
   21 C                |  19 C                |     2.90924  |     1.53950
   22 H                |  21 C                |     2.06066  |     1.09046
   23 C                |  21 C                |     2.88955  |     1.52909
   24 H                |  23 C                |     2.05960  |     1.08989
   25 H                |  23 C                |     2.06133  |     1.09081
   26 H                |  23 C                |     2.06018  |     1.09020
   27 O                |  21 C                |     2.66091  |     1.40809
   28 H                |  27 O                |     1.82820  |     0.96744
   29 C                |  19 C                |     2.90801  |     1.53885
   30 O                |  29 C                |     2.31963  |     1.22749
   31 N                |  29 C                |     2.50373  |     1.32492
   32 H                |  31 N                |     1.91319  |     1.01241
   33 H                |  31 N                |     1.90082  |     1.00587
 ------------------------------------------------------------------------------
                         number of included internuclear distances:         32
 ==============================================================================



 ==============================================================================
                                 internuclear angles
 ------------------------------------------------------------------------------
        center 1       |       center 2       |       center 3       |  degrees
 ------------------------------------------------------------------------------
    1 H                |   2 C                |   3 H                |   109.49
    1 H                |   2 C                |   4 H                |   109.63
    1 H                |   2 C                |   5 C                |   108.92
    3 H                |   2 C                |   4 H                |   110.11
    3 H                |   2 C                |   5 C                |   109.25
    4 H                |   2 C                |   5 C                |   109.42
    2 C                |   5 C                |   6 O                |   120.28
    2 C                |   5 C                |   7 N                |   116.84
    6 O                |   5 C                |   7 N                |   122.88
    5 C                |   7 N                |   8 H                |   118.72
    5 C                |   7 N                |   9 C                |   122.63
    8 H                |   7 N                |   9 C                |   118.27
    7 N                |   9 C                |  10 H                |   108.23
    7 N                |   9 C                |  11 C                |   109.05
    7 N                |   9 C                |  15 C                |   111.38
   10 H                |   9 C                |  11 C                |   108.12
   10 H                |   9 C                |  15 C                |   108.13
   11 C                |   9 C                |  15 C                |   111.81
    9 C                |  11 C                |  12 H                |   110.01
    9 C                |  11 C                |  13 H                |   109.63
    9 C                |  11 C                |  14 H                |   109.88
   12 H                |  11 C                |  13 H                |   109.00
   12 H                |  11 C                |  14 H                |   109.43
   13 H                |  11 C                |  14 H                |   108.86
    9 C                |  15 C                |  16 O                |   120.76
    9 C                |  15 C                |  17 N                |   117.29
   16 O                |  15 C                |  17 N                |   121.91
   15 C                |  17 N                |  18 H                |   118.43
   15 C                |  17 N                |  19 C                |   125.43
   18 H                |  17 N                |  19 C                |   115.98
   17 N                |  19 C                |  20 H                |   108.23
   17 N                |  19 C                |  21 C                |   110.24
   17 N                |  19 C                |  29 C                |   112.57
   20 H                |  19 C                |  21 C                |   107.48
   20 H                |  19 C                |  29 C                |   106.74
   21 C                |  19 C                |  29 C                |   111.34
   19 C                |  21 C                |  22 H                |   109.03
   19 C                |  21 C                |  23 C                |   112.75
   19 C                |  21 C                |  27 O                |   109.77
   22 H                |  21 C                |  23 C                |   108.26
   22 H                |  21 C                |  27 O                |   109.11
   23 C                |  21 C                |  27 O                |   107.85
   21 C                |  23 C                |  24 H                |   110.72
   21 C                |  23 C                |  25 H                |   109.17
   21 C                |  23 C                |  26 H                |   109.76
   24 H                |  23 C                |  25 H                |   108.86
   24 H                |  23 C                |  26 H                |   109.36
   25 H                |  23 C                |  26 H                |   108.95
   21 C                |  27 O                |  28 H                |   105.79
   19 C                |  29 C                |  30 O                |   121.57
   19 C                |  29 C                |  31 N                |   118.21
   30 O                |  29 C                |  31 N                |   120.19
   29 C                |  31 N                |  32 H                |   119.19
   29 C                |  31 N                |  33 H                |   118.83
   32 H                |  31 N                |  33 H                |   121.97
 ------------------------------------------------------------------------------
                            number of included internuclear angles:         55
 ==============================================================================



  library name resolved from: environment
  library file name is: </opt/rit/el9/20230413/app/linux-rhel9-x86_64_v3/gcc-11.2.1/nwchem-7.2.0-oxtctbuhfuzyfaoziquq6bki22grib3g/share/nwchem/libraries/>
  


 Summary of "ao basis" -> "" (cartesian)
 ------------------------------------------------------------------------------
       Tag                 Description            Shells   Functions and Types
 ---------------- ------------------------------  ------  ---------------------
 *                        aug-cc-pvdz                 on all atoms 


                      Basis "ao basis" -> "ao basis" (cartesian)
                      -----
  H (Hydrogen)
  ------------
            Exponent  Coefficients 
       -------------- ---------------------------------------------------------
  1 S  1.30100000E+01  0.019685
  1 S  1.96200000E+00  0.137977
  1 S  4.44600000E-01  0.478148

  2 S  1.22000000E-01  1.000000

  3 S  2.97400000E-02  1.000000

  4 P  7.27000000E-01  1.000000

  5 P  1.41000000E-01  1.000000

  C (Carbon)
  ----------
            Exponent  Coefficients 
       -------------- ---------------------------------------------------------
  1 S  6.66500000E+03  0.000692
  1 S  1.00000000E+03  0.005329
  1 S  2.28000000E+02  0.027077
  1 S  6.47100000E+01  0.101718
  1 S  2.10600000E+01  0.274740
  1 S  7.49500000E+00  0.448564
  1 S  2.79700000E+00  0.285074
  1 S  5.21500000E-01  0.015204

  2 S  6.66500000E+03 -0.000146
  2 S  1.00000000E+03 -0.001154
  2 S  2.28000000E+02 -0.005725
  2 S  6.47100000E+01 -0.023312
  2 S  2.10600000E+01 -0.063955
  2 S  7.49500000E+00 -0.149981
  2 S  2.79700000E+00 -0.127262
  2 S  5.21500000E-01  0.544529

  3 S  1.59600000E-01  1.000000

  4 S  4.69000000E-02  1.000000

  5 P  9.43900000E+00  0.038109
  5 P  2.00200000E+00  0.209480
  5 P  5.45600000E-01  0.508557

  6 P  1.51700000E-01  1.000000

  7 P  4.04100000E-02  1.000000

  8 D  5.50000000E-01  1.000000

  9 D  1.51000000E-01  1.000000

  O (Oxygen)
  ----------
            Exponent  Coefficients 
       -------------- ---------------------------------------------------------
  1 S  1.17200000E+04  0.000710
  1 S  1.75900000E+03  0.005470
  1 S  4.00800000E+02  0.027837
  1 S  1.13700000E+02  0.104800
  1 S  3.70300000E+01  0.283062
  1 S  1.32700000E+01  0.448719
  1 S  5.02500000E+00  0.270952
  1 S  1.01300000E+00  0.015458

  2 S  1.17200000E+04 -0.000160
  2 S  1.75900000E+03 -0.001263
  2 S  4.00800000E+02 -0.006267
  2 S  1.13700000E+02 -0.025716
  2 S  3.70300000E+01 -0.070924
  2 S  1.32700000E+01 -0.165411
  2 S  5.02500000E+00 -0.116955
  2 S  1.01300000E+00  0.557368

  3 S  3.02300000E-01  1.000000

  4 S  7.89600000E-02  1.000000

  5 P  1.77000000E+01  0.043018
  5 P  3.85400000E+00  0.228913
  5 P  1.04600000E+00  0.508728

  6 P  2.75300000E-01  1.000000

  7 P  6.85600000E-02  1.000000

  8 D  1.18500000E+00  1.000000

  9 D  3.32000000E-01  1.000000

  N (Nitrogen)
  ------------
            Exponent  Coefficients 
       -------------- ---------------------------------------------------------
  1 S  9.04600000E+03  0.000700
  1 S  1.35700000E+03  0.005389
  1 S  3.09300000E+02  0.027406
  1 S  8.77300000E+01  0.103207
  1 S  2.85600000E+01  0.278723
  1 S  1.02100000E+01  0.448540
  1 S  3.83800000E+00  0.278238
  1 S  7.46600000E-01  0.015440

  2 S  9.04600000E+03 -0.000153
  2 S  1.35700000E+03 -0.001208
  2 S  3.09300000E+02 -0.005992
  2 S  8.77300000E+01 -0.024544
  2 S  2.85600000E+01 -0.067459
  2 S  1.02100000E+01 -0.158078
  2 S  3.83800000E+00 -0.121831
  2 S  7.46600000E-01  0.549003

  3 S  2.24800000E-01  1.000000

  4 S  6.12400000E-02  1.000000

  5 P  1.35500000E+01  0.039919
  5 P  2.91700000E+00  0.217169
  5 P  7.97300000E-01  0.510319

  6 P  2.18500000E-01  1.000000

  7 P  5.61100000E-02  1.000000

  8 D  8.17000000E-01  1.000000

  9 D  2.30000000E-01  1.000000



 Summary of "ao basis" -> "ao basis" (cartesian)
 ------------------------------------------------------------------------------
       Tag                 Description            Shells   Functions and Types
 ---------------- ------------------------------  ------  ---------------------
 H                        aug-cc-pvdz                5        9   3s2p
 C                        aug-cc-pvdz                9       25   4s3p2d
 O                        aug-cc-pvdz                9       25   4s3p2d
 N                        aug-cc-pvdz                9       25   4s3p2d


                                 NWChem SCF Module
                                 -----------------



  ao basis        = "ao basis"
  functions       =   553
  atoms           =    33
  closed shells   =    62
  open shells     =     0
  charge          =   0.00
  wavefunction    = RHF 
  input vectors   = atomic
  output vectors  = ./ALA_THR_0.movecs
  use symmetry    = F
  symmetry adapt  = F


 Summary of "ao basis" -> "ao basis" (cartesian)
 ------------------------------------------------------------------------------
       Tag                 Description            Shells   Functions and Types
 ---------------- ------------------------------  ------  ---------------------
 H                        aug-cc-pvdz                5        9   3s2p
 C                        aug-cc-pvdz                9       25   4s3p2d
 O                        aug-cc-pvdz                9       25   4s3p2d
 N                        aug-cc-pvdz                9       25   4s3p2d



 Forming initial guess at       2.2s


 !! The overlap matrix has   3 vectors deemed linearly dependent with
    eigenvalues:
 2.84D-06 3.66D-06 7.05D-06


      Superposition of Atomic Density Guess
      -------------------------------------

 Sum of atomic energies:        -809.46727949

      Non-variational initial energy
      ------------------------------

 Total energy =    -819.638457
 1-e energy   =   -3483.445573
 2-e energy   =    1464.711802
 HOMO         =      -0.310400
 LUMO         =       0.010316


 Starting SCF solution at     243.9s



 ----------------------------------------------
         Quadratically convergent ROHF

 Convergence threshold     :          1.000E-04
 Maximum no. of iterations :           30
 Final Fock-matrix accuracy:          1.000E-10
 ----------------------------------------------


              iter       energy          gnorm     gmax       time
             ----- ------------------- --------- --------- --------
                 1     -813.3216802410  2.46D+00  1.94D-01    459.4
                 2     -813.6420442324  8.17D-01  4.83D-02    952.2
                 3     -813.6999659728  6.32D-02  5.64D-03   1690.7
                 4     -813.7005573570  3.68D-03  2.90D-04   2631.1
                 5     -813.7005600107  8.42D-06  6.30D-07   4332.6


       Final RHF  results 
       ------------------ 

         Total SCF energy =   -813.700560010668
      One-electron energy =  -3495.209032288940
      Two-electron energy =   1482.413157835355
 Nuclear repulsion energy =   1199.095314442917

        Time for solution =   4097.9s


             Final eigenvalues
             -----------------

              1      
    1  -20.5604
    2  -20.5431
    3  -20.5311
    4  -20.5306
    5  -15.6145
    6  -15.6085
    7  -15.5877
    8  -11.3737
    9  -11.3616
   10  -11.3603
   11  -11.3115
   12  -11.2995
   13  -11.2949
   14  -11.2582
   15  -11.2470
   16  -11.2225
   17   -1.4065
   18   -1.3945
   19   -1.3897
   20   -1.3665
   21   -1.2572
   22   -1.2538
   23   -1.2177
   24   -1.0798
   25   -1.0494
   26   -1.0009
   27   -0.9764
   28   -0.9044
   29   -0.8386
   30   -0.8286
   31   -0.8049
   32   -0.7869
   33   -0.7417
   34   -0.7358
   35   -0.7078
   36   -0.6882
   37   -0.6799
   38   -0.6783
   39   -0.6569
   40   -0.6360
   41   -0.6233
   42   -0.6157
   43   -0.6048
   44   -0.5944
   45   -0.5873
   46   -0.5762
   47   -0.5714
   48   -0.5529
   49   -0.5515
   50   -0.5421
   51   -0.5336
   52   -0.5322
   53   -0.5277
   54   -0.5190
   55   -0.4867
   56   -0.4526
   57   -0.4471
   58   -0.4422
   59   -0.4279
   60   -0.4118
   61   -0.4074
   62   -0.3980
   63    0.0249
   64    0.0364
   65    0.0392
   66    0.0425
   67    0.0503
   68    0.0541
   69    0.0580
   70    0.0606
   71    0.0623
   72    0.0734

                       ROHF Final Molecular Orbital Analysis
                       -------------------------------------

 Vector   17  Occ=2.000000D+00  E=-1.406483D+00
              MO Center=  7.4D-01,  1.3D-01,  4.8D-01, r^2= 3.7D+00
   Bfn.  Coefficient  Atom+Function         Bfn.  Coefficient  Atom+Function  
  ----- ------------  ---------------      ----- ------------  ---------------
   250      0.327759  16 O  s               249      0.300848  16 O  s         
   224      0.216481  15 C  s         

 Vector   18  Occ=2.000000D+00  E=-1.394463D+00
              MO Center=  2.9D-01, -1.6D+00,  1.5D-01, r^2= 9.2D+00
   Bfn.  Coefficient  Atom+Function         Bfn.  Coefficient  Atom+Function  
  ----- ------------  ---------------      ----- ------------  ---------------
   488      0.308396  30 O  s               487      0.284455  30 O  s         
   462      0.194576  29 C  s                80     -0.172136   6 O  s         
    79     -0.169629   6 O  s         

 Vector   19  Occ=2.000000D+00  E=-1.389689D+00
              MO Center= -4.3D-01,  1.5D+00,  2.2D-01, r^2= 6.8D+00
   Bfn.  Coefficient  Atom+Function         Bfn.  Coefficient  Atom+Function  
  ----- ------------  ---------------      ----- ------------  ---------------
    79      0.286168   6 O  s                80      0.286568   6 O  s         
    54      0.200879   5 C  s               250     -0.176255  16 O  s         
   249     -0.166549  16 O  s         

 Vector   20  Occ=2.000000D+00  E=-1.366535D+00
              MO Center= -1.1D+00, -2.9D+00, -8.8D-01, r^2= 1.6D+00
   Bfn.  Coefficient  Atom+Function         Bfn.  Coefficient  Atom+Function  
  ----- ------------  ---------------      ----- ------------  ---------------
   429      0.437867  27 O  s               428      0.381048  27 O  s         
   343     -0.240962  21 C  s               314     -0.178687  19 C  px        
   452      0.178663  28 H  s         

 Vector   21  Occ=2.000000D+00  E=-1.257210D+00
              MO Center=  2.2D-01,  1.9D+00, -1.7D-01, r^2= 3.7D+00
   Bfn.  Coefficient  Atom+Function         Bfn.  Coefficient  Atom+Function  
  ----- ------------  ---------------      ----- ------------  ---------------
   105      0.365398   7 N  s               104      0.288634   7 N  s         
    80     -0.191593   6 O  s               275      0.179219  17 N  s         
   250     -0.175802  16 O  s                57      0.164522   5 C  px        
    79     -0.163204   6 O  s               274      0.163774  17 N  s         

 Vector   22  Occ=2.000000D+00  E=-1.253775D+00
              MO Center=  1.6D-01,  2.7D-01, -1.0D-01, r^2= 4.3D+00
   Bfn.  Coefficient  Atom+Function         Bfn.  Coefficient  Atom+Function  
  ----- ------------  ---------------      ----- ------------  ---------------
   275      0.326578  17 N  s               274      0.296894  17 N  s         
   105     -0.217068   7 N  s               309     -0.188702  19 C  s         
   104     -0.182131   7 N  s               250     -0.164174  16 O  s         

 Vector   23  Occ=2.000000D+00  E=-1.217653D+00
              MO Center=  1.7D+00, -2.3D+00,  7.3D-01, r^2= 1.7D+00
   Bfn.  Coefficient  Atom+Function         Bfn.  Coefficient  Atom+Function  
  ----- ------------  ---------------      ----- ------------  ---------------
   513      0.399249  31 N  s               512      0.366168  31 N  s         
   488     -0.202506  30 O  s               487     -0.170511  30 O  s         
   536      0.161612  32 H  s               545      0.156384  33 H  s         

 Vector   24  Occ=2.000000D+00  E=-1.079838D+00
              MO Center=  4.7D-01,  1.2D+00, -5.0D-01, r^2= 6.6D+00
   Bfn.  Coefficient  Atom+Function         Bfn.  Coefficient  Atom+Function  
  ----- ------------  ---------------      ----- ------------  ---------------
   138      0.220220   9 C  s               172      0.186387  11 C  s         
    12     -0.161328   2 C  s         

 Vector   25  Occ=2.000000D+00  E=-1.049450D+00
              MO Center= -6.6D-01, -7.7D-01, -5.2D-02, r^2= 7.9D+00
   Bfn.  Coefficient  Atom+Function         Bfn.  Coefficient  Atom+Function  
  ----- ------------  ---------------      ----- ------------  ---------------
   342      0.197996  21 C  s               308      0.187121  19 C  s         
   315     -0.185282  19 C  py              348     -0.176088  21 C  px        
   309      0.165723  19 C  s               376      0.165753  23 C  s         
   349      0.151980  21 C  py        

 Vector   26  Occ=2.000000D+00  E=-1.000875D+00
              MO Center= -2.3D-01,  3.7D+00,  3.6D-01, r^2= 5.1D+00
   Bfn.  Coefficient  Atom+Function         Bfn.  Coefficient  Atom+Function  
  ----- ------------  ---------------      ----- ------------  ---------------
    11      0.323289   2 C  s                56     -0.212082   5 C  s         
    13      0.176644   2 C  s               172      0.154545  11 C  s         
    44      0.151042   4 H  s                35      0.150045   3 H  s         

 Vector   27  Occ=2.000000D+00  E=-9.764431D-01
              MO Center= -1.1D+00, -1.5D+00,  1.1D-01, r^2= 5.6D+00
   Bfn.  Coefficient  Atom+Function         Bfn.  Coefficient  Atom+Function  
  ----- ------------  ---------------      ----- ------------  ---------------
   348      0.328117  21 C  px              376     -0.263772  23 C  s         
   308      0.199228  19 C  s               314      0.188323  19 C  px        
   139     -0.164594   9 C  s         

 Vector   28  Occ=2.000000D+00  E=-9.043537D-01
              MO Center=  1.0D+00,  1.2D+00, -7.8D-01, r^2= 6.0D+00
   Bfn.  Coefficient  Atom+Function         Bfn.  Coefficient  Atom+Function  
  ----- ------------  ---------------      ----- ------------  ---------------
   139      0.380644   9 C  s               146      0.330567   9 C  pz        
   225     -0.274073  15 C  s               231     -0.233742  15 C  py        
   172     -0.231715  11 C  s               145     -0.223674   9 C  py        
   138      0.189987   9 C  s               309      0.157817  19 C  s         
   276      0.153733  17 N  s               245     -0.150390  15 C  dyy       

 Vector   29  Occ=2.000000D+00  E=-8.385994D-01
              MO Center=  9.7D-03, -1.6D+00,  2.7D-01, r^2= 6.7D+00
   Bfn.  Coefficient  Atom+Function         Bfn.  Coefficient  Atom+Function  
  ----- ------------  ---------------      ----- ------------  ---------------
   309      0.493636  19 C  s               515     -0.210677  31 N  px        
   468      0.197251  29 C  px              462      0.186737  29 C  s         
   377      0.168534  23 C  s               545     -0.167695  33 H  s         
   344      0.160733  21 C  s               311      0.153428  19 C  px        
   225      0.151921  15 C  s         

 Vector   30  Occ=2.000000D+00  E=-8.285940D-01
              MO Center= -3.4D-01,  6.5D-01, -1.4D-01, r^2= 9.2D+00
   Bfn.  Coefficient  Atom+Function         Bfn.  Coefficient  Atom+Function  
  ----- ------------  ---------------      ----- ------------  ---------------
   107      0.211069   7 N  px              377      0.205448  23 C  s         
   342     -0.155912  21 C  s         

 Vector   31  Occ=2.000000D+00  E=-8.049202D-01
              MO Center=  1.1D-01,  1.5D+00, -2.2D-01, r^2= 6.0D+00
   Bfn.  Coefficient  Atom+Function         Bfn.  Coefficient  Atom+Function  
  ----- ------------  ---------------      ----- ------------  ---------------
   107      0.288183   7 N  px              128      0.261570   8 H  s         
   105      0.188435   7 N  s                55     -0.179693   5 C  s         
   377     -0.173732  23 C  s                54     -0.150426   5 C  s         

 Vector   32  Occ=2.000000D+00  E=-7.868985D-01
              MO Center=  4.7D-01, -1.8D+00,  2.7D-01, r^2= 5.3D+00
   Bfn.  Coefficient  Atom+Function         Bfn.  Coefficient  Atom+Function  
  ----- ------------  ---------------      ----- ------------  ---------------
   309      0.287104  19 C  s               343     -0.248417  21 C  s         
   515      0.210928  31 N  px              225      0.201682  15 C  s         
   463     -0.195170  29 C  s               279      0.188370  17 N  pz        
   314     -0.184872  19 C  px              298     -0.181226  18 H  s         
   536      0.171486  32 H  s               462     -0.170250  29 C  s         

 Vector   33  Occ=2.000000D+00  E=-7.417079D-01
              MO Center=  1.3D+00, -1.7D+00,  6.4D-01, r^2= 4.1D+00
   Bfn.  Coefficient  Atom+Function         Bfn.  Coefficient  Atom+Function  
  ----- ------------  ---------------      ----- ------------  ---------------
   516      0.321081  31 N  py              536      0.267425  32 H  s         
   545     -0.205187  33 H  s               464      0.193044  29 C  s         
   537      0.177375  32 H  s               225     -0.153516  15 C  s         

 Vector   34  Occ=2.000000D+00  E=-7.357914D-01
              MO Center=  3.1D-01,  5.9D-01, -2.9D-01, r^2= 7.0D+00
   Bfn.  Coefficient  Atom+Function         Bfn.  Coefficient  Atom+Function  
  ----- ------------  ---------------      ----- ------------  ---------------
   225      0.344974  15 C  s               145      0.299038   9 C  py        
    55      0.209929   5 C  s               139     -0.200724   9 C  s         
   228     -0.196149  15 C  py              142      0.180677   9 C  py        
   163      0.180975  10 H  s               275     -0.174911  17 N  s         
   315      0.158271  19 C  py              279      0.150544  17 N  pz        

 Vector   35  Occ=2.000000D+00  E=-7.077954D-01
              MO Center= -4.7D-01, -1.7D+00, -2.5D-01, r^2= 6.6D+00
   Bfn.  Coefficient  Atom+Function         Bfn.  Coefficient  Atom+Function  
  ----- ------------  ---------------      ----- ------------  ---------------
   309      0.277255  19 C  s               344      0.266171  21 C  s         
   432     -0.243066  27 O  py              452      0.226264  28 H  s         
   333     -0.221934  20 H  s               347      0.197306  21 C  pz        
   315     -0.178145  19 C  py              431      0.169324  27 O  px        

 Vector   36  Occ=2.000000D+00  E=-6.882314D-01
              MO Center=  9.3D-02,  2.4D+00, -1.1D-01, r^2= 6.9D+00
   Bfn.  Coefficient  Atom+Function         Bfn.  Coefficient  Atom+Function  
  ----- ------------  ---------------      ----- ------------  ---------------
   139      0.231587   9 C  s               145     -0.210844   9 C  py        
   231     -0.200877  15 C  py              108      0.192417   7 N  py        
    56      0.183442   5 C  s               143     -0.184300   9 C  pz        
    58      0.170111   5 C  py               15     -0.166373   2 C  py        
    18     -0.154735   2 C  py              162      0.154397  10 H  s         

 Vector   37  Occ=2.000000D+00  E=-6.799500D-01
              MO Center=  5.1D-01, -1.9D+00,  2.7D-01, r^2= 7.6D+00
   Bfn.  Coefficient  Atom+Function         Bfn.  Coefficient  Atom+Function  
  ----- ------------  ---------------      ----- ------------  ---------------
   515     -0.241127  31 N  px              491     -0.222658  30 O  py        
   465      0.220333  29 C  px              545     -0.202387  33 H  s         
   488      0.188728  30 O  s         

 Vector   38  Occ=2.000000D+00  E=-6.783035D-01
              MO Center= -5.5D-01,  1.1D+00,  6.1D-02, r^2= 9.2D+00
   Bfn.  Coefficient  Atom+Function         Bfn.  Coefficient  Atom+Function  
  ----- ------------  ---------------      ----- ------------  ---------------
    80      0.214417   6 O  s                83     -0.210756   6 O  py        
    57      0.192744   5 C  px               56     -0.188389   5 C  s         
   145     -0.178795   9 C  py               13      0.175730   2 C  s         
   225     -0.174279  15 C  s                82     -0.153861   6 O  px        

 Vector   39  Occ=2.000000D+00  E=-6.569046D-01
              MO Center=  9.8D-02, -4.0D-01,  2.5D-02, r^2= 8.2D+00
   Bfn.  Coefficient  Atom+Function         Bfn.  Coefficient  Atom+Function  
  ----- ------------  ---------------      ----- ------------  ---------------
   278      0.200511  17 N  py              315     -0.187535  19 C  py        
   313      0.180337  19 C  pz              254      0.168530  16 O  pz        

 Vector   40  Occ=2.000000D+00  E=-6.359844D-01
              MO Center= -1.6D-01, -1.0D-01,  1.3D-01, r^2= 9.6D+00
   Bfn.  Coefficient  Atom+Function         Bfn.  Coefficient  Atom+Function  
  ----- ------------  ---------------      ----- ------------  ---------------
   225      0.268105  15 C  s               367     -0.188685  22 H  s         
   254     -0.174921  16 O  pz              139     -0.171765   9 C  s         
   343      0.169758  21 C  s               252     -0.156413  16 O  px        
   250     -0.155058  16 O  s               431      0.151872  27 O  px        

 Vector   41  Occ=2.000000D+00  E=-6.232735D-01
              MO Center= -4.8D-01,  1.4D+00,  2.9D-01, r^2= 1.2D+01
   Bfn.  Coefficient  Atom+Function         Bfn.  Coefficient  Atom+Function  
  ----- ------------  ---------------      ----- ------------  ---------------
   139      0.312587   9 C  s                16      0.191277   2 C  pz        
   225     -0.189206  15 C  s                44     -0.184037   4 H  s         
    59      0.163142   5 C  pz               35      0.161277   3 H  s         
   431      0.158989  27 O  px        

 Vector   42  Occ=2.000000D+00  E=-6.156779D-01
              MO Center=  4.8D-01,  5.9D-01, -3.0D-02, r^2= 9.1D+00
   Bfn.  Coefficient  Atom+Function         Bfn.  Coefficient  Atom+Function  
  ----- ------------  ---------------      ----- ------------  ---------------
   139      0.244011   9 C  s               229      0.211950  15 C  pz        
   252     -0.209498  16 O  px              254     -0.179674  16 O  pz        
   250     -0.165152  16 O  s               177     -0.159323  11 C  pz        
   225     -0.156146  15 C  s               232      0.156271  15 C  pz        
   214      0.151382  14 H  s         

 Vector   43  Occ=2.000000D+00  E=-6.048496D-01
              MO Center=  4.0D-01, -2.5D+00,  1.3D-01, r^2= 6.2D+00
   Bfn.  Coefficient  Atom+Function         Bfn.  Coefficient  Atom+Function  
  ----- ------------  ---------------      ----- ------------  ---------------
   491      0.342741  30 O  py              466     -0.282101  29 C  py        
   488     -0.220131  30 O  s               463      0.202204  29 C  s         
   309     -0.180528  19 C  s               516      0.167664  31 N  py        
   494      0.166048  30 O  py              536      0.157482  32 H  s         

 Vector   44  Occ=2.000000D+00  E=-5.943912D-01
              MO Center= -2.9D-02,  1.8D+00,  1.5D-02, r^2= 8.4D+00
   Bfn.  Coefficient  Atom+Function         Bfn.  Coefficient  Atom+Function  
  ----- ------------  ---------------      ----- ------------  ---------------
    82     -0.234420   6 O  px               58      0.216008   5 C  py        
    16     -0.192231   2 C  pz              206     -0.151216  13 H  s         
   254      0.151794  16 O  pz              227     -0.150369  15 C  px        

 Vector   45  Occ=2.000000D+00  E=-5.872763D-01
              MO Center=  8.0D-01,  1.6D+00, -4.4D-01, r^2= 8.8D+00
   Bfn.  Coefficient  Atom+Function         Bfn.  Coefficient  Atom+Function  
  ----- ------------  ---------------      ----- ------------  ---------------
   205      0.248580  13 H  s               139      0.245185   9 C  s         
   145     -0.225861   9 C  py              225     -0.222977  15 C  s         
   176     -0.195209  11 C  py              206      0.195953  13 H  s         
   177     -0.192067  11 C  pz               14     -0.177837   2 C  px        

 Vector   46  Occ=2.000000D+00  E=-5.762279D-01
              MO Center= -6.8D-01,  3.2D+00,  3.5D-01, r^2= 6.2D+00
   Bfn.  Coefficient  Atom+Function         Bfn.  Coefficient  Atom+Function  
  ----- ------------  ---------------      ----- ------------  ---------------
    82      0.296948   6 O  px                2     -0.269516   1 H  s         
    14      0.257294   2 C  px                1     -0.215407   1 H  s         
    44      0.174733   4 H  s                13      0.170134   2 C  s         
    85      0.167661   6 O  px               58     -0.154717   5 C  py        

 Vector   47  Occ=2.000000D+00  E=-5.713546D-01
              MO Center=  1.9D-01, -1.4D+00, -5.0D-01, r^2= 9.3D+00
   Bfn.  Coefficient  Atom+Function         Bfn.  Coefficient  Atom+Function  
  ----- ------------  ---------------      ----- ------------  ---------------
   433      0.227220  27 O  pz              492      0.199274  30 O  pz        
   214     -0.184423  14 H  s               314     -0.178192  19 C  px        
   517      0.171598  31 N  pz              467      0.167546  29 C  pz        
   176     -0.163016  11 C  py              436      0.162131  27 O  pz        
   215     -0.158139  14 H  s               343     -0.152059  21 C  s         

 Vector   48  Occ=2.000000D+00  E=-5.528959D-01
              MO Center=  1.1D+00,  7.5D-01, -5.0D-01, r^2= 9.9D+00
   Bfn.  Coefficient  Atom+Function         Bfn.  Coefficient  Atom+Function  
  ----- ------------  ---------------      ----- ------------  ---------------
   214      0.232930  14 H  s               215      0.215290  14 H  s         
   163     -0.203508  10 H  s               176      0.197310  11 C  py        
    12     -0.185290   2 C  s                55      0.181601   5 C  s         
   252      0.177265  16 O  px              206     -0.174268  13 H  s         
   197     -0.171439  12 H  s               492      0.169741  30 O  pz        

 Vector   49  Occ=2.000000D+00  E=-5.514722D-01
              MO Center=  1.8D-01,  1.8D+00, -2.3D-01, r^2= 1.1D+01
   Bfn.  Coefficient  Atom+Function         Bfn.  Coefficient  Atom+Function  
  ----- ------------  ---------------      ----- ------------  ---------------
   206      0.254559  13 H  s                 1     -0.201891   1 H  s         
   108     -0.194864   7 N  py               12      0.183366   2 C  s         
   205      0.181684  13 H  s                14      0.176826   2 C  px        
    13      0.164516   2 C  s                16     -0.163567   2 C  pz        
   177     -0.163855  11 C  pz              196     -0.163605  12 H  s         

 Vector   50  Occ=2.000000D+00  E=-5.421355D-01
              MO Center= -7.0D-01, -6.5D-01, -6.9D-02, r^2= 9.4D+00
   Bfn.  Coefficient  Atom+Function         Bfn.  Coefficient  Atom+Function  
  ----- ------------  ---------------      ----- ------------  ---------------
   309      0.293378  19 C  s               381     -0.266020  23 C  pz        
   418     -0.215660  26 H  s               400      0.207445  24 H  s         
   348     -0.183523  21 C  px              419     -0.184144  26 H  s         
   174     -0.158251  11 C  s               343     -0.156824  21 C  s         
   196     -0.154420  12 H  s         

 Vector   51  Occ=2.000000D+00  E=-5.335713D-01
              MO Center= -1.1D+00, -1.5D+00,  8.6D-02, r^2= 7.3D+00
   Bfn.  Coefficient  Atom+Function         Bfn.  Coefficient  Atom+Function  
  ----- ------------  ---------------      ----- ------------  ---------------
   343      0.306310  21 C  s               314      0.249790  19 C  px        
   379      0.219656  23 C  px              433     -0.214182  27 O  pz        
   333     -0.186415  20 H  s               332     -0.172973  20 H  s         
   348      0.167268  21 C  px              490     -0.159314  30 O  px        
   401      0.154280  24 H  s               436     -0.150527  27 O  pz        

 Vector   52  Occ=2.000000D+00  E=-5.321510D-01
              MO Center= -2.0D-01,  7.0D-01, -1.6D-01, r^2= 1.0D+01
   Bfn.  Coefficient  Atom+Function         Bfn.  Coefficient  Atom+Function  
  ----- ------------  ---------------      ----- ------------  ---------------
   141      0.226592   9 C  px              175     -0.210522  11 C  px        
   419      0.201505  26 H  s               418      0.189428  26 H  s         
   381      0.185870  23 C  pz        

 Vector   53  Occ=2.000000D+00  E=-5.276610D-01
              MO Center= -2.0D+00, -1.3D+00, -1.0D-01, r^2= 6.8D+00
   Bfn.  Coefficient  Atom+Function         Bfn.  Coefficient  Atom+Function  
  ----- ------------  ---------------      ----- ------------  ---------------
   409     -0.291243  25 H  s               380      0.267110  23 C  py        
   410     -0.268425  25 H  s               419      0.213276  26 H  s         
   276     -0.199718  17 N  s               314      0.185518  19 C  px        
   464      0.178239  29 C  s               463     -0.176754  29 C  s         
   401      0.167903  24 H  s               418      0.168431  26 H  s         

 Vector   54  Occ=2.000000D+00  E=-5.190104D-01
              MO Center=  6.0D-02,  2.3D+00, -1.1D-01, r^2= 6.2D+00
   Bfn.  Coefficient  Atom+Function         Bfn.  Coefficient  Atom+Function  
  ----- ------------  ---------------      ----- ------------  ---------------
    84      0.217673   6 O  pz              141     -0.203429   9 C  px        
   162      0.188791  10 H  s                59      0.169735   5 C  pz        
   163      0.169506  10 H  s               309      0.170246  19 C  s         
   175      0.167435  11 C  px              178      0.165760  11 C  px        
   253     -0.163782  16 O  py               16     -0.159122   2 C  pz        

 Vector   55  Occ=2.000000D+00  E=-4.866986D-01
              MO Center= -1.6D+00, -2.4D+00, -1.5D-01, r^2= 3.2D+00
   Bfn.  Coefficient  Atom+Function         Bfn.  Coefficient  Atom+Function  
  ----- ------------  ---------------      ----- ------------  ---------------
   344      0.423701  21 C  s               464     -0.302046  29 C  s         
   378     -0.246524  23 C  s               345     -0.236899  21 C  px        
   382      0.232119  23 C  px              367     -0.230236  22 H  s         
   379      0.209822  23 C  px              380     -0.207851  23 C  py        
   366     -0.204323  22 H  s               346      0.199050  21 C  py        

 Vector   56  Occ=2.000000D+00  E=-4.525948D-01
              MO Center=  6.1D-01, -3.0D-01,  3.9D-01, r^2= 6.8D+00
   Bfn.  Coefficient  Atom+Function         Bfn.  Coefficient  Atom+Function  
  ----- ------------  ---------------      ----- ------------  ---------------
   490     -0.272797  30 O  px              252      0.265713  16 O  px        
   253      0.252653  16 O  py              255      0.215236  16 O  px        
   493     -0.215728  30 O  px              256      0.203611  16 O  py        
   254     -0.174459  16 O  pz               84      0.153793   6 O  pz        
   139     -0.152347   9 C  s         

 Vector   57  Occ=2.000000D+00  E=-4.470668D-01
              MO Center= -1.1D+00, -2.3D+00, -4.4D-01, r^2= 3.5D+00
   Bfn.  Coefficient  Atom+Function         Bfn.  Coefficient  Atom+Function  
  ----- ------------  ---------------      ----- ------------  ---------------
   432      0.330595  27 O  py              431      0.322202  27 O  px        
   348     -0.294189  21 C  px              434      0.272824  27 O  px        
   435      0.272720  27 O  py              366      0.200717  22 H  s         
   344     -0.195786  21 C  s               367      0.195135  22 H  s         
   346     -0.170413  21 C  py              377     -0.165888  23 C  s         

 Vector   58  Occ=2.000000D+00  E=-4.421882D-01
              MO Center=  6.3D-01, -7.9D-01,  3.0D-01, r^2= 7.5D+00
   Bfn.  Coefficient  Atom+Function         Bfn.  Coefficient  Atom+Function  
  ----- ------------  ---------------      ----- ------------  ---------------
   253      0.363714  16 O  py              490      0.322020  30 O  px        
   256      0.294419  16 O  py              493      0.259013  30 O  px        
   343     -0.183242  21 C  s               277      0.173850  17 N  px        

 Vector   59  Occ=2.000000D+00  E=-4.279388D-01
              MO Center= -1.2D+00,  2.8D+00,  1.8D-01, r^2= 2.8D+00
   Bfn.  Coefficient  Atom+Function         Bfn.  Coefficient  Atom+Function  
  ----- ------------  ---------------      ----- ------------  ---------------
    13      0.479714   2 C  s                83      0.380262   6 O  py        
    56     -0.360121   5 C  s                84      0.299781   6 O  pz        
    86      0.297313   6 O  py               82     -0.247076   6 O  px        
    87      0.235300   6 O  pz               18      0.226316   2 C  py        
    64     -0.224256   5 C  py               85     -0.207869   6 O  px        

 Vector   60  Occ=2.000000D+00  E=-4.118368D-01
              MO Center=  1.4D+00, -2.5D+00,  5.3D-01, r^2= 4.0D+00
   Bfn.  Coefficient  Atom+Function         Bfn.  Coefficient  Atom+Function  
  ----- ------------  ---------------      ----- ------------  ---------------
   517      0.409014  31 N  pz              520      0.355166  31 N  pz        
   492     -0.339851  30 O  pz              495     -0.267716  30 O  pz        
   344     -0.221082  21 C  s               284     -0.150206  17 N  py        

 Vector   61  Occ=2.000000D+00  E=-4.074333D-01
              MO Center=  9.3D-02,  1.4D+00, -6.4D-02, r^2= 6.9D+00
   Bfn.  Coefficient  Atom+Function         Bfn.  Coefficient  Atom+Function  
  ----- ------------  ---------------      ----- ------------  ---------------
   109      0.322156   7 N  pz              112      0.285022   7 N  pz        
    84     -0.236496   6 O  pz               87     -0.180600   6 O  pz        
   253      0.173404  16 O  py              108     -0.171697   7 N  py        
   111     -0.165037   7 N  py              174      0.159818  11 C  s         
   256      0.154776  16 O  py        

 Vector   62  Occ=2.000000D+00  E=-3.979957D-01
              MO Center=  3.4D-01, -8.2D-01,  1.6D-01, r^2= 6.1D+00
   Bfn.  Coefficient  Atom+Function         Bfn.  Coefficient  Atom+Function  
  ----- ------------  ---------------      ----- ------------  ---------------
   490     -0.265213  30 O  px              277      0.258861  17 N  px        
   280      0.243214  17 N  px              463     -0.222579  29 C  s         
   493     -0.210972  30 O  px              252     -0.205948  16 O  px        
   309      0.194406  19 C  s               278     -0.180618  17 N  py        
   255     -0.172759  16 O  px              377     -0.161885  23 C  s         

 Vector   63  Occ=0.000000D+00  E= 2.489780D-02
              MO Center=  2.2D+00,  4.0D+00, -1.4D+00, r^2= 2.1D+01
   Bfn.  Coefficient  Atom+Function         Bfn.  Coefficient  Atom+Function  
  ----- ------------  ---------------      ----- ------------  ---------------
   464      3.404899  29 C  s               106     -2.556139   7 N  s         
    56      2.410184   5 C  s               216     -2.215406  14 H  s         
   173      2.203864  11 C  s               310      1.910460  19 C  s         
   318      1.876481  19 C  py              233      1.686306  15 C  px        
   234      1.692885  15 C  py              514     -1.631659  31 N  s         

 Vector   64  Occ=0.000000D+00  E= 3.642761D-02
              MO Center=  2.1D+00,  1.8D+00, -4.7D-01, r^2= 3.8D+01
   Bfn.  Coefficient  Atom+Function         Bfn.  Coefficient  Atom+Function  
  ----- ------------  ---------------      ----- ------------  ---------------
    64      3.600471   5 C  py              147     -3.008693   9 C  px        
   149      2.431787   9 C  pz              207      2.371235  13 H  s         
   514      2.122442  31 N  s                12      1.919338   2 C  s         
    65      1.897767   5 C  pz              378     -1.887502  23 C  s         
   174      1.875514  11 C  s                46     -1.732415   4 H  s         

 Vector   65  Occ=0.000000D+00  E= 3.916955D-02
              MO Center=  1.8D+00,  8.5D-01,  4.9D-01, r^2= 3.6D+01
   Bfn.  Coefficient  Atom+Function         Bfn.  Coefficient  Atom+Function  
  ----- ------------  ---------------      ----- ------------  ---------------
   464     -3.509718  29 C  s               378     -3.409454  23 C  s         
   344      3.367395  21 C  s               216     -2.917155  14 H  s         
    64     -2.596816   5 C  py              514      2.228266  31 N  s         
   471     -2.167886  29 C  px               37      2.025465   3 H  s         
    56      2.006982   5 C  s               352      1.610184  21 C  py        

 Vector   66  Occ=0.000000D+00  E= 4.250601D-02
              MO Center= -1.6D+00,  2.9D-01, -6.6D-03, r^2= 3.8D+01
   Bfn.  Coefficient  Atom+Function         Bfn.  Coefficient  Atom+Function  
  ----- ------------  ---------------      ----- ------------  ---------------
   344      5.155432  21 C  s               464     -3.873344  29 C  s         
   147      3.813677   9 C  px              234      3.648370  15 C  py        
   317      3.613320  19 C  px              164      3.317792  10 H  s         
   378     -3.021911  23 C  s               174     -2.763512  11 C  s         
    56     -2.732853   5 C  s               226     -2.691121  15 C  s         

 Vector   67  Occ=0.000000D+00  E= 5.029558D-02
              MO Center= -9.6D-01,  3.3D-01,  7.5D-01, r^2= 4.6D+01
   Bfn.  Coefficient  Atom+Function         Bfn.  Coefficient  Atom+Function  
  ----- ------------  ---------------      ----- ------------  ---------------
   344      4.928432  21 C  s               464     -4.076969  29 C  s         
   317      3.467640  19 C  px              368      2.583721  22 H  s         
   352      2.215175  21 C  py              378     -2.209431  23 C  s         
   130      2.137002   8 H  s               276     -2.147054  17 N  s         
     3     -1.892128   1 H  s               411      1.873794  25 H  s         

 Vector   68  Occ=0.000000D+00  E= 5.410757D-02
              MO Center=  1.3D+00,  1.7D+00,  5.4D-01, r^2= 4.2D+01
   Bfn.  Coefficient  Atom+Function         Bfn.  Coefficient  Atom+Function  
  ----- ------------  ---------------      ----- ------------  ---------------
    56      4.160792   5 C  s                46     -3.438994   4 H  s         
    13     -2.914304   2 C  s                37      2.627811   3 H  s         
   378      2.533687  23 C  s               368     -2.355894  22 H  s         
   234     -2.329381  15 C  py              276      2.076797  17 N  s         
   352     -2.079248  21 C  py              344     -2.005385  21 C  s         

 Vector   69  Occ=0.000000D+00  E= 5.802509D-02
              MO Center= -1.1D+00, -3.9D-01, -2.0D-01, r^2= 4.1D+01
   Bfn.  Coefficient  Atom+Function         Bfn.  Coefficient  Atom+Function  
  ----- ------------  ---------------      ----- ------------  ---------------
    13      3.696411   2 C  s               411     -3.377846  25 H  s         
   334      3.184369  20 H  s               216      2.933734  14 H  s         
   344      2.859809  21 C  s               234      2.590525  15 C  py        
   310      2.534077  19 C  s               174     -2.463068  11 C  s         
   319     -2.422110  19 C  pz              378     -2.000672  23 C  s         

 Vector   70  Occ=0.000000D+00  E= 6.060764D-02
              MO Center= -2.6D-02,  2.5D+00,  5.3D-02, r^2= 3.6D+01
   Bfn.  Coefficient  Atom+Function         Bfn.  Coefficient  Atom+Function  
  ----- ------------  ---------------      ----- ------------  ---------------
    56      5.432365   5 C  s               164     -4.799517  10 H  s         
     3      3.356060   1 H  s               147     -2.885527   9 C  px        
    37     -2.731467   3 H  s               113      2.738360   7 N  px        
   106     -2.538696   7 N  s               198      2.488333  12 H  s         
   148     -2.159072   9 C  py              130     -2.075067   8 H  s         

 Vector   71  Occ=0.000000D+00  E= 6.231668D-02
              MO Center= -5.4D-01, -7.8D-01, -6.3D-01, r^2= 3.9D+01
   Bfn.  Coefficient  Atom+Function         Bfn.  Coefficient  Atom+Function  
  ----- ------------  ---------------      ----- ------------  ---------------
   164      3.668454  10 H  s               368     -3.611449  22 H  s         
   207     -3.489332  13 H  s               344     -3.354700  21 C  s         
   234     -3.270241  15 C  py              352     -2.978139  21 C  py        
   310     -2.948279  19 C  s               402      2.600414  24 H  s         
   378      2.411672  23 C  s               198      2.290596  12 H  s         

 Vector   72  Occ=0.000000D+00  E= 7.337459D-02
              MO Center=  1.1D-01,  1.4D+00,  2.1D-01, r^2= 4.3D+01
   Bfn.  Coefficient  Atom+Function         Bfn.  Coefficient  Atom+Function  
  ----- ------------  ---------------      ----- ------------  ---------------
    56      4.935725   5 C  s               216      4.604095  14 H  s         
   420     -3.175981  26 H  s               464     -3.070828  29 C  s         
    37      3.016451   3 H  s                46     -2.958532   4 H  s         
   344      2.642721  21 C  s               207     -2.500988  13 H  s         
   368      2.491572  22 H  s                13     -2.237945   2 C  s         

 Vector   73  Occ=0.000000D+00  E= 7.400035D-02
              MO Center= -5.1D-01, -2.4D-01,  3.6D-01, r^2= 4.5D+01
   Bfn.  Coefficient  Atom+Function         Bfn.  Coefficient  Atom+Function  
  ----- ------------  ---------------      ----- ------------  ---------------
   164      5.641630  10 H  s               368      5.217284  22 H  s         
   198      4.449222  12 H  s               378     -4.364572  23 C  s         
   352      4.044515  21 C  py              276     -3.795599  17 N  s         
    56      3.374443   5 C  s               234     -3.102649  15 C  py        
   420     -2.837034  26 H  s               149      2.771792   9 C  pz        

 Vector   74  Occ=0.000000D+00  E= 7.699502D-02
              MO Center=  3.3D-01,  3.4D-01, -4.6D-01, r^2= 4.6D+01
   Bfn.  Coefficient  Atom+Function         Bfn.  Coefficient  Atom+Function  
  ----- ------------  ---------------      ----- ------------  ---------------
    13      3.935667   2 C  s               130      3.309727   8 H  s         
   344     -3.274901  21 C  s                 3      3.083610   1 H  s         
   234     -3.098199  15 C  py               46     -2.769325   4 H  s         
   454      2.663713  28 H  s               538     -2.559429  32 H  s         
   368     -2.467875  22 H  s               420      2.335948  26 H  s         

 Vector   75  Occ=0.000000D+00  E= 8.261955D-02
              MO Center=  1.2D-01, -1.6D+00,  2.8D-01, r^2= 3.8D+01
   Bfn.  Coefficient  Atom+Function         Bfn.  Coefficient  Atom+Function  
  ----- ------------  ---------------      ----- ------------  ---------------
   234      4.988790  15 C  py              368     -4.804139  22 H  s         
   164     -4.428574  10 H  s               334      3.804191  20 H  s         
   538      3.753473  32 H  s               344     -3.652105  21 C  s         
    13      3.346754   2 C  s               216      2.949377  14 H  s         
   276      2.744043  17 N  s               454      2.681291  28 H  s         

 Vector   76  Occ=0.000000D+00  E= 8.887892D-02
              MO Center= -1.1D+00, -4.4D-01,  6.0D-01, r^2= 3.6D+01
   Bfn.  Coefficient  Atom+Function         Bfn.  Coefficient  Atom+Function  
  ----- ------------  ---------------      ----- ------------  ---------------
   334      7.980709  20 H  s               402      7.928110  24 H  s         
   420     -7.199753  26 H  s                56      6.881756   5 C  s         
   174     -6.324551  11 C  s               149     -4.324224   9 C  pz        
   319     -4.249101  19 C  pz              538     -3.699439  32 H  s         
    13     -3.589735   2 C  s               387      3.234467  23 C  pz        

 Vector   77  Occ=0.000000D+00  E= 9.303025D-02
              MO Center=  9.1D-01,  1.6D+00,  1.0D-01, r^2= 4.0D+01
   Bfn.  Coefficient  Atom+Function         Bfn.  Coefficient  Atom+Function  
  ----- ------------  ---------------      ----- ------------  ---------------
    56      7.604741   5 C  s                13     -6.667107   2 C  s         
   198      5.745154  12 H  s               130     -4.743764   8 H  s         
   234     -4.382818  15 C  py              538     -4.391454  32 H  s         
   207     -3.861834  13 H  s               344     -3.756967  21 C  s         
     3     -3.363636   1 H  s               226      3.373881  15 C  s         

 Vector   78  Occ=0.000000D+00  E= 9.865129D-02
              MO Center= -8.1D-01,  2.2D+00, -6.6D-01, r^2= 3.2D+01
   Bfn.  Coefficient  Atom+Function         Bfn.  Coefficient  Atom+Function  
  ----- ------------  ---------------      ----- ------------  ---------------
    56     24.936524   5 C  s                13    -19.924814   2 C  s         
   300      7.406734  18 H  s                64      6.970193   5 C  py        
   310     -6.272636  19 C  s                21      5.762509   2 C  py        
    65      5.070966   5 C  pz              106     -4.675904   7 N  s         
   378      4.523992  23 C  s               344     -4.405253  21 C  s         

 Vector   79  Occ=0.000000D+00  E= 1.056940D-01
              MO Center= -1.4D+00, -3.5D-01,  2.3D-01, r^2= 3.8D+01
   Bfn.  Coefficient  Atom+Function         Bfn.  Coefficient  Atom+Function  
  ----- ------------  ---------------      ----- ------------  ---------------
   378      8.151436  23 C  s                13      7.253236   2 C  s         
   402     -6.736813  24 H  s               411      6.420220  25 H  s         
   344     -6.385514  21 C  s               538     -5.737573  32 H  s         
   318     -5.453984  19 C  py              334      5.415481  20 H  s         
   234     -5.325435  15 C  py              310     -5.261052  19 C  s         

 Vector   80  Occ=0.000000D+00  E= 1.159028D-01
              MO Center= -6.3D-01,  9.8D-02, -7.4D-01, r^2= 3.7D+01
   Bfn.  Coefficient  Atom+Function         Bfn.  Coefficient  Atom+Function  
  ----- ------------  ---------------      ----- ------------  ---------------
   344    -21.273700  21 C  s                13     21.076152   2 C  s         
    56    -14.875859   5 C  s               464     11.744245  29 C  s         
   164    -11.356290  10 H  s                64    -10.966118   5 C  py        
   300      9.891692  18 H  s               149     -9.153138   9 C  pz        
   276      8.059293  17 N  s                65     -7.455585   5 C  pz        

 Vector   81  Occ=0.000000D+00  E= 1.214203D-01
              MO Center= -8.3D-02, -1.3D+00,  5.1D-01, r^2= 3.8D+01
   Bfn.  Coefficient  Atom+Function         Bfn.  Coefficient  Atom+Function  
  ----- ------------  ---------------      ----- ------------  ---------------
   344     28.115824  21 C  s               464    -22.451835  29 C  s         
    13     19.013545   2 C  s                56    -18.444265   5 C  s         
   317     12.268393  19 C  px               64    -10.243781   5 C  py        
   226     -9.704413  15 C  s               310      8.695446  19 C  s         
   378     -8.529911  23 C  s               472     -7.535283  29 C  py        

 Vector   82  Occ=0.000000D+00  E= 1.258026D-01
              MO Center=  1.7D+00, -5.3D-01, -8.7D-01, r^2= 2.6D+01
   Bfn.  Coefficient  Atom+Function         Bfn.  Coefficient  Atom+Function  
  ----- ------------  ---------------      ----- ------------  ---------------
   174      9.200222  11 C  s               234     -7.962903  15 C  py        
   318     -7.998936  19 C  py               56      6.525915   5 C  s         
   319      5.441060  19 C  pz              471      5.059831  29 C  px        
   106     -4.624071   7 N  s               226      4.499737  15 C  s         
   464     -4.146183  29 C  s               148      4.088264   9 C  py        

 Vector   83  Occ=0.000000D+00  E= 1.341768D-01
              MO Center=  1.6D+00,  1.1D+00, -1.3D+00, r^2= 2.7D+01
   Bfn.  Coefficient  Atom+Function         Bfn.  Coefficient  Atom+Function  
  ----- ------------  ---------------      ----- ------------  ---------------
    56     16.858469   5 C  s               174    -13.749491  11 C  s         
   149     -9.911549   9 C  pz              464      9.850461  29 C  s         
   318      9.254814  19 C  py              310      9.106014  19 C  s         
   344      7.009992  21 C  s               181      6.916751  11 C  px        
   147      6.273590   9 C  px              514     -6.171092  31 N  s         

 Vector   84  Occ=0.000000D+00  E= 1.388010D-01
              MO Center=  1.0D-01,  2.9D-01,  2.5D-01, r^2= 3.2D+01
   Bfn.  Coefficient  Atom+Function         Bfn.  Coefficient  Atom+Function  
  ----- ------------  ---------------      ----- ------------  ---------------
    13      6.529944   2 C  s               319     -6.009961  19 C  pz        
   514     -5.422964  31 N  s               174     -5.375748  11 C  s         
    65     -4.689662   5 C  pz              149     -4.664981   9 C  pz        
   472      4.595690  29 C  py              464      3.963590  29 C  s         
   473      3.847484  29 C  pz              147      3.758445   9 C  px        

 Vector   85  Occ=0.000000D+00  E= 1.422357D-01
              MO Center=  6.2D-01,  1.6D+00,  3.8D-01, r^2= 2.9D+01
   Bfn.  Coefficient  Atom+Function         Bfn.  Coefficient  Atom+Function  
  ----- ------------  ---------------      ----- ------------  ---------------
    13     13.039631   2 C  s                64    -12.804467   5 C  py        
   174    -12.036722  11 C  s               147      9.393753   9 C  px        
   148     -8.903058   9 C  py              226     -6.292930  15 C  s         
   276      6.133550  17 N  s               149     -6.053655   9 C  pz        
   106      5.691068   7 N  s                65     -5.612947   5 C  pz        

 Vector   86  Occ=0.000000D+00  E= 1.457257D-01
              MO Center=  5.5D-01,  1.2D+00,  9.7D-02, r^2= 3.4D+01
   Bfn.  Coefficient  Atom+Function         Bfn.  Coefficient  Atom+Function  
  ----- ------------  ---------------      ----- ------------  ---------------
   106    -12.110364   7 N  s                56     11.129437   5 C  s         
   514     10.339778  31 N  s               464     -6.858842  29 C  s         
   471     -5.949328  29 C  px              378     -5.585880  23 C  s         
   164     -4.404626  10 H  s               234      4.308145  15 C  py        
   174      4.233993  11 C  s               147     -3.888509   9 C  px        

 Vector   87  Occ=0.000000D+00  E= 1.501574D-01
              MO Center=  5.7D-01,  6.5D-01,  1.6D-01, r^2= 3.4D+01
   Bfn.  Coefficient  Atom+Function         Bfn.  Coefficient  Atom+Function  
  ----- ------------  ---------------      ----- ------------  ---------------
   378     12.923568  23 C  s               344     -9.526866  21 C  s         
   276      8.965249  17 N  s               234      6.836187  15 C  py        
   464      5.669815  29 C  s               300      5.518266  18 H  s         
   334     -5.222657  20 H  s               319      5.152820  19 C  pz        
   514     -5.102757  31 N  s               351      4.602471  21 C  px        

 Vector   88  Occ=0.000000D+00  E= 1.512032D-01
              MO Center= -1.1D+00,  1.2D+00, -1.9D-01, r^2= 2.7D+01
[...]
   Bfn.  Coefficient  Atom+Function         Bfn.  Coefficient  Atom+Function  
  ----- ------------  ---------------      ----- ------------  ---------------
    56      8.314545   5 C  s               344     -8.354633  21 C  s         
   317     -6.976745  19 C  px              285      6.123210  17 N  pz        
   173     -5.251128  11 C  s               235     -5.177801  15 C  pz        
   276      4.888768  17 N  s               174     -4.775646  11 C  s         
   215      4.499455  14 H  s                45     -4.103434   4 H  s         

 Vector  156  Occ=0.000000D+00  E= 4.369908D-01
              MO Center=  1.7D-02,  8.2D-01, -1.7D-01, r^2= 1.9D+01
   Bfn.  Coefficient  Atom+Function         Bfn.  Coefficient  Atom+Function  
  ----- ------------  ---------------      ----- ------------  ---------------
   464     14.547999  29 C  s               317    -10.189604  19 C  px        
    13     -9.589301   2 C  s               174     -9.494488  11 C  s         
   233      9.352461  15 C  px              310      7.312237  19 C  s         
   226      5.735009  15 C  s               378     -5.206388  23 C  s         
   284      5.092135  17 N  py               81      4.763207   6 O  s         

 Vector  157  Occ=0.000000D+00  E= 4.391883D-01
              MO Center= -7.9D-01,  2.1D+00,  4.0D-01, r^2= 2.2D+01
   Bfn.  Coefficient  Atom+Function         Bfn.  Coefficient  Atom+Function  
  ----- ------------  ---------------      ----- ------------  ---------------
    56      8.626753   5 C  s               318     -6.577118  19 C  py        
   276      6.426031  17 N  s               464     -5.906827  29 C  s         
   514      5.744781  31 N  s                 2      4.304237   1 H  s         
   285      4.014598  17 N  pz              251     -3.704552  16 O  s         
    81     -3.669838   6 O  s                36     -3.621213   3 H  s         

 Vector  158  Occ=0.000000D+00  E= 4.410685D-01
              MO Center=  4.4D-01,  3.9D-01, -1.7D-01, r^2= 2.0D+01
   Bfn.  Coefficient  Atom+Function         Bfn.  Coefficient  Atom+Function  
  ----- ------------  ---------------      ----- ------------  ---------------
   173     10.235675  11 C  s               206     -9.939914  13 H  s         
    13      9.452161   2 C  s               174      7.946880  11 C  s         
   197     -7.907054  12 H  s                56     -7.472819   5 C  s         
   149      7.160083   9 C  pz              235     -7.075879  15 C  pz        
   319      5.592729  19 C  pz              164      4.726455  10 H  s         

 Vector  159  Occ=0.000000D+00  E= 4.424163D-01
              MO Center= -4.9D-01, -3.3D-01, -2.8D-01, r^2= 2.1D+01
   Bfn.  Coefficient  Atom+Function         Bfn.  Coefficient  Atom+Function  
  ----- ------------  ---------------      ----- ------------  ---------------
   234     11.806051  15 C  py              284     -8.668734  17 N  py        
   377     -7.496894  23 C  s               471      7.013491  29 C  px        
   464      6.589669  29 C  s               344     -6.283300  21 C  s         
   276      6.225202  17 N  s               514     -6.065980  31 N  s         
   106     -5.803642   7 N  s                56     -5.651522   5 C  s         

 Vector  160  Occ=0.000000D+00  E= 4.439656D-01
              MO Center= -2.1D-01,  3.3D-01,  1.3D-01, r^2= 2.1D+01
   Bfn.  Coefficient  Atom+Function         Bfn.  Coefficient  Atom+Function  
  ----- ------------  ---------------      ----- ------------  ---------------
   276     14.141255  17 N  s               464     -9.406370  29 C  s         
   174      9.242901  11 C  s               235     -8.020788  15 C  pz        
   317      7.180433  19 C  px              173      7.000482  11 C  s         
   310     -7.000164  19 C  s               344     -7.030555  21 C  s         
   106     -5.816392   7 N  s               514      5.555185  31 N  s         

 Vector  161  Occ=0.000000D+00  E= 4.494853D-01
              MO Center= -4.2D-01, -2.5D-01, -2.2D-01, r^2= 1.8D+01
   Bfn.  Coefficient  Atom+Function         Bfn.  Coefficient  Atom+Function  
  ----- ------------  ---------------      ----- ------------  ---------------
   464     27.887810  29 C  s               318     15.613017  19 C  py        
   276    -14.717043  17 N  s               514    -12.736657  31 N  s         
   319    -10.831335  19 C  pz              174     -9.678649  11 C  s         
   310      9.609921  19 C  s               353      8.068687  21 C  pz        
   148      7.187428   9 C  py              317     -6.019441  19 C  px        

 Vector  162  Occ=0.000000D+00  E= 4.584814D-01
              MO Center= -6.5D-01,  1.4D-01,  1.5D-01, r^2= 2.0D+01
   Bfn.  Coefficient  Atom+Function         Bfn.  Coefficient  Atom+Function  
  ----- ------------  ---------------      ----- ------------  ---------------
   378    -13.865342  23 C  s                56     12.703529   5 C  s         
   344    -11.456747  21 C  s               318    -11.043046  19 C  py        
   317    -10.193685  19 C  px              235      9.686924  15 C  pz        
   226      9.537765  15 C  s               234     -8.493094  15 C  py        
   419      7.941180  26 H  s               377     -7.888598  23 C  s         

 Vector  163  Occ=0.000000D+00  E= 4.596664D-01
              MO Center= -7.8D-01, -5.0D-01,  3.1D-01, r^2= 1.8D+01
   Bfn.  Coefficient  Atom+Function         Bfn.  Coefficient  Atom+Function  
  ----- ------------  ---------------      ----- ------------  ---------------
   174     10.504408  11 C  s               233     -8.757049  15 C  px        
   235      7.603720  15 C  pz              318     -7.283675  19 C  py        
    13     -6.517431   2 C  s               310     -5.980550  19 C  s         
   234     -5.241049  15 C  py              514     -4.785061  31 N  s         
   163      4.222237  10 H  s                12     -4.082032   2 C  s         

 Vector  164  Occ=0.000000D+00  E= 4.627147D-01
              MO Center=  4.9D-01,  6.8D-01, -4.7D-01, r^2= 2.1D+01
   Bfn.  Coefficient  Atom+Function         Bfn.  Coefficient  Atom+Function  
  ----- ------------  ---------------      ----- ------------  ---------------
    56     19.613080   5 C  s                13    -16.968460   2 C  s         
   344     11.295218  21 C  s               276     -8.589958  17 N  s         
    64      6.432391   5 C  py              226      6.017580  15 C  s         
   140      5.807771   9 C  s               174     -5.649579  11 C  s         
    45      5.443435   4 H  s               514     -5.277076  31 N  s         

 Vector  165  Occ=0.000000D+00  E= 4.698426D-01
              MO Center= -2.9D-01, -1.1D-01,  9.2D-02, r^2= 2.2D+01
   Bfn.  Coefficient  Atom+Function         Bfn.  Coefficient  Atom+Function  
  ----- ------------  ---------------      ----- ------------  ---------------
   464    -13.724406  29 C  s               344     12.803225  21 C  s         
   378     11.245706  23 C  s               317      8.600086  19 C  px        
   514      8.127341  31 N  s                56     -7.921393   5 C  s         
   367     -7.579913  22 H  s               377      7.582024  23 C  s         
   106      7.449303   7 N  s               276     -7.076394  17 N  s         

 Vector  166  Occ=0.000000D+00  E= 4.730832D-01
              MO Center=  7.9D-01, -2.7D-01, -4.0D-01, r^2= 1.9D+01
   Bfn.  Coefficient  Atom+Function         Bfn.  Coefficient  Atom+Function  
  ----- ------------  ---------------      ----- ------------  ---------------
   344     20.637030  21 C  s               317     14.910996  19 C  px        
   174    -13.491767  11 C  s                56     13.274254   5 C  s         
   464    -12.374937  29 C  s                13    -11.998933   2 C  s         
   234     12.009272  15 C  py              173     -8.951657  11 C  s         
   215      8.291515  14 H  s               310      7.298223  19 C  s         

 Vector  167  Occ=0.000000D+00  E= 4.772461D-01
              MO Center=  1.8D-02,  1.1D+00, -2.2D-01, r^2= 2.0D+01
   Bfn.  Coefficient  Atom+Function         Bfn.  Coefficient  Atom+Function  
  ----- ------------  ---------------      ----- ------------  ---------------
   344     18.963370  21 C  s                13     17.935741   2 C  s         
   464    -15.502407  29 C  s               378    -13.089003  23 C  s         
    64     -8.569132   5 C  py               56     -8.362726   5 C  s         
    12     -8.146276   2 C  s               310      7.405936  19 C  s         
   514      6.956796  31 N  s               147      6.073067   9 C  px        

 Vector  168  Occ=0.000000D+00  E= 4.797774D-01
              MO Center=  4.1D-01, -1.2D-01, -1.1D-01, r^2= 1.9D+01
   Bfn.  Coefficient  Atom+Function         Bfn.  Coefficient  Atom+Function  
  ----- ------------  ---------------      ----- ------------  ---------------
   378     17.878173  23 C  s               344    -15.259941  21 C  s         
   284    -10.215438  17 N  py              310     -7.251265  19 C  s         
   514     -5.690632  31 N  s                56      5.483900   5 C  s         
   148     -5.428161   9 C  py              351      5.294843  21 C  px        
   352     -5.299305  21 C  py               12     -5.136013   2 C  s         

 Vector  169  Occ=0.000000D+00  E= 4.846548D-01
              MO Center=  1.4D-01,  1.9D+00,  4.1D-01, r^2= 2.2D+01
   Bfn.  Coefficient  Atom+Function         Bfn.  Coefficient  Atom+Function  
  ----- ------------  ---------------      ----- ------------  ---------------
    56    -43.743947   5 C  s                13     41.317839   2 C  s         
    12     15.142878   2 C  s               106     14.552310   7 N  s         
    64    -13.196645   5 C  py               45    -11.577498   4 H  s         
    36    -11.410396   3 H  s               464    -10.820009  29 C  s         
    65    -10.665671   5 C  pz              344     10.459664  21 C  s         

 Vector  170  Occ=0.000000D+00  E= 4.866520D-01
              MO Center= -2.0D-02,  2.9D-01, -1.4D-01, r^2= 1.9D+01
   Bfn.  Coefficient  Atom+Function         Bfn.  Coefficient  Atom+Function  
  ----- ------------  ---------------      ----- ------------  ---------------
   344     23.417252  21 C  s               378    -15.114057  23 C  s         
   234     12.798154  15 C  py              276    -12.346367  17 N  s         
   310     12.381422  19 C  s               163     -9.237798  10 H  s         
   235     -7.646755  15 C  pz              140      7.347079   9 C  s         
   148     -7.166914   9 C  py              283      6.534757  17 N  px        

 Vector  171  Occ=0.000000D+00  E= 4.950977D-01
              MO Center= -1.9D-01,  7.8D-01,  1.7D-01, r^2= 2.0D+01
   Bfn.  Coefficient  Atom+Function         Bfn.  Coefficient  Atom+Function  
  ----- ------------  ---------------      ----- ------------  ---------------
    56     15.776046   5 C  s               464    -13.314044  29 C  s         
   344     12.396316  21 C  s               378     12.236660  23 C  s         
   317     11.874262  19 C  px              174    -11.430270  11 C  s         
   318      7.489029  19 C  py              401     -7.234706  24 H  s         
    13     -6.478320   2 C  s                12     -6.189861   2 C  s         

 Vector  172  Occ=0.000000D+00  E= 5.035838D-01
              MO Center=  7.0D-01,  5.8D-01,  1.2D-01, r^2= 2.2D+01
   Bfn.  Coefficient  Atom+Function         Bfn.  Coefficient  Atom+Function  
  ----- ------------  ---------------      ----- ------------  ---------------
    13     36.560787   2 C  s               174    -29.815748  11 C  s         
   464     26.316645  29 C  s               344    -24.275220  21 C  s         
    56    -23.895627   5 C  s                64    -18.744539   5 C  py        
   378     18.330212  23 C  s               149    -14.418370   9 C  pz        
   514    -12.849390  31 N  s               226    -12.419082  15 C  s         


 center of mass
 --------------
 x =   0.01109632 y =  -0.06370541 z =   0.01147946

 moments of inertia (a.u.)
 ------------------
        5948.480643991429          -0.000000000000          -0.000000000001
          -0.000000000000        2207.125622819806          -0.000000000000
          -0.000000000001          -0.000000000000        7054.972582229186

  Mulliken analysis of the total density
  --------------------------------------

    Atom       Charge   Shell Charges
 -----------   ------   -------------------------------------------------------
    1 H    1     0.97   0.76  0.23  0.01  0.03 -0.06
    2 C    6     6.54   2.01  0.66  0.32  0.27  2.07  1.06 -0.02  0.06  0.12
    3 H    1     0.81   0.76  0.08  0.01  0.03 -0.06
    4 H    1     0.79   0.76  0.06  0.01  0.03 -0.07
    5 C    6     4.95   2.01  0.68  0.08 -0.17  1.90  0.31 -0.10  0.24  0.00
    6 O    8     8.71   2.01  0.82  0.99  0.14  2.79  1.83  0.14  0.01 -0.02
    7 N    7     7.64   2.01  0.72  0.82 -0.07  2.45  1.44  0.17  0.05  0.04
    8 H    1     0.96   0.77  0.20 -0.03  0.05 -0.05
    9 C    6     6.68   2.01  0.66  0.24  0.01  2.00  1.47 -0.03  0.14  0.20
   10 H    1     1.14   0.79  0.32  0.00  0.03  0.01
   11 C    6     5.77   2.01  0.66  0.22  0.23  2.04  0.55 -0.03  0.07  0.02
   12 H    1     0.89   0.77  0.15  0.03  0.03 -0.08
   13 H    1     0.97   0.77  0.25  0.00  0.03 -0.08
   14 H    1     0.95   0.77  0.24  0.01  0.03 -0.09
   15 C    6     4.13   2.01  0.68 -0.20  0.02  1.88  0.06 -0.10  0.23 -0.47
   16 O    8     8.95   2.01  0.82  1.05  0.20  2.80  1.89  0.17  0.01  0.00
   17 N    7     7.63   2.01  0.72  0.85 -0.05  2.44  1.46  0.05  0.05  0.09
   18 H    1     0.98   0.76  0.22 -0.02  0.05 -0.04
   19 C    6     6.39   2.01  0.67  0.11 -0.02  2.01  1.24  0.11  0.13  0.13
   20 H    1     0.98   0.78  0.16 -0.03  0.03  0.03
   21 C    6     5.78   2.01  0.67  0.06 -0.01  1.95  0.84 -0.08  0.16  0.17
   22 H    1     1.15   0.80  0.35 -0.01  0.03 -0.02
   23 C    6     5.39   2.01  0.66 -0.04  0.16  2.05  0.59 -0.03  0.07 -0.08
   24 H    1     0.88   0.77  0.13 -0.00  0.03 -0.05
   25 H    1     1.01   0.77  0.27  0.01  0.03 -0.07
   26 H    1     0.93   0.77  0.19  0.01  0.03 -0.07
   27 O    8     8.73   2.01  0.80  0.99  0.06  2.83  1.92  0.14  0.01 -0.02
   28 H    1     0.85   0.71  0.04 -0.00  0.08  0.02
   29 C    6     4.43   2.01  0.68  0.00  0.06  1.89 -0.17 -0.03  0.24 -0.24
   30 O    8     8.82   2.01  0.82  1.03  0.16  2.80  1.85  0.14  0.01 -0.00
   31 N    7     7.27   2.01  0.72  0.84 -0.14  2.46  1.26  0.09  0.04 -0.02
   32 H    1     0.91   0.73  0.20 -0.01  0.06 -0.07
   33 H    1     1.01   0.76  0.23 -0.00  0.05 -0.03

       Multipole analysis of the density wrt the origin
       ------------------------------------------------

     L   x y z        total         open         nuclear
     -   - - -        -----         ----         -------
     0   0 0 0      0.000000      0.000000    124.000000

     1   1 0 0      1.259331      0.000000      0.000000
     1   0 1 0      1.735105      0.000000      0.000000
     1   0 0 1     -0.157203      0.000000     -0.000000

     2   2 0 0    -71.426782      0.000000    951.455362
     2   1 1 0      5.679260      0.000000     32.045136
     2   1 0 1     -4.060846      0.000000    -21.872618
     2   0 2 0    -71.701967      0.000000   2950.418249
     2   0 1 1     -4.124505      0.000000     -1.674106
     2   0 0 2    -71.164668      0.000000    327.986179


 Task  times  cpu:     4339.5s     wall:     4514.2s


                                NWChem Input Module
                                -------------------


 Summary of allocated global arrays
-----------------------------------
  No active global arrays


MA_summarize_allocated_blocks: starting scan ...
MA_summarize_allocated_blocks: scan completed: 0 heap blocks, 0 stack blocks
MA usage statistics:

	allocation statistics:
					      heap	     stack
					      ----	     -----
	current number of blocks	         0	         0
	maximum number of blocks	        16	        14
	current total bytes		         0	         0
	maximum total bytes		    116920	  26223272
	maximum total K-bytes		       117	     26224
	maximum total M-bytes		         1	        27


                                     CITATION
                                     --------
                Please cite the following reference when publishing
                           results obtained with NWChem:

          E. Apra, E. J. Bylaska, W. A. de Jong, N. Govind, K. Kowalski,
       T. P. Straatsma, M. Valiev, H. J. J. van Dam, Y. Alexeev, J. Anchell,
       V. Anisimov, F. W. Aquino, R. Atta-Fynn, J. Autschbach, N. P. Bauman,
     J. C. Becca, D. E. Bernholdt, K. Bhaskaran-Nair, S. Bogatko, P. Borowski,
         J. Boschen, J. Brabec, A. Bruner, E. Cauet, Y. Chen, G. N. Chuev,
      C. J. Cramer, J. Daily, M. J. O. Deegan, T. H. Dunning Jr., M. Dupuis,
   K. G. Dyall, G. I. Fann, S. A. Fischer, A. Fonari, H. Fruchtl, L. Gagliardi,
      J. Garza, N. Gawande, S. Ghosh, K. Glaesemann, A. W. Gotz, J. Hammond,
       V. Helms, E. D. Hermes, K. Hirao, S. Hirata, M. Jacquelin, L. Jensen,
   B. G. Johnson, H. Jonsson, R. A. Kendall, M. Klemm, R. Kobayashi, V. Konkov,
      S. Krishnamoorthy, M. Krishnan, Z. Lin, R. D. Lins, R. J. Littlefield,
      A. J. Logsdail, K. Lopata, W. Ma, A. V. Marenich, J. Martin del Campo,
   D. Mejia-Rodriguez, J. E. Moore, J. M. Mullin, T. Nakajima, D. R. Nascimento,
    J. A. Nichols, P. J. Nichols, J. Nieplocha, A. Otero-de-la-Roza, B. Palmer,
    A. Panyala, T. Pirojsirikul, B. Peng, R. Peverati, J. Pittner, L. Pollack,
   R. M. Richard, P. Sadayappan, G. C. Schatz, W. A. Shelton, D. W. Silverstein,
   D. M. A. Smith, T. A. Soares, D. Song, M. Swart, H. L. Taylor, G. S. Thomas,
            V. Tipparaju, D. G. Truhlar, K. Tsemekhman, T. Van Voorhis,
      A. Vazquez-Mayagoitia, P. Verma, O. Villa, A. Vishnu, K. D. Vogiatzis,
        D. Wang, J. H. Weare, M. J. Williamson, T. L. Windus, K. Wolinski,
        A. T. Wong, Q. Wu, C. Yang, Q. Yu, M. Zacharias, Z. Zhang, Y. Zhao,
                                and R. J. Harrison
                        "NWChem: Past, present, and future
                         J. Chem. Phys. 152, 184102 (2020)
                               doi:10.1063/5.0004997

                                      AUTHORS
                                      -------
  E. Apra, E. J. Bylaska, N. Govind, K. Kowalski, M. Valiev, D. Mejia-Rodriguez,
       A. Kunitsa, N. P. Bauman, A. Panyala, W. A. de Jong, T. P. Straatsma,
   H. J. J. van Dam, D. Wang, T. L. Windus, J. Hammond, J. Autschbach, A. Woods,
    K. Bhaskaran-Nair, J. Brabec, K. Lopata, S. A. Fischer, S. Krishnamoorthy,
     M. Jacquelin, W. Ma, M. Klemm, O. Villa, Y. Chen, V. Anisimov, F. Aquino,
     S. Hirata, M. T. Hackler, E. Hermes, L. Jensen, J. E. Moore, J. C. Becca,
      V. Konjkov, T. Risthaus, M. Malagoli, A. Marenich, A. Otero-de-la-Roza,
        J. Mullin, P. Nichols, R. Peverati, J. Pittner, Y. Zhao, P.-D. Fan,
        A. Fonari, M. J. Williamson, R. J. Harrison, J. R. Rehr, M. Dupuis,
     D. Silverstein, D. M. A. Smith, J. Nieplocha, V. Tipparaju, M. Krishnan,
     B. E. Van Kuiken, A. Vazquez-Mayagoitia, M. Swart, Q. Wu, T. Van Voorhis,
     A. A. Auer, M. Nooijen, L. D. Crosby, E. Brown, G. Cisneros, G. I. Fann,
   H. Fruchtl, J. Garza, K. Hirao, R. A. Kendall, J. A. Nichols, K. Tsemekhman,
    K. Wolinski, J. Anchell, D. E. Bernholdt, P. Borowski, T. Clark, D. Clerc,
   H. Dachsel, M. J. O. Deegan, K. Dyall, D. Elwood, E. Glendening, M. Gutowski,
   A. C. Hess, J. Jaffe, B. G. Johnson, J. Ju, R. Kobayashi, R. Kutteh, Z. Lin,
   R. Littlefield, X. Long, B. Meng, T. Nakajima, S. Niu, L. Pollack, M. Rosing,
   K. Glaesemann, G. Sandrone, M. Stave, H. Taylor, G. Thomas, J. H. van Lenthe,
                               A. T. Wong, Z. Zhang.

 Total times  cpu:     4339.5s     wall:     4515.0s
