export TMOUT=5400
export TMPDIR=/tmp
export PTMPDIR=/tmp/ptmp
 argument  1 = ALA_GLY_3.nw
                                         
                                         


             Northwest Computational Chemistry Package (NWChem) 7.2.0
             --------------------------------------------------------


                    Environmental Molecular Sciences Laboratory
                       Pacific Northwest National Laboratory
                                Richland, WA 99352

                              Copyright (c) 1994-2022
                       Pacific Northwest National Laboratory
                            Battelle Memorial Institute

             NWChem is an open-source computational chemistry package
                        distributed under the terms of the
                      Educational Community License (ECL) 2.0
             A copy of the license is included with this distribution
                              in the LICENSE.TXT file

                                  ACKNOWLEDGMENT
                                  --------------

            This software and its documentation were developed at the
            EMSL at Pacific Northwest National Laboratory, a multiprogram
            national laboratory, operated for the U.S. Department of Energy
            by Battelle under Contract Number DE-AC05-76RL01830. Support
            for this work was provided by the Department of Energy Office
            of Biological and Environmental Research, Office of Basic
            Energy Sciences, and the Office of Advanced Scientific Computing.


           Job information
           ---------------

    hostname        = nova18-18
    program         = /opt/rit/el9/20230413/app/linux-rhel9-x86_64_v3/gcc-11.2.1/nwchem-7.2.0-oxtctbuhfuzyfaoziquq6bki22grib3g/bin/nwchem
    date            = Thu Jun 26 16:24:09 2025

    compiled        = Wed_May_17_23:46:39_2023
    source          = /tmp/root/spack-stage/spack-stage-nwchem-7.2.0-oxtctbuhfuzyfaoziquq6bki22grib3g/spack-src
    nwchem branch   = 7.2.0
    nwchem revision = d0d141fd
    ga revision     = 5.8.0
    use scalapack   = T
    input           = ALA_GLY_3.nw
    prefix          = ALA_GLY_3.
    data base       = ./ALA_GLY_3.db
    status          = startup
    nproc           =        8
    time left       =     -1s



           Memory information
           ------------------

    heap     =   26214400 doubles =    200.0 Mbytes
    stack    =   26214397 doubles =    200.0 Mbytes
    global   =   52428800 doubles =    400.0 Mbytes (distinct from heap & stack)
    total    =  104857597 doubles =    800.0 Mbytes
    verify   = yes
    hardfail = no 


           Directory information
           ---------------------

  0 permanent = .
  0 scratch   = .




                                NWChem Input Module
                                -------------------



 Scaling coordinates for geometry "geometry" by  1.889725989
 (inverse scale =  0.529177249)

 C1  symmetry detected

          ------
          auto-z
          ------
  no constraints, skipping    0.0000000000000000     
  no constraints, skipping    0.0000000000000000     


                             Geometry "geometry" -> ""
                             -------------------------

 Output coordinates in angstroms (scale by  1.889725989 to convert to a.u.)

  No.       Tag          Charge          X              Y              Z
 ---- ---------------- ---------- -------------- -------------- --------------
    1 H                    1.0000     2.33732746    -3.69713936     0.13943997
    2 C                    6.0000     2.43312806    -2.67720472     0.50837840
    3 H                    1.0000     3.40095824    -2.27507706     0.20891204
    4 H                    1.0000     2.35555594    -2.66519277     1.59402856
    5 C                    6.0000     1.34195368    -1.82325911    -0.08993705
    6 O                    8.0000     1.62548112    -0.85359057    -0.77914320
    7 N                    7.0000     0.08667158    -2.16223593     0.20229325
    8 H                    1.0000    -0.06072913    -2.97212515     0.78236608
    9 C                    6.0000    -1.10239556    -1.53511483    -0.39473646
   10 H                    1.0000    -1.02260315    -1.62839589    -1.47920352
   11 C                    6.0000    -2.32891154    -2.33609565     0.06017702
   12 H                    1.0000    -3.22253603    -1.93868841    -0.42410880
   13 H                    1.0000    -2.21877088    -3.38457177    -0.22067857
   14 H                    1.0000    -2.45044845    -2.25782688     1.14181086
   15 C                    6.0000    -1.28184982    -0.02468974    -0.10451202
   16 O                    8.0000    -2.13629303     0.60980606    -0.71474957
   17 N                    7.0000    -0.48684154     0.55952910     0.80057316
   18 H                    1.0000     0.21800916    -0.01250194     1.23465956
   19 C                    6.0000    -0.43894278     2.00776401     1.04098808
   20 H                    1.0000    -1.44932784     2.41647211     0.99170600
   21 H                    1.0000    -0.04946227     2.18756265     2.04201874
   22 C                    6.0000     0.43327625     2.79542225     0.05097724
   23 O                    8.0000     0.50736046     4.01363272     0.13753809
   24 N                    7.0000     1.12520121     2.14629360    -0.87911299
   25 H                    1.0000     1.68395965     2.68524505    -1.51937336
   26 H                    1.0000     1.09291036     1.13741298    -0.93502534

      Atomic Mass 
      ----------- 

      H                  1.007825
      C                 12.000000
      O                 15.994910
      N                 14.003070


 Effective nuclear repulsion energy (a.u.)     849.6746597929

            Nuclear Dipole moment (a.u.) 
            ----------------------------
        X                 Y               Z
 ---------------- ---------------- ----------------
     0.0000000000    -0.0000000000    -0.0000000000



                                Z-matrix (autoz)
                                -------- 

 Units are Angstrom for bonds and degrees for angles

      Type          Name      I     J     K     L     M      Value
      ----------- --------  ----- ----- ----- ----- ----- ----------
    1 Stretch                  1     2                       1.08883
    2 Stretch                  2     3                       1.08999
    3 Stretch                  2     4                       1.08848
    4 Stretch                  2     5                       1.50926
    5 Stretch                  5     6                       1.22297
    6 Stretch                  5     7                       1.33268
    7 Stretch                  7     8                       1.00704
    8 Stretch                  7     9                       1.47092
    9 Stretch                  9    10                       1.09139
   10 Stretch                  9    11                       1.53390
   11 Stretch                  9    15                       1.54849
   12 Stretch                 11    12                       1.09134
   13 Stretch                 11    13                       1.09101
   14 Stretch                 11    14                       1.09125
   15 Stretch                 15    16                       1.22680
   16 Stretch                 15    17                       1.33885
   17 Stretch                 17    18                       1.00621
   18 Stretch                 17    19                       1.46884
   19 Stretch                 19    20                       1.09103
   20 Stretch                 19    21                       1.08908
   21 Stretch                 19    22                       1.53665
   22 Stretch                 22    23                       1.22353
   23 Stretch                 22    24                       1.32861
   24 Stretch                 24    25                       1.00629
   25 Stretch                 24    26                       1.01094
   26 Bend                     1     2     3               109.30597
   27 Bend                     1     2     4               110.00015
   28 Bend                     1     2     5               109.39410
   29 Bend                     2     5     6               120.29223
   30 Bend                     2     5     7               116.75343
   31 Bend                     3     2     4               109.46520
   32 Bend                     3     2     5               108.92322
   33 Bend                     4     2     5               109.73249
   34 Bend                     5     7     8               117.95248
   35 Bend                     5     7     9               124.33198
   36 Bend                     6     5     7               122.93056
   37 Bend                     7     9    10               107.92501
   38 Bend                     7     9    11               107.66074
   39 Bend                     7     9    15               115.68836
   40 Bend                     8     7     9               117.28097
   41 Bend                     9    11    12               109.45003
   42 Bend                     9    11    13               110.16698
   43 Bend                     9    11    14               110.21603
   44 Bend                     9    15    16               119.46995
   45 Bend                     9    15    17               118.91540
   46 Bend                    10     9    11               107.97002
   47 Bend                    10     9    15               106.14545
   48 Bend                    11     9    15               111.16763
   49 Bend                    12    11    13               108.56478
   50 Bend                    12    11    14               108.81582
   51 Bend                    13    11    14               109.59250
   52 Bend                    15    17    18               117.35630
   53 Bend                    15    17    19               124.07306
   54 Bend                    16    15    17               121.61103
   55 Bend                    17    19    20               109.37566
   56 Bend                    17    19    21               108.95858
   57 Bend                    17    19    22               114.73680
   58 Bend                    18    17    19               117.84433
   59 Bend                    19    22    23               119.94332
   60 Bend                    19    22    24               119.74808
   61 Bend                    20    19    21               108.11129
   62 Bend                    20    19    22               107.73026
   63 Bend                    21    19    22               107.73203
   64 Bend                    22    24    25               118.22377
   65 Bend                    22    24    26               120.64145
   66 Bend                    23    22    24               120.29473
   67 Bend                    25    24    26               121.13372
   68 Torsion                  1     2     5     6        -119.79094
   69 Torsion                  1     2     5     7          61.93162
   70 Torsion                  2     5     7     8          -1.32875
   71 Torsion                  2     5     7     9        -173.54113
   72 Torsion                  3     2     5     6          -0.37038
   73 Torsion                  3     2     5     7        -178.64782
   74 Torsion                  4     2     5     6         119.44582
   75 Torsion                  4     2     5     7         -58.83162
   76 Torsion                  5     7     9    10          56.06727
   77 Torsion                  5     7     9    11         172.38103
   78 Torsion                  5     7     9    15         -62.61247
   79 Torsion                  6     5     7     8        -179.55664
   80 Torsion                  6     5     7     9           8.23098
   81 Torsion                  7     9    11    12        -175.97302
   82 Torsion                  7     9    11    13         -56.67214
   83 Torsion                  7     9    11    14          64.38736
   84 Torsion                  7     9    15    16         169.79995
   85 Torsion                  7     9    15    17          -9.52011
   86 Torsion                  8     7     9    10        -116.19301
   87 Torsion                  8     7     9    11           0.12075
   88 Torsion                  8     7     9    15         125.12726
   89 Torsion                  9    15    17    18           1.85183
   90 Torsion                  9    15    17    19         171.85444
   91 Torsion                 10     9    11    12         -59.68877
   92 Torsion                 10     9    11    13          59.61212
   93 Torsion                 10     9    11    14        -179.32838
   94 Torsion                 10     9    15    16          50.14325
   95 Torsion                 10     9    15    17        -129.17681
   96 Torsion                 11     9    15    16         -67.01990
   97 Torsion                 11     9    15    17         113.66004
   98 Torsion                 12    11     9    15          56.35657
   99 Torsion                 13    11     9    15         175.65746
  100 Torsion                 14    11     9    15         -63.28305
  101 Torsion                 15    17    19    20          39.51247
  102 Torsion                 15    17    19    21         157.49719
  103 Torsion                 15    17    19    22         -81.64968
  104 Torsion                 16    15    17    18        -177.45307
  105 Torsion                 16    15    17    19          -7.45046
  106 Torsion                 17    19    22    23         177.70863
  107 Torsion                 17    19    22    24          -3.64195
  108 Torsion                 18    17    19    20        -150.52999
  109 Torsion                 18    17    19    21         -32.54527
  110 Torsion                 18    17    19    22          88.30785
  111 Torsion                 19    22    24    25         179.59708
  112 Torsion                 19    22    24    26          -0.77352
  113 Torsion                 20    19    22    23          55.64917
  114 Torsion                 20    19    22    24        -125.70141
  115 Torsion                 21    19    22    23         -60.76636
  116 Torsion                 21    19    22    24         117.88305
  117 Torsion                 23    22    24    25          -1.75832
  118 Torsion                 23    22    24    26         177.87108


            XYZ format geometry
            -------------------
    26
 geometry
 H                     2.33732746    -3.69713936     0.13943997
 C                     2.43312806    -2.67720472     0.50837840
 H                     3.40095824    -2.27507706     0.20891204
 H                     2.35555594    -2.66519277     1.59402856
 C                     1.34195368    -1.82325911    -0.08993705
 O                     1.62548112    -0.85359057    -0.77914320
 N                     0.08667158    -2.16223593     0.20229325
 H                    -0.06072913    -2.97212515     0.78236608
 C                    -1.10239556    -1.53511483    -0.39473646
 H                    -1.02260315    -1.62839589    -1.47920352
 C                    -2.32891154    -2.33609565     0.06017702
 H                    -3.22253603    -1.93868841    -0.42410880
 H                    -2.21877088    -3.38457177    -0.22067857
 H                    -2.45044845    -2.25782688     1.14181086
 C                    -1.28184982    -0.02468974    -0.10451202
 O                    -2.13629303     0.60980606    -0.71474957
 N                    -0.48684154     0.55952910     0.80057316
 H                     0.21800916    -0.01250194     1.23465956
 C                    -0.43894278     2.00776401     1.04098808
 H                    -1.44932784     2.41647211     0.99170600
 H                    -0.04946227     2.18756265     2.04201874
 C                     0.43327625     2.79542225     0.05097724
 O                     0.50736046     4.01363272     0.13753809
 N                     1.12520121     2.14629360    -0.87911299
 H                     1.68395965     2.68524505    -1.51937336
 H                     1.09291036     1.13741298    -0.93502534

 ==============================================================================
                                internuclear distances
 ------------------------------------------------------------------------------
       center one      |      center two      | atomic units |  angstroms
 ------------------------------------------------------------------------------
    2 C                |   1 H                |     2.05760  |     1.08883
    3 H                |   2 C                |     2.05979  |     1.08999
    4 H                |   2 C                |     2.05694  |     1.08848
    5 C                |   2 C                |     2.85209  |     1.50926
    6 O                |   5 C                |     2.31107  |     1.22297
    7 N                |   5 C                |     2.51840  |     1.33268
    8 H                |   7 N                |     1.90303  |     1.00704
    9 C                |   7 N                |     2.77964  |     1.47092
   10 H                |   9 C                |     2.06243  |     1.09139
   11 C                |   9 C                |     2.89866  |     1.53390
   12 H                |  11 C                |     2.06234  |     1.09134
   13 H                |  11 C                |     2.06172  |     1.09101
   14 H                |  11 C                |     2.06217  |     1.09125
   15 C                |   9 C                |     2.92622  |     1.54849
   16 O                |  15 C                |     2.31832  |     1.22680
   17 N                |  15 C                |     2.53007  |     1.33885
   18 H                |  17 N                |     1.90147  |     1.00621
   19 C                |  17 N                |     2.77570  |     1.46884
   20 H                |  19 C                |     2.06175  |     1.09103
   21 H                |  19 C                |     2.05805  |     1.08908
   22 C                |  19 C                |     2.90385  |     1.53665
   23 O                |  22 C                |     2.31213  |     1.22353
   24 N                |  22 C                |     2.51070  |     1.32861
   25 H                |  24 N                |     1.90161  |     1.00629
   26 H                |  24 N                |     1.91041  |     1.01094
 ------------------------------------------------------------------------------
                         number of included internuclear distances:         25
 ==============================================================================



 ==============================================================================
                                 internuclear angles
 ------------------------------------------------------------------------------
        center 1       |       center 2       |       center 3       |  degrees
 ------------------------------------------------------------------------------
    1 H                |   2 C                |   3 H                |   109.31
    1 H                |   2 C                |   4 H                |   110.00
    1 H                |   2 C                |   5 C                |   109.39
    3 H                |   2 C                |   4 H                |   109.47
    3 H                |   2 C                |   5 C                |   108.92
    4 H                |   2 C                |   5 C                |   109.73
    2 C                |   5 C                |   6 O                |   120.29
    2 C                |   5 C                |   7 N                |   116.75
    6 O                |   5 C                |   7 N                |   122.93
    5 C                |   7 N                |   8 H                |   117.95
    5 C                |   7 N                |   9 C                |   124.33
    8 H                |   7 N                |   9 C                |   117.28
    7 N                |   9 C                |  10 H                |   107.93
    7 N                |   9 C                |  11 C                |   107.66
    7 N                |   9 C                |  15 C                |   115.69
   10 H                |   9 C                |  11 C                |   107.97
   10 H                |   9 C                |  15 C                |   106.15
   11 C                |   9 C                |  15 C                |   111.17
    9 C                |  11 C                |  12 H                |   109.45
    9 C                |  11 C                |  13 H                |   110.17
    9 C                |  11 C                |  14 H                |   110.22
   12 H                |  11 C                |  13 H                |   108.56
   12 H                |  11 C                |  14 H                |   108.82
   13 H                |  11 C                |  14 H                |   109.59
    9 C                |  15 C                |  16 O                |   119.47
    9 C                |  15 C                |  17 N                |   118.92
   16 O                |  15 C                |  17 N                |   121.61
   15 C                |  17 N                |  18 H                |   117.36
   15 C                |  17 N                |  19 C                |   124.07
   18 H                |  17 N                |  19 C                |   117.84
   17 N                |  19 C                |  20 H                |   109.38
   17 N                |  19 C                |  21 H                |   108.96
   17 N                |  19 C                |  22 C                |   114.74
   20 H                |  19 C                |  21 H                |   108.11
   20 H                |  19 C                |  22 C                |   107.73
   21 H                |  19 C                |  22 C                |   107.73
   19 C                |  22 C                |  23 O                |   119.94
   19 C                |  22 C                |  24 N                |   119.75
   23 O                |  22 C                |  24 N                |   120.29
   22 C                |  24 N                |  25 H                |   118.22
   22 C                |  24 N                |  26 H                |   120.64
   25 H                |  24 N                |  26 H                |   121.13
 ------------------------------------------------------------------------------
                            number of included internuclear angles:         42
 ==============================================================================



  library name resolved from: environment
  library file name is: </opt/rit/el9/20230413/app/linux-rhel9-x86_64_v3/gcc-11.2.1/nwchem-7.2.0-oxtctbuhfuzyfaoziquq6bki22grib3g/share/nwchem/libraries/>
  


 Summary of "ao basis" -> "" (cartesian)
 ------------------------------------------------------------------------------
       Tag                 Description            Shells   Functions and Types
 ---------------- ------------------------------  ------  ---------------------
 *                        aug-cc-pvdz                 on all atoms 


                      Basis "ao basis" -> "ao basis" (cartesian)
                      -----
  H (Hydrogen)
  ------------
            Exponent  Coefficients 
       -------------- ---------------------------------------------------------
  1 S  1.30100000E+01  0.019685
  1 S  1.96200000E+00  0.137977
  1 S  4.44600000E-01  0.478148

  2 S  1.22000000E-01  1.000000

  3 S  2.97400000E-02  1.000000

  4 P  7.27000000E-01  1.000000

  5 P  1.41000000E-01  1.000000

  C (Carbon)
  ----------
            Exponent  Coefficients 
       -------------- ---------------------------------------------------------
  1 S  6.66500000E+03  0.000692
  1 S  1.00000000E+03  0.005329
  1 S  2.28000000E+02  0.027077
  1 S  6.47100000E+01  0.101718
  1 S  2.10600000E+01  0.274740
  1 S  7.49500000E+00  0.448564
  1 S  2.79700000E+00  0.285074
  1 S  5.21500000E-01  0.015204

  2 S  6.66500000E+03 -0.000146
  2 S  1.00000000E+03 -0.001154
  2 S  2.28000000E+02 -0.005725
  2 S  6.47100000E+01 -0.023312
  2 S  2.10600000E+01 -0.063955
  2 S  7.49500000E+00 -0.149981
  2 S  2.79700000E+00 -0.127262
  2 S  5.21500000E-01  0.544529

  3 S  1.59600000E-01  1.000000

  4 S  4.69000000E-02  1.000000

  5 P  9.43900000E+00  0.038109
  5 P  2.00200000E+00  0.209480
  5 P  5.45600000E-01  0.508557

  6 P  1.51700000E-01  1.000000

  7 P  4.04100000E-02  1.000000

  8 D  5.50000000E-01  1.000000

  9 D  1.51000000E-01  1.000000

  O (Oxygen)
  ----------
            Exponent  Coefficients 
       -------------- ---------------------------------------------------------
  1 S  1.17200000E+04  0.000710
  1 S  1.75900000E+03  0.005470
  1 S  4.00800000E+02  0.027837
  1 S  1.13700000E+02  0.104800
  1 S  3.70300000E+01  0.283062
  1 S  1.32700000E+01  0.448719
  1 S  5.02500000E+00  0.270952
  1 S  1.01300000E+00  0.015458

  2 S  1.17200000E+04 -0.000160
  2 S  1.75900000E+03 -0.001263
  2 S  4.00800000E+02 -0.006267
  2 S  1.13700000E+02 -0.025716
  2 S  3.70300000E+01 -0.070924
  2 S  1.32700000E+01 -0.165411
  2 S  5.02500000E+00 -0.116955
  2 S  1.01300000E+00  0.557368

  3 S  3.02300000E-01  1.000000

  4 S  7.89600000E-02  1.000000

  5 P  1.77000000E+01  0.043018
  5 P  3.85400000E+00  0.228913
  5 P  1.04600000E+00  0.508728

  6 P  2.75300000E-01  1.000000

  7 P  6.85600000E-02  1.000000

  8 D  1.18500000E+00  1.000000

  9 D  3.32000000E-01  1.000000

  N (Nitrogen)
  ------------
            Exponent  Coefficients 
       -------------- ---------------------------------------------------------
  1 S  9.04600000E+03  0.000700
  1 S  1.35700000E+03  0.005389
  1 S  3.09300000E+02  0.027406
  1 S  8.77300000E+01  0.103207
  1 S  2.85600000E+01  0.278723
  1 S  1.02100000E+01  0.448540
  1 S  3.83800000E+00  0.278238
  1 S  7.46600000E-01  0.015440

  2 S  9.04600000E+03 -0.000153
  2 S  1.35700000E+03 -0.001208
  2 S  3.09300000E+02 -0.005992
  2 S  8.77300000E+01 -0.024544
  2 S  2.85600000E+01 -0.067459
  2 S  1.02100000E+01 -0.158078
  2 S  3.83800000E+00 -0.121831
  2 S  7.46600000E-01  0.549003

  3 S  2.24800000E-01  1.000000

  4 S  6.12400000E-02  1.000000

  5 P  1.35500000E+01  0.039919
  5 P  2.91700000E+00  0.217169
  5 P  7.97300000E-01  0.510319

  6 P  2.18500000E-01  1.000000

  7 P  5.61100000E-02  1.000000

  8 D  8.17000000E-01  1.000000

  9 D  2.30000000E-01  1.000000



 Summary of "ao basis" -> "ao basis" (cartesian)
 ------------------------------------------------------------------------------
       Tag                 Description            Shells   Functions and Types
 ---------------- ------------------------------  ------  ---------------------
 H                        aug-cc-pvdz                5        9   3s2p
 C                        aug-cc-pvdz                9       25   4s3p2d
 O                        aug-cc-pvdz                9       25   4s3p2d
 N                        aug-cc-pvdz                9       25   4s3p2d


                                 NWChem SCF Module
                                 -----------------



  ao basis        = "ao basis"
  functions       =   442
  atoms           =    26
  closed shells   =    50
  open shells     =     0
  charge          =   0.00
  wavefunction    = RHF 
  input vectors   = atomic
  output vectors  = ./ALA_GLY_3.movecs
  use symmetry    = F
  symmetry adapt  = F


 Summary of "ao basis" -> "ao basis" (cartesian)
 ------------------------------------------------------------------------------
       Tag                 Description            Shells   Functions and Types
 ---------------- ------------------------------  ------  ---------------------
 H                        aug-cc-pvdz                5        9   3s2p
 C                        aug-cc-pvdz                9       25   4s3p2d
 O                        aug-cc-pvdz                9       25   4s3p2d
 N                        aug-cc-pvdz                9       25   4s3p2d



 Forming initial guess at       0.7s


 !! The overlap matrix has   2 vectors deemed linearly dependent with
    eigenvalues:
 5.71D-06 8.93D-06


      Superposition of Atomic Density Guess
      -------------------------------------

 Sum of atomic energies:        -657.36908239

      Non-variational initial energy
      ------------------------------

 Total energy =    -665.521713
 1-e energy   =   -2580.684701
 2-e energy   =    1065.488328
 HOMO         =      -0.313451
 LUMO         =       0.013224


 Starting SCF solution at     109.8s



 ----------------------------------------------
         Quadratically convergent ROHF

 Convergence threshold     :          1.000E-04
 Maximum no. of iterations :           30
 Final Fock-matrix accuracy:          1.000E-10
 ----------------------------------------------


              iter       energy          gnorm     gmax       time
             ----- ------------------- --------- --------- --------
                 1     -660.4025221397  2.34D+00  1.98D-01    239.0
                 2     -660.6903507043  7.52D-01  4.39D-02    482.5
                 3     -660.7405887410  6.37D-02  4.83D-03    772.0
                 4     -660.7412135982  1.59D-03  1.29D-04   1287.6
                 5     -660.7412139322  4.15D-06  2.42D-07   2023.5


       Final RHF  results 
       ------------------ 

         Total SCF energy =   -660.741213932172
      One-electron energy =  -2589.567352263355
      Two-electron energy =   1079.151478538309
 Nuclear repulsion energy =    849.674659792873

        Time for solution =   1918.1s


             Final eigenvalues
             -----------------

              1      
    1  -20.5575
    2  -20.5339
    3  -20.5042
    4  -15.6309
    5  -15.6082
    6  -15.5712
    7  -11.3862
    8  -11.3694
    9  -11.3426
   10  -11.3180
   11  -11.2899
   12  -11.2685
   13  -11.2610
   14   -1.4223
   15   -1.3936
   16   -1.3675
   17   -1.2795
   18   -1.2475
   19   -1.1958
   20   -1.0840
   21   -1.0189
   22   -0.9971
   23   -0.9047
   24   -0.8394
   25   -0.8106
   26   -0.7867
   27   -0.7448
   28   -0.7323
   29   -0.7100
   30   -0.6967
   31   -0.6629
   32   -0.6445
   33   -0.6348
   34   -0.6131
   35   -0.6093
   36   -0.5998
   37   -0.5953
   38   -0.5909
   39   -0.5670
   40   -0.5635
   41   -0.5575
   42   -0.5453
   43   -0.5236
   44   -0.5128
   45   -0.4578
   46   -0.4563
   47   -0.4351
   48   -0.4136
   49   -0.3903
   50   -0.3860
   51    0.0141
   52    0.0300
   53    0.0337
   54    0.0427
   55    0.0526
   56    0.0551
   57    0.0573
   58    0.0609
   59    0.0670
   60    0.0776

                       ROHF Final Molecular Orbital Analysis
                       -------------------------------------

 Vector   14  Occ=2.000000D+00  E=-1.422343D+00
              MO Center=  1.3D+00, -1.2D+00, -4.6D-01, r^2= 1.2D+00
   Bfn.  Coefficient  Atom+Function         Bfn.  Coefficient  Atom+Function  
  ----- ------------  ---------------      ----- ------------  ---------------
    79      0.344091   6 O  s                80      0.343617   6 O  s         
    54      0.242915   5 C  s                12      0.192821   2 C  s         

 Vector   15  Occ=2.000000D+00  E=-1.393571D+00
              MO Center= -1.6D+00,  4.1D-01, -3.6D-01, r^2= 1.5D+00
   Bfn.  Coefficient  Atom+Function         Bfn.  Coefficient  Atom+Function  
  ----- ------------  ---------------      ----- ------------  ---------------
   250      0.363202  16 O  s               249      0.341189  16 O  s         
   224      0.242545  15 C  s         

 Vector   16  Occ=2.000000D+00  E=-1.367474D+00
              MO Center=  4.9D-01,  3.4D+00,  9.1D-03, r^2= 1.1D+00
   Bfn.  Coefficient  Atom+Function         Bfn.  Coefficient  Atom+Function  
  ----- ------------  ---------------      ----- ------------  ---------------
   377      0.372305  23 O  s               376      0.349652  23 O  s         
   351      0.245479  22 C  s         

 Vector   17  Occ=2.000000D+00  E=-1.279450D+00
              MO Center=  1.9D-01, -1.8D+00,  9.1D-03, r^2= 2.1D+00
   Bfn.  Coefficient  Atom+Function         Bfn.  Coefficient  Atom+Function  
  ----- ------------  ---------------      ----- ------------  ---------------
   105      0.400579   7 N  s               104      0.336030   7 N  s         
    80     -0.215967   6 O  s                79     -0.180876   6 O  s         
   139     -0.163911   9 C  s               128      0.155102   8 H  s         

 Vector   18  Occ=2.000000D+00  E=-1.247526D+00
              MO Center= -5.7D-01,  6.1D-01,  4.7D-01, r^2= 2.4D+00
   Bfn.  Coefficient  Atom+Function         Bfn.  Coefficient  Atom+Function  
  ----- ------------  ---------------      ----- ------------  ---------------
   274      0.334755  17 N  s               275      0.328573  17 N  s         
   250     -0.202225  16 O  s               249     -0.166642  16 O  s         
   298      0.154124  18 H  s         

 Vector   19  Occ=2.000000D+00  E=-1.195781D+00
              MO Center=  8.7D-01,  2.3D+00, -5.7D-01, r^2= 1.7D+00
   Bfn.  Coefficient  Atom+Function         Bfn.  Coefficient  Atom+Function  
  ----- ------------  ---------------      ----- ------------  ---------------
   402      0.368887  24 N  s               401      0.366389  24 N  s         
   377     -0.207583  23 O  s               376     -0.171445  23 O  s         
   355     -0.166751  22 C  py              434      0.161166  26 H  s         
   425      0.157471  25 H  s               309     -0.153868  19 C  s         

 Vector   20  Occ=2.000000D+00  E=-1.084023D+00
              MO Center= -4.9D-01, -1.8D+00, -4.6D-03, r^2= 4.4D+00
   Bfn.  Coefficient  Atom+Function         Bfn.  Coefficient  Atom+Function  
  ----- ------------  ---------------      ----- ------------  ---------------
   138      0.241379   9 C  s               172      0.203665  11 C  s         
    11     -0.153156   2 C  s         

 Vector   21  Occ=2.000000D+00  E=-1.018921D+00
              MO Center=  1.2D+00, -2.3D+00,  3.2D-01, r^2= 4.9D+00
   Bfn.  Coefficient  Atom+Function         Bfn.  Coefficient  Atom+Function  
  ----- ------------  ---------------      ----- ------------  ---------------
    11      0.317658   2 C  s                55      0.153626   5 C  s         
   172      0.153710  11 C  s         

 Vector   22  Occ=2.000000D+00  E=-9.970536D-01
              MO Center= -5.6D-01,  1.2D+00,  6.5D-01, r^2= 4.2D+00
   Bfn.  Coefficient  Atom+Function         Bfn.  Coefficient  Atom+Function  
  ----- ------------  ---------------      ----- ------------  ---------------
   308      0.310535  19 C  s               309      0.191582  19 C  s         
   278      0.173986  17 N  py              139     -0.161450   9 C  s         
   353     -0.161852  22 C  s               145     -0.159853   9 C  py        
   341      0.153652  21 H  s         

 Vector   23  Occ=2.000000D+00  E=-9.047362D-01
              MO Center= -1.2D+00, -1.4D+00,  2.0D-02, r^2= 5.2D+00
   Bfn.  Coefficient  Atom+Function         Bfn.  Coefficient  Atom+Function  
  ----- ------------  ---------------      ----- ------------  ---------------
   172      0.240579  11 C  s               139     -0.216726   9 C  s         
   138     -0.205708   9 C  s               145     -0.196953   9 C  py        
   173      0.158886  11 C  s         

 Vector   24  Occ=2.000000D+00  E=-8.394365D-01
              MO Center=  3.0D-01, -1.7D+00,  9.8D-02, r^2= 3.9D+00
   Bfn.  Coefficient  Atom+Function         Bfn.  Coefficient  Atom+Function  
  ----- ------------  ---------------      ----- ------------  ---------------
   107      0.286386   7 N  px              128     -0.238794   8 H  s         
   105     -0.221276   7 N  s                54      0.213920   5 C  s         
    60     -0.210460   5 C  px              139      0.182111   9 C  s         
    12      0.170595   2 C  s                80     -0.169777   6 O  s         
   108      0.161182   7 N  py               57     -0.159264   5 C  px        

 Vector   25  Occ=2.000000D+00  E=-8.106173D-01
              MO Center= -3.1D-01,  4.4D-01,  2.9D-01, r^2= 4.4D+00
   Bfn.  Coefficient  Atom+Function         Bfn.  Coefficient  Atom+Function  
  ----- ------------  ---------------      ----- ------------  ---------------
   309     -0.230178  19 C  s               298      0.225964  18 H  s         
   277      0.219882  17 N  px              279      0.219834  17 N  pz        
   224     -0.170931  15 C  s               250      0.156414  16 O  s         

 Vector   26  Occ=2.000000D+00  E=-7.866619D-01
              MO Center=  3.4D-01,  1.8D+00, -7.9D-02, r^2= 3.7D+00
   Bfn.  Coefficient  Atom+Function         Bfn.  Coefficient  Atom+Function  
  ----- ------------  ---------------      ----- ------------  ---------------
   359      0.232328  22 C  pz              406     -0.229011  24 N  pz        
   351     -0.207709  22 C  s               298     -0.195008  18 H  s         
   315     -0.193348  19 C  py              425      0.188549  25 H  s         
   357     -0.183194  22 C  px              277     -0.171301  17 N  px        
   402      0.171220  24 N  s               404      0.166293  24 N  px        

 Vector   27  Occ=2.000000D+00  E=-7.448341D-01
              MO Center= -1.5D-01, -1.4D-01, -4.1D-02, r^2= 5.5D+00
   Bfn.  Coefficient  Atom+Function         Bfn.  Coefficient  Atom+Function  
  ----- ------------  ---------------      ----- ------------  ---------------
   145      0.331785   9 C  py              225     -0.295481  15 C  s         
   109      0.180281   7 N  pz              142      0.178547   9 C  py        
   228     -0.177699  15 C  py              405     -0.175698  24 N  py        
   434      0.152740  26 H  s               315      0.150017  19 C  py        

 Vector   28  Occ=2.000000D+00  E=-7.323026D-01
              MO Center=  6.6D-01,  1.2D-01, -2.3D-01, r^2= 7.1D+00
   Bfn.  Coefficient  Atom+Function         Bfn.  Coefficient  Atom+Function  
  ----- ------------  ---------------      ----- ------------  ---------------
   145      0.277215   9 C  py              405      0.255526  24 N  py        
   434     -0.213197  26 H  s               225     -0.198223  15 C  s         
   425      0.167744  25 H  s               435     -0.166252  26 H  s         
    57      0.163200   5 C  px              139      0.157737   9 C  s         

 Vector   29  Occ=2.000000D+00  E=-7.099535D-01
              MO Center= -2.1D-02, -7.0D-01, -3.5D-02, r^2= 7.1D+00
   Bfn.  Coefficient  Atom+Function         Bfn.  Coefficient  Atom+Function  
  ----- ------------  ---------------      ----- ------------  ---------------
   108      0.207922   7 N  py              139     -0.201388   9 C  s         
   143      0.198388   9 C  pz              162     -0.185613  10 H  s         
   226     -0.185051  15 C  s               174      0.153094  11 C  s         
    55      0.151184   5 C  s         

 Vector   30  Occ=2.000000D+00  E=-6.966755D-01
              MO Center=  1.0D+00, -6.2D-01, -3.1D-01, r^2= 6.0D+00
   Bfn.  Coefficient  Atom+Function         Bfn.  Coefficient  Atom+Function  
  ----- ------------  ---------------      ----- ------------  ---------------
    80     -0.230272   6 O  s                83     -0.217943   6 O  py        
    57      0.215151   5 C  px               84      0.187718   6 O  pz        
   405     -0.187384  24 N  py               15      0.154602   2 C  py        

 Vector   31  Occ=2.000000D+00  E=-6.628637D-01
              MO Center= -1.1D-01,  7.5D-01,  5.1D-02, r^2= 8.0D+00
   Bfn.  Coefficient  Atom+Function         Bfn.  Coefficient  Atom+Function  
  ----- ------------  ---------------      ----- ------------  ---------------
   278      0.222943  17 N  py              312     -0.194538  19 C  py        
   310     -0.180787  19 C  s               380      0.172085  23 O  py        
   276      0.169173  17 N  s               315     -0.157002  19 C  py        
   377      0.153687  23 O  s         

 Vector   32  Occ=2.000000D+00  E=-6.444930D-01
              MO Center=  1.0D+00, -1.6D+00,  1.8D-01, r^2= 6.8D+00
   Bfn.  Coefficient  Atom+Function         Bfn.  Coefficient  Atom+Function  
  ----- ------------  ---------------      ----- ------------  ---------------
   139      0.259337   9 C  s                16      0.216015   2 C  pz        
    59      0.206302   5 C  pz                1     -0.204040   1 H  s         
    44      0.189386   4 H  s                15      0.169882   2 C  py        
    83      0.158949   6 O  py        

 Vector   33  Occ=2.000000D+00  E=-6.348448D-01
              MO Center= -6.6D-01, -5.0D-02, -1.7D-01, r^2= 7.6D+00
   Bfn.  Coefficient  Atom+Function         Bfn.  Coefficient  Atom+Function  
  ----- ------------  ---------------      ----- ------------  ---------------
   252      0.261540  16 O  px              250     -0.210064  16 O  s         
   229     -0.174558  15 C  pz        

 Vector   34  Occ=2.000000D+00  E=-6.131096D-01
              MO Center= -1.3D-01,  1.0D+00,  5.0D-01, r^2= 7.4D+00
   Bfn.  Coefficient  Atom+Function         Bfn.  Coefficient  Atom+Function  
  ----- ------------  ---------------      ----- ------------  ---------------
   313      0.272566  19 C  pz              341      0.253682  21 H  s         
   310      0.190712  19 C  s               354      0.175244  22 C  px        
   353     -0.173831  22 C  s               406      0.168317  24 N  pz        
   278     -0.153134  17 N  py        

 Vector   35  Occ=2.000000D+00  E=-6.092920D-01
              MO Center=  4.1D-01, -6.1D-01, -2.8D-02, r^2= 8.2D+00
   Bfn.  Coefficient  Atom+Function         Bfn.  Coefficient  Atom+Function  
  ----- ------------  ---------------      ----- ------------  ---------------
    58      0.214114   5 C  py               83     -0.197478   6 O  py        
    82     -0.182267   6 O  px              310      0.182791  19 C  s         
   128      0.161469   8 H  s               276     -0.157422  17 N  s         
   380      0.156706  23 O  py               59     -0.155901   5 C  pz        
    80     -0.154662   6 O  s         

 Vector   36  Occ=2.000000D+00  E=-5.998383D-01
              MO Center= -1.3D-02, -3.7D-01, -6.4D-04, r^2= 9.6D+00
   Bfn.  Coefficient  Atom+Function         Bfn.  Coefficient  Atom+Function  
  ----- ------------  ---------------      ----- ------------  ---------------
   254      0.189848  16 O  pz              380     -0.184781  23 O  py        
   227     -0.166163  15 C  px               35     -0.159612   3 H  s         
   175      0.155489  11 C  px               36     -0.150457   3 H  s         

 Vector   37  Occ=2.000000D+00  E=-5.952903D-01
              MO Center=  6.8D-01, -6.7D-01,  2.3D-01, r^2= 1.1D+01
   Bfn.  Coefficient  Atom+Function         Bfn.  Coefficient  Atom+Function  
  ----- ------------  ---------------      ----- ------------  ---------------
    35      0.257536   3 H  s                14      0.223392   2 C  px        
    36      0.214657   3 H  s         

 Vector   38  Occ=2.000000D+00  E=-5.909339D-01
              MO Center= -6.9D-01,  3.8D-01,  2.2D-01, r^2= 9.1D+00
   Bfn.  Coefficient  Atom+Function         Bfn.  Coefficient  Atom+Function  
  ----- ------------  ---------------      ----- ------------  ---------------
   311      0.202039  19 C  px              332     -0.196767  20 H  s         
   176      0.184127  11 C  py              205     -0.160900  13 H  s         
   197      0.159672  12 H  s               196      0.154638  12 H  s         

 Vector   39  Occ=2.000000D+00  E=-5.669763D-01
              MO Center= -2.9D-01,  1.5D+00,  1.3D-02, r^2= 8.4D+00
   Bfn.  Coefficient  Atom+Function         Bfn.  Coefficient  Atom+Function  
  ----- ------------  ---------------      ----- ------------  ---------------
   380      0.307241  23 O  py              355     -0.259985  22 C  py        
   254      0.156940  16 O  pz              377      0.156661  23 O  s         
   139      0.155021   9 C  s               383      0.153980  23 O  py        
   405      0.150268  24 N  py        

 Vector   40  Occ=2.000000D+00  E=-5.635033D-01
              MO Center=  4.6D-01, -1.8D+00,  2.4D-01, r^2= 7.4D+00
   Bfn.  Coefficient  Atom+Function         Bfn.  Coefficient  Atom+Function  
  ----- ------------  ---------------      ----- ------------  ---------------
     1      0.208859   1 H  s               177     -0.207265  11 C  pz        
   214     -0.197360  14 H  s                16     -0.182503   2 C  pz        
    44     -0.173627   4 H  s                84      0.170288   6 O  pz        
     2      0.167960   1 H  s                15     -0.159275   2 C  py        
   108      0.150194   7 N  py        

 Vector   41  Occ=2.000000D+00  E=-5.575403D-01
              MO Center= -8.4D-01, -1.9D+00, -2.5D-02, r^2= 6.9D+00
   Bfn.  Coefficient  Atom+Function         Bfn.  Coefficient  Atom+Function  
  ----- ------------  ---------------      ----- ------------  ---------------
   175      0.305273  11 C  px              196     -0.286618  12 H  s         
   197     -0.249797  12 H  s               141     -0.204760   9 C  px        
    55      0.193489   5 C  s                35      0.186136   3 H  s         
    14      0.182193   2 C  px              107      0.180478   7 N  px        
   206      0.174820  13 H  s                12     -0.164443   2 C  s         

 Vector   42  Occ=2.000000D+00  E=-5.452738D-01
              MO Center= -1.0D+00, -1.1D+00, -4.6D-02, r^2= 6.3D+00
   Bfn.  Coefficient  Atom+Function         Bfn.  Coefficient  Atom+Function  
  ----- ------------  ---------------      ----- ------------  ---------------
   205     -0.220585  13 H  s               206     -0.219615  13 H  s         
   176      0.209912  11 C  py              252      0.199902  16 O  px        
   228      0.197981  15 C  py              215      0.182711  14 H  s         

 Vector   43  Occ=2.000000D+00  E=-5.236459D-01
              MO Center= -2.7D-01,  9.7D-01,  8.3D-02, r^2= 7.8D+00
   Bfn.  Coefficient  Atom+Function         Bfn.  Coefficient  Atom+Function  
  ----- ------------  ---------------      ----- ------------  ---------------
   341     -0.185961  21 H  s               381      0.182455  23 O  pz        
   404      0.172738  24 N  px              333      0.171806  20 H  s         
   313     -0.159222  19 C  pz              143     -0.155651   9 C  pz        
   174      0.151192  11 C  s         

 Vector   44  Occ=2.000000D+00  E=-5.127542D-01
              MO Center= -3.3D-01,  8.4D-01,  2.6D-02, r^2= 7.5D+00
   Bfn.  Coefficient  Atom+Function         Bfn.  Coefficient  Atom+Function  
  ----- ------------  ---------------      ----- ------------  ---------------
   342      0.195660  21 H  s               332     -0.194029  20 H  s         
   311      0.191309  19 C  px              379     -0.192209  23 O  px        
   139      0.159185   9 C  s               143     -0.157009   9 C  pz        
   162      0.153463  10 H  s               354     -0.153328  22 C  px        

 Vector   45  Occ=2.000000D+00  E=-4.578236D-01
              MO Center=  4.1D-01, -8.3D-01, -3.1D-01, r^2= 5.1D+00
   Bfn.  Coefficient  Atom+Function         Bfn.  Coefficient  Atom+Function  
  ----- ------------  ---------------      ----- ------------  ---------------
    82      0.306907   6 O  px               85      0.249299   6 O  px        
   139      0.229738   9 C  s                83     -0.214516   6 O  py        
   253      0.214529  16 O  py              109      0.208220   7 N  pz        
   256      0.172763  16 O  py              108      0.167492   7 N  py        
   111      0.167410   7 N  py              112      0.167086   7 N  pz        

 Vector   46  Occ=2.000000D+00  E=-4.562904D-01
              MO Center=  4.7D-01, -9.4D-01, -4.4D-01, r^2= 4.7D+00
   Bfn.  Coefficient  Atom+Function         Bfn.  Coefficient  Atom+Function  
  ----- ------------  ---------------      ----- ------------  ---------------
    82      0.376579   6 O  px               85      0.299879   6 O  px        
    84      0.214160   6 O  pz              109     -0.204525   7 N  pz        
   253     -0.204442  16 O  py              254     -0.203619  16 O  pz        
   112     -0.187193   7 N  pz               87      0.163240   6 O  pz        
   256     -0.162279  16 O  py              257     -0.155925  16 O  pz        

 Vector   47  Occ=2.000000D+00  E=-4.351065D-01
              MO Center= -4.2D-01,  1.4D+00, -4.3D-02, r^2= 6.5D+00
   Bfn.  Coefficient  Atom+Function         Bfn.  Coefficient  Atom+Function  
  ----- ------------  ---------------      ----- ------------  ---------------
   381     -0.292554  23 O  pz              254      0.285209  16 O  pz        
   384     -0.222899  23 O  pz              257      0.220030  16 O  pz        
   277      0.213372  17 N  px              379      0.204714  23 O  px        
   333     -0.189519  20 H  s               280      0.178291  17 N  px        
    82      0.168547   6 O  px              382      0.158573  23 O  px        

 Vector   48  Occ=2.000000D+00  E=-4.136372D-01
              MO Center= -6.7D-01, -1.7D-01, -2.7D-01, r^2= 5.8D+00
   Bfn.  Coefficient  Atom+Function         Bfn.  Coefficient  Atom+Function  
  ----- ------------  ---------------      ----- ------------  ---------------
   253      0.335520  16 O  py              256      0.259827  16 O  py        
   109     -0.217263   7 N  pz              145      0.209006   9 C  py        
   112     -0.203750   7 N  pz              108     -0.197369   7 N  py        
   139      0.180518   9 C  s               111     -0.174336   7 N  py        
    84      0.169890   6 O  pz              142      0.165434   9 C  py        

 Vector   49  Occ=2.000000D+00  E=-3.902735D-01
              MO Center=  8.0D-01,  2.9D+00, -3.7D-01, r^2= 2.3D+00
   Bfn.  Coefficient  Atom+Function         Bfn.  Coefficient  Atom+Function  
  ----- ------------  ---------------      ----- ------------  ---------------
   379      0.368195  23 O  px              404     -0.322242  24 N  px        
   406     -0.288398  24 N  pz              382      0.285113  23 O  px        
   407     -0.284458  24 N  px              409     -0.233676  24 N  pz        
   381      0.175739  23 O  pz        

 Vector   50  Occ=2.000000D+00  E=-3.860274D-01
              MO Center= -2.4D-01,  2.1D+00,  2.1D-01, r^2= 4.6D+00
   Bfn.  Coefficient  Atom+Function         Bfn.  Coefficient  Atom+Function  
  ----- ------------  ---------------      ----- ------------  ---------------
   276      0.339716  17 N  s               381     -0.336888  23 O  pz        
   310     -0.290963  19 C  s               384     -0.262261  23 O  pz        
   279      0.244030  17 N  pz              282      0.223618  17 N  pz        
   353      0.220683  22 C  s               277     -0.212330  17 N  px        
   280     -0.200653  17 N  px              379      0.169689  23 O  px        

 Vector   51  Occ=0.000000D+00  E= 1.411736D-02
              MO Center=  6.6D-01, -3.9D+00,  1.7D+00, r^2= 1.7D+01
   Bfn.  Coefficient  Atom+Function         Bfn.  Coefficient  Atom+Function  
  ----- ------------  ---------------      ----- ------------  ---------------
   226      3.385285  15 C  s               140      1.917980   9 C  s         
    46     -1.888561   4 H  s                12      1.815661   2 C  s         
    56      1.690541   5 C  s               106     -1.663016   7 N  s         
    63      1.629014   5 C  px              207     -1.437301  13 H  s         
   173      1.294298  11 C  s                64     -1.206593   5 C  py        

 Vector   52  Occ=0.000000D+00  E= 2.997237D-02
              MO Center=  1.5D-01, -2.9D+00,  1.1D+00, r^2= 2.6D+01
   Bfn.  Coefficient  Atom+Function         Bfn.  Coefficient  Atom+Function  
  ----- ------------  ---------------      ----- ------------  ---------------
   234      3.775439  15 C  py              207      2.978142  13 H  s         
   106      2.902865   7 N  s                46     -2.724080   4 H  s         
   310     -2.546801  19 C  s               233      2.294205  15 C  px        
     3      2.156820   1 H  s               343     -2.106661  21 H  s         
   216     -1.773962  14 H  s               235      1.551493  15 C  pz        

 Vector   53  Occ=0.000000D+00  E= 3.374128D-02
              MO Center=  9.3D-01, -3.2D+00,  9.8D-01, r^2= 3.0D+01
   Bfn.  Coefficient  Atom+Function         Bfn.  Coefficient  Atom+Function  
  ----- ------------  ---------------      ----- ------------  ---------------
    63      3.517726   5 C  px              147      2.989353   9 C  px        
    12      2.210997   2 C  s               216      2.206582  14 H  s         
    37     -2.123169   3 H  s               106      2.109229   7 N  s         
   173     -2.081535  11 C  s               276      1.859852  17 N  s         
     3     -1.780132   1 H  s               215      1.708574  14 H  s         

 Vector   54  Occ=0.000000D+00  E= 4.270473D-02
              MO Center= -1.4D-01, -1.5D+00,  4.1D-02, r^2= 3.3D+01
   Bfn.  Coefficient  Atom+Function         Bfn.  Coefficient  Atom+Function  
  ----- ------------  ---------------      ----- ------------  ---------------
   130      3.080536   8 H  s               353      2.447881  22 C  s         
    37     -2.288483   3 H  s               310      1.982009  19 C  s         
   164     -1.921836  10 H  s               198     -1.634754  12 H  s         
   343     -1.639822  21 H  s                64      1.362169   5 C  py        
   174      1.355418  11 C  s               106      1.331278   7 N  s         

 Vector   55  Occ=0.000000D+00  E= 5.260286D-02
              MO Center=  2.1D-01, -1.7D+00,  1.1D+00, r^2= 3.5D+01
   Bfn.  Coefficient  Atom+Function         Bfn.  Coefficient  Atom+Function  
  ----- ------------  ---------------      ----- ------------  ---------------
    56      5.091975   5 C  s                63     -3.987925   5 C  px        
   174     -3.917470  11 C  s                37      3.211556   3 H  s         
   106     -3.087034   7 N  s               164     -2.637200  10 H  s         
   353      2.557741  22 C  s               343     -2.453025  21 H  s         
   216      2.408476  14 H  s               147     -2.137189   9 C  px        

 Vector   56  Occ=0.000000D+00  E= 5.505712D-02
              MO Center= -1.9D-01, -2.4D+00,  1.3D+00, r^2= 3.3D+01
   Bfn.  Coefficient  Atom+Function         Bfn.  Coefficient  Atom+Function  
  ----- ------------  ---------------      ----- ------------  ---------------
    46      4.112258   4 H  s               234      4.125242  15 C  py        
   216     -3.882050  14 H  s                 3     -3.662129   1 H  s         
   276     -3.229991  17 N  s               207      2.907990  13 H  s         
   233      2.837378  15 C  px              147     -2.564713   9 C  px        
   235      2.005370  15 C  pz               56      1.901776   5 C  s         

 Vector   57  Occ=0.000000D+00  E= 5.734516D-02
              MO Center=  1.6D+00,  6.5D-01, -1.2D+00, r^2= 3.3D+01
   Bfn.  Coefficient  Atom+Function         Bfn.  Coefficient  Atom+Function  
  ----- ------------  ---------------      ----- ------------  ---------------
   427      3.009621  25 H  s               130      2.943811   8 H  s         
   226     -2.686371  15 C  s               403      2.488893  24 N  s         
   362      2.466497  22 C  pz                3     -2.368772   1 H  s         
   198     -2.148750  12 H  s               343     -1.955436  21 H  s         
   360     -1.811333  22 C  px               13      1.678760   2 C  s         

 Vector   58  Occ=0.000000D+00  E= 6.090425D-02
              MO Center= -7.1D-01, -2.0D+00, -5.1D-01, r^2= 3.3D+01
   Bfn.  Coefficient  Atom+Function         Bfn.  Coefficient  Atom+Function  
  ----- ------------  ---------------      ----- ------------  ---------------
   207      5.560980  13 H  s               164     -5.036599  10 H  s         
    13      4.983591   2 C  s               226     -4.972740  15 C  s         
   149     -4.004090   9 C  pz               63     -3.951319   5 C  px        
   113     -3.151640   7 N  px               37      2.854603   3 H  s         
   353     -2.352634  22 C  s               276      2.263022  17 N  s         

 Vector   59  Occ=0.000000D+00  E= 6.702898D-02
              MO Center=  3.2D-01,  2.4D-01,  6.5D-02, r^2= 3.7D+01
   Bfn.  Coefficient  Atom+Function         Bfn.  Coefficient  Atom+Function  
  ----- ------------  ---------------      ----- ------------  ---------------
   353      6.335471  22 C  s               300      4.482237  18 H  s         
   276      3.334617  17 N  s               310     -3.145983  19 C  s         
   403     -2.950023  24 N  s                46     -2.666888   4 H  s         
    37      2.628400   3 H  s               164      2.579681  10 H  s         
   198     -2.586273  12 H  s               216      2.469139  14 H  s         

 Vector   60  Occ=0.000000D+00  E= 7.762441D-02
              MO Center= -6.4D-01,  2.1D-01,  5.7D-01, r^2= 3.9D+01
   Bfn.  Coefficient  Atom+Function         Bfn.  Coefficient  Atom+Function  
  ----- ------------  ---------------      ----- ------------  ---------------
   300     -4.372605  18 H  s               334      4.373497  20 H  s         
    56      4.195777   5 C  s                 3     -3.704573   1 H  s         
   198     -3.354461  12 H  s                37      3.298782   3 H  s         
   164      3.151228  10 H  s               149      2.977149   9 C  pz        
   174     -2.779377  11 C  s               310     -2.474661  19 C  s         

 Vector   61  Occ=0.000000D+00  E= 8.096907D-02
              MO Center= -1.2D+00, -2.2D+00,  5.9D-01, r^2= 3.2D+01
   Bfn.  Coefficient  Atom+Function         Bfn.  Coefficient  Atom+Function  
  ----- ------------  ---------------      ----- ------------  ---------------
   198      6.140484  12 H  s               130      5.218798   8 H  s         
   174      4.774740  11 C  s               216     -4.703118  14 H  s         
    46     -4.028831   4 H  s                56     -3.802937   5 C  s         
   149     -2.851522   9 C  pz              300      2.784766  18 H  s         
   207     -2.704002  13 H  s               353     -2.624147  22 C  s         

 Vector   62  Occ=0.000000D+00  E= 8.596458D-02
              MO Center= -4.9D-01,  8.0D-01,  1.7D+00, r^2= 3.2D+01
   Bfn.  Coefficient  Atom+Function         Bfn.  Coefficient  Atom+Function  
  ----- ------------  ---------------      ----- ------------  ---------------
   174      8.146386  11 C  s               226     -7.765564  15 C  s         
   300      7.326856  18 H  s               343     -7.326063  21 H  s         
   353      6.108489  22 C  s               276      5.849116  17 N  s         
   140     -5.666619   9 C  s               310     -5.258208  19 C  s         
    56     -4.856086   5 C  s               207      4.768498  13 H  s         

 Vector   63  Occ=0.000000D+00  E= 9.953089D-02
              MO Center=  2.9D-01, -3.9D-02,  1.4D-01, r^2= 3.1D+01
   Bfn.  Coefficient  Atom+Function         Bfn.  Coefficient  Atom+Function  
  ----- ------------  ---------------      ----- ------------  ---------------
   310     20.055268  19 C  s               353    -18.909076  22 C  s         
   436      9.407507  26 H  s               174     -5.427702  11 C  s         
   319     -4.665714  19 C  pz              427     -4.201667  25 H  s         
   284     -3.586098  17 N  py              234     -3.475809  15 C  py        
   361      3.479716  22 C  py              233     -3.458280  15 C  px        

 Vector   64  Occ=0.000000D+00  E= 1.070991D-01
              MO Center=  6.5D-01,  1.8D+00, -4.0D-01, r^2= 2.9D+01
   Bfn.  Coefficient  Atom+Function         Bfn.  Coefficient  Atom+Function  
  ----- ------------  ---------------      ----- ------------  ---------------
   353    -18.073305  22 C  s               310     17.896401  19 C  s         
   276     -6.065508  17 N  s               436     -5.769778  26 H  s         
   317      4.803006  19 C  px              319     -4.325616  19 C  pz        
    56      4.182539   5 C  s               403      4.024643  24 N  s         
   361      3.808276  22 C  py               63     -3.773986   5 C  px        

 Vector   65  Occ=0.000000D+00  E= 1.128717D-01
              MO Center=  5.2D-01, -1.2D+00, -1.1D+00, r^2= 2.5D+01
   Bfn.  Coefficient  Atom+Function         Bfn.  Coefficient  Atom+Function  
  ----- ------------  ---------------      ----- ------------  ---------------
   226      7.422115  15 C  s               147      5.725109   9 C  px        
   106     -5.367832   7 N  s               436     -4.050560  26 H  s         
   148     -3.759080   9 C  py               63      3.276561   5 C  px        
    56     -2.569110   5 C  s               300     -2.559073  18 H  s         
   140      2.438851   9 C  s               174      2.420560  11 C  s         

 Vector   66  Occ=0.000000D+00  E= 1.224657D-01
              MO Center= -1.3D+00, -1.5D+00,  8.8D-01, r^2= 3.0D+01
   Bfn.  Coefficient  Atom+Function         Bfn.  Coefficient  Atom+Function  
  ----- ------------  ---------------      ----- ------------  ---------------
   226     24.280294  15 C  s               174    -19.767243  11 C  s         
    56     18.122599   5 C  s               140     12.326361   9 C  s         
   310    -10.260055  19 C  s               106     -9.588829   7 N  s         
   234     -7.928785  15 C  py              148     -7.336481   9 C  py        
    13     -7.117110   2 C  s               284      6.990069  17 N  py        

 Vector   67  Occ=0.000000D+00  E= 1.248671D-01
              MO Center=  1.3D+00, -1.8D+00,  7.0D-01, r^2= 2.4D+01
   Bfn.  Coefficient  Atom+Function         Bfn.  Coefficient  Atom+Function  
  ----- ------------  ---------------      ----- ------------  ---------------
   226     11.196955  15 C  s               140      6.186934   9 C  s         
   148     -5.653291   9 C  py               56      5.436901   5 C  s         
   106     -5.203905   7 N  s               353      5.020270  22 C  s         
    63      4.817960   5 C  px              276     -4.808751  17 N  s         
    13     -4.244518   2 C  s               174     -3.997973  11 C  s         

 Vector   68  Occ=0.000000D+00  E= 1.348288D-01
              MO Center= -4.9D-01, -6.0D-01, -6.1D-02, r^2= 2.9D+01
   Bfn.  Coefficient  Atom+Function         Bfn.  Coefficient  Atom+Function  
  ----- ------------  ---------------      ----- ------------  ---------------
   310     15.691476  19 C  s               226    -12.497532  15 C  s         
    13      9.808529   2 C  s               140     -9.544882   9 C  s         
    63     -8.520644   5 C  px              284     -8.395666  17 N  py        
   106     -8.046737   7 N  s               233     -7.713642  15 C  px        
   174      6.707188  11 C  s               276      5.154282  17 N  s         

 Vector   69  Occ=0.000000D+00  E= 1.409757D-01
              MO Center=  7.0D-01, -1.3D-01,  1.3D-01, r^2= 3.4D+01
   Bfn.  Coefficient  Atom+Function         Bfn.  Coefficient  Atom+Function  
  ----- ------------  ---------------      ----- ------------  ---------------
   353    -14.850369  22 C  s               310     14.627934  19 C  s         
   403      7.114780  24 N  s                56     -6.910304   5 C  s         
   361      6.842928  22 C  py              147      6.774844   9 C  px        
   174      5.276535  11 C  s               276     -5.204422  17 N  s         
    63      5.121259   5 C  px              436      4.834347  26 H  s         

 Vector   70  Occ=0.000000D+00  E= 1.455969D-01
              MO Center=  3.4D-01, -1.3D+00,  1.1D-01, r^2= 2.0D+01
   Bfn.  Coefficient  Atom+Function         Bfn.  Coefficient  Atom+Function  
  ----- ------------  ---------------      ----- ------------  ---------------
   436     -6.319328  26 H  s                63      5.746287   5 C  px        
   174     -4.645119  11 C  s               147      4.509625   9 C  px        
   164      4.154755  10 H  s               353      3.481563  22 C  s         
   173     -3.438363  11 C  s               148     -3.392525   9 C  py        
    65      3.062284   5 C  pz              234     -3.069654  15 C  py        

 Vector   71  Occ=0.000000D+00  E= 1.465978D-01
              MO Center=  4.8D-01, -1.8D+00,  2.9D-01, r^2= 2.4D+01
   Bfn.  Coefficient  Atom+Function         Bfn.  Coefficient  Atom+Function  
  ----- ------------  ---------------      ----- ------------  ---------------
    64      5.014427   5 C  py               12     -4.292412   2 C  s         
    46      3.899411   4 H  s               148     -3.880111   9 C  py        
    63     -3.768320   5 C  px               45      3.515920   4 H  s         
   106     -3.413804   7 N  s               234     -3.361706  15 C  py        
   226      3.316746  15 C  s                22     -3.158849   2 C  pz        

 Vector   72  Occ=0.000000D+00  E= 1.487787D-01
              MO Center= -1.2D+00, -6.3D-01,  3.4D-01, r^2= 3.0D+01
   Bfn.  Coefficient  Atom+Function         Bfn.  Coefficient  Atom+Function  
  ----- ------------  ---------------      ----- ------------  ---------------
   436     -6.729158  26 H  s               310      6.323596  19 C  s         
   147     -5.117862   9 C  px              106      4.978959   7 N  s         
   353      4.957248  22 C  s               216     -4.852726  14 H  s         
   276     -4.802036  17 N  s               174     -4.511477  11 C  s         
   181     -4.239607  11 C  px               56      3.936921   5 C  s         

 Vector   73  Occ=0.000000D+00  E= 1.508436D-01
              MO Center=  1.2D+00, -1.3D+00,  1.3D-01, r^2= 2.8D+01
   Bfn.  Coefficient  Atom+Function         Bfn.  Coefficient  Atom+Function  
  ----- ------------  ---------------      ----- ------------  ---------------
    63      8.929837   5 C  px              353      7.408929  22 C  s         
   106      7.038998   7 N  s               403     -6.723546  24 N  s         
   147      6.188685   9 C  px              276      5.779063  17 N  s         
   436     -4.694724  26 H  s               300      4.237136  18 H  s         
    12      4.140645   2 C  s               361     -3.969895  22 C  py        

 Vector   74  Occ=0.000000D+00  E= 1.563526D-01
              MO Center= -1.8D-01, -6.1D-01,  1.2D-01, r^2= 2.8D+01
   Bfn.  Coefficient  Atom+Function         Bfn.  Coefficient  Atom+Function  
  ----- ------------  ---------------      ----- ------------  ---------------
   310      8.438620  19 C  s               130      4.590764   8 H  s         
   284     -4.526724  17 N  py              276     -4.260210  17 N  s         
    13     -4.174984   2 C  s               140      3.708634   9 C  s         
   148     -3.699450   9 C  py              174     -3.550401  11 C  s         
    63      3.479307   5 C  px              353     -3.403376  22 C  s         

 Vector   75  Occ=0.000000D+00  E= 1.600898D-01
              MO Center=  6.3D-01, -4.2D-01,  1.4D+00, r^2= 2.8D+01
   Bfn.  Coefficient  Atom+Function         Bfn.  Coefficient  Atom+Function  
  ----- ------------  ---------------      ----- ------------  ---------------
   310     14.814789  19 C  s               234    -12.036571  15 C  py        
    56     -8.917806   5 C  s               353     -7.226382  22 C  s         
    63      6.238552   5 C  px              235     -4.915861  15 C  pz        
   233     -4.864818  15 C  px              149      4.481962   9 C  pz        
   147      4.423449   9 C  px              319     -4.413514  19 C  pz        

 Vector   76  Occ=0.000000D+00  E= 1.611083D-01
              MO Center=  4.8D-01, -2.8D-01, -1.6D-01, r^2= 2.9D+01
   Bfn.  Coefficient  Atom+Function         Bfn.  Coefficient  Atom+Function  
  ----- ------------  ---------------      ----- ------------  ---------------
   148      8.218254   9 C  py              174      7.686156  11 C  s         
   403     -7.647879  24 N  s               353      7.386447  22 C  s         
   300     -6.280330  18 H  s               362     -5.672306  22 C  pz        
    13      5.473531   2 C  s               318      5.054147  19 C  py        
   113     -4.997555   7 N  px               65      4.572943   5 C  pz        

 Vector   77  Occ=0.000000D+00  E= 1.634015D-01
              MO Center=  9.2D-01, -2.9D-01,  4.5D-01, r^2= 2.9D+01
   Bfn.  Coefficient  Atom+Function         Bfn.  Coefficient  Atom+Function  
  ----- ------------  ---------------      ----- ------------  ---------------
   234      5.190816  15 C  py              436     -4.934827  26 H  s         
   130     -4.807237   8 H  s                20     -4.608673   2 C  px        
   310     -4.587126  19 C  s               174      4.368296  11 C  s         
    37      4.323803   3 H  s               362      4.202260  22 C  pz        
   360     -3.763527  22 C  px              207      3.644477  13 H  s         

 Vector   78  Occ=0.000000D+00  E= 1.664092D-01
              MO Center=  7.8D-01, -1.7D-01, -2.6D-01, r^2= 2.7D+01
   Bfn.  Coefficient  Atom+Function         Bfn.  Coefficient  Atom+Function  
  ----- ------------  ---------------      ----- ------------  ---------------
   174    -10.848144  11 C  s                56     10.545922   5 C  s         
   403     -9.854337  24 N  s               106     -9.512669   7 N  s         
   226      9.385540  15 C  s                63     -6.952342   5 C  px        
   233      6.043702  15 C  px              276     -5.506861  17 N  s         
   353      4.943960  22 C  s                12     -4.862831   2 C  s         

 Vector   79  Occ=0.000000D+00  E= 1.689695D-01
              MO Center= -2.0D-02, -1.4D+00,  3.2D-01, r^2= 2.7D+01
   Bfn.  Coefficient  Atom+Function         Bfn.  Coefficient  Atom+Function  
  ----- ------------  ---------------      ----- ------------  ---------------
    63     -7.721405   5 C  px               13      7.331590   2 C  s         
   113     -6.665659   7 N  px              310     -6.357523  19 C  s         
   226     -5.793594  15 C  s               353     -4.993799  22 C  s         
   148      4.255491   9 C  py              276      4.053525  17 N  s         
   130      3.976983   8 H  s                56      3.863626   5 C  s         

 Vector   80  Occ=0.000000D+00  E= 1.718836D-01
              MO Center= -5.5D-01, -1.0D+00, -5.5D-01, r^2= 2.5D+01
   Bfn.  Coefficient  Atom+Function         Bfn.  Coefficient  Atom+Function  
  ----- ------------  ---------------      ----- ------------  ---------------
   226     11.331419  15 C  s                63      9.546653   5 C  px        
    13     -9.082719   2 C  s               140      7.590347   9 C  s         
    56     -6.168489   5 C  s               164      5.289881  10 H  s         
   310     -5.283854  19 C  s               284      5.099627  17 N  py        
   148     -4.855174   9 C  py               64     -4.593265   5 C  py        

 Vector   81  Occ=0.000000D+00  E= 1.782474D-01
              MO Center= -9.1D-01,  5.4D-01,  1.1D-01, r^2= 2.3D+01
   Bfn.  Coefficient  Atom+Function         Bfn.  Coefficient  Atom+Function  
  ----- ------------  ---------------      ----- ------------  ---------------
   353     11.762226  22 C  s               310     -9.610267  19 C  s         
   174     -9.216587  11 C  s               148     -8.901204   9 C  py        
   226      8.502595  15 C  s               276      7.486800  17 N  s         
   235     -6.601256  15 C  pz              300      5.465463  18 H  s         
   319      4.553927  19 C  pz              343     -4.388461  21 H  s         

 Vector   82  Occ=0.000000D+00  E= 1.819389D-01
              MO Center= -1.0D+00, -5.1D-01,  4.5D-01, r^2= 2.3D+01
   Bfn.  Coefficient  Atom+Function         Bfn.  Coefficient  Atom+Function  
  ----- ------------  ---------------      ----- ------------  ---------------
   310    -11.862316  19 C  s               300     10.961373  18 H  s         
   353      8.858361  22 C  s               276      8.330819  17 N  s         
   318      5.326129  19 C  py              198      5.080597  12 H  s         
   106      4.675294   7 N  s               149     -4.691164   9 C  pz        
   234      4.214593  15 C  py              403     -3.932682  24 N  s         

 Vector   83  Occ=0.000000D+00  E= 1.860852D-01
              MO Center=  9.1D-02, -2.8D-02, -8.0D-02, r^2= 2.5D+01
   Bfn.  Coefficient  Atom+Function         Bfn.  Coefficient  Atom+Function  
  ----- ------------  ---------------      ----- ------------  ---------------
   310     13.856686  19 C  s               276    -11.080623  17 N  s         
   436      8.492251  26 H  s               226     -7.698546  15 C  s         
   353     -7.561303  22 C  s               318     -6.944369  19 C  py        
   300     -5.451068  18 H  s               284     -5.302534  17 N  py        
    64     -4.722873   5 C  py              235      4.529705  15 C  pz        

 Vector   84  Occ=0.000000D+00  E= 1.898465D-01
              MO Center= -1.0D-01,  1.1D+00,  5.1D-01, r^2= 2.0D+01
   Bfn.  Coefficient  Atom+Function         Bfn.  Coefficient  Atom+Function  
  ----- ------------  ---------------      ----- ------------  ---------------
   174     14.307610  11 C  s               234      9.642062  15 C  py        
   310     -8.983426  19 C  s               300      8.377846  18 H  s         
   106      7.736710   7 N  s                56     -7.255739   5 C  s         
   148      6.813475   9 C  py              318      6.686556  19 C  py        
   149     -6.477813   9 C  pz              226     -6.349611  15 C  s         

 Vector   85  Occ=0.000000D+00  E= 1.904654D-01
              MO Center= -3.9D-01, -1.8D+00, -4.3D-01, r^2= 2.6D+01
   Bfn.  Coefficient  Atom+Function         Bfn.  Coefficient  Atom+Function  
  ----- ------------  ---------------      ----- ------------  ---------------
   149      8.509647   9 C  pz              183     -6.422648  11 C  pz        
   216      5.515590  14 H  s               148      4.883670   9 C  py        
   147      4.483359   9 C  px              207     -4.367386  13 H  s         
    46     -4.266727   4 H  s                65     -4.114490   5 C  pz        
    22      3.987231   2 C  pz              403     -3.633972  24 N  s         

 Vector   86  Occ=0.000000D+00  E= 2.008793D-01
              MO Center= -6.4D-01, -1.6D+00,  6.7D-03, r^2= 2.4D+01
   Bfn.  Coefficient  Atom+Function         Bfn.  Coefficient  Atom+Function  
  ----- ------------  ---------------      ----- ------------  ---------------
   147     19.336863   9 C  px               56    -14.098676   5 C  s         
   233    -12.587548  15 C  px              234     -8.892191  15 C  py        
    63      7.537490   5 C  px               13     -6.861009   2 C  s         
   276      6.613006  17 N  s               113      6.123081   7 N  px        
   353      6.139102  22 C  s               226      5.357499  15 C  s         

 Vector   87  Occ=0.000000D+00  E= 2.044861D-01
              MO Center= -1.1D-01, -4.9D-01,  5.3D-01, r^2= 2.2D+01
   Bfn.  Coefficient  Atom+Function         Bfn.  Coefficient  Atom+Function  
  ----- ------------  ---------------      ----- ------------  ---------------
   226     18.867725  15 C  s               174    -15.489082  11 C  s         
   148    -10.550107   9 C  py              140      9.966937   9 C  s         
    13     -9.792561   2 C  s                56      7.198728   5 C  s         
    63      5.820897   5 C  px              114      5.146241   7 N  py        
   234     -4.189810  15 C  py              149      4.136763   9 C  pz        

 Vector   88  Occ=0.000000D+00  E= 2.063092D-01
              MO Center=  1.1D+00,  1.1D+00, -7.6D-01, r^2= 2.3D+01
   Bfn.  Coefficient  Atom+Function         Bfn.  Coefficient  Atom+Function  
  ----- ------------  ---------------      ----- ------------  ---------------
   226    -10.788066  15 C  s               174      9.920893  11 C  s         
   148      8.471556   9 C  py               13      7.959213   2 C  s         
   235      6.600297  15 C  pz              140     -6.424811   9 C  s         
    56     -4.872380   5 C  s               276      4.827289  17 N  s         
   149     -4.720196   9 C  pz              234      4.734048  15 C  py        

 Vector   89  Occ=0.000000D+00  E= 2.108052D-01
              MO Center= -1.6D+00,  1.1D+00,  1.3D-01, r^2= 2.1D+01
   Bfn.  Coefficient  Atom+Function         Bfn.  Coefficient  Atom+Function  
  ----- ------------  ---------------      ----- ------------  ---------------
   276     15.770955  17 N  s               140    -11.367982   9 C  s         
   226     -9.367141  15 C  s               235     -8.950952  15 C  pz        
   234     -8.375471  15 C  py              353      7.592432  22 C  s         
   148     -5.380636   9 C  py              233     -5.162270  15 C  px        
    13      5.053361   2 C  s               149      4.881758   9 C  pz        

 Vector   90  Occ=0.000000D+00  E= 2.133422D-01
              MO Center= -4.5D-01,  8.1D-02, -2.1D-01, r^2= 2.5D+01
   Bfn.  Coefficient  Atom+Function         Bfn.  Coefficient  Atom+Function  
  ----- ------------  ---------------      ----- ------------  ---------------
   174     22.347593  11 C  s                56    -11.795913   5 C  s         
   226    -11.318989  15 C  s               148      9.337285   9 C  py        
   318      9.334063  19 C  py               13      8.806799   2 C  s         
   353     -8.045080  22 C  s               149     -7.935750   9 C  pz        
   235      7.809086  15 C  pz              234      7.360259  15 C  py        

 Vector   91  Occ=0.000000D+00  E= 2.251366D-01
              MO Center=  5.1D-02, -1.3D+00,  2.8D-01, r^2= 2.0D+01
   Bfn.  Coefficient  Atom+Function         Bfn.  Coefficient  Atom+Function  
  ----- ------------  ---------------      ----- ------------  ---------------
   310     12.206667  19 C  s               353     -7.503362  22 C  s         
    56     -6.977236   5 C  s               149     -7.011901   9 C  pz        
   106      6.392814   7 N  s               148     -6.253907   9 C  py        
   164     -6.021092  10 H  s               234      5.396960  15 C  py        
   284     -5.186071  17 N  py              436      4.901109  26 H  s         

 Vector   92  Occ=0.000000D+00  E= 2.299719D-01
              MO Center= -2.6D-02, -8.9D-03, -4.0D-01, r^2= 2.1D+01
   Bfn.  Coefficient  Atom+Function         Bfn.  Coefficient  Atom+Function  
  ----- ------------  ---------------      ----- ------------  ---------------
    56     16.933368   5 C  s                63    -15.299996   5 C  px        
   147    -15.062912   9 C  px              226    -12.225250  15 C  s         
    13     10.612733   2 C  s               234      9.681956  15 C  py        
   310     -8.230793  19 C  s               113     -7.984756   7 N  px        
   174     -7.842773  11 C  s               235      7.810894  15 C  pz        

 Vector   93  Occ=0.000000D+00  E= 2.437537D-01
              MO Center= -6.4D-01,  8.8D-01,  3.0D-01, r^2= 2.5D+01
   Bfn.  Coefficient  Atom+Function         Bfn.  Coefficient  Atom+Function  
  ----- ------------  ---------------      ----- ------------  ---------------
   310     50.252950  19 C  s               353    -39.004434  22 C  s         
   226    -29.043517  15 C  s               174     23.118899  11 C  s         
[...]
    45    -10.176682   4 H  s                 2     -9.644979   1 H  s         
    36     -9.134782   3 H  s               353     -8.054804  22 C  s         
   226     -7.484828  15 C  s                13      6.285545   2 C  s         
   106     -6.221400   7 N  s               310      5.694582  19 C  s         

 Vector  124  Occ=0.000000D+00  E= 4.137586D-01
              MO Center= -2.0D-01, -1.1D+00,  6.4D-02, r^2= 1.8D+01
   Bfn.  Coefficient  Atom+Function         Bfn.  Coefficient  Atom+Function  
  ----- ------------  ---------------      ----- ------------  ---------------
   284      7.046235  17 N  py              235      6.256741  15 C  pz        
   403     -5.468330  24 N  s               310     -5.237114  19 C  s         
   148      4.976365   9 C  py               12     -4.556847   2 C  s         
   197      4.512146  12 H  s               163      4.221561  10 H  s         
   318      4.000559  19 C  py              173     -3.929290  11 C  s         

 Vector  125  Occ=0.000000D+00  E= 4.166960D-01
              MO Center= -1.4D-01, -3.5D-01,  3.9D-01, r^2= 1.9D+01
   Bfn.  Coefficient  Atom+Function         Bfn.  Coefficient  Atom+Function  
  ----- ------------  ---------------      ----- ------------  ---------------
   234     15.038335  15 C  py              310    -13.429218  19 C  s         
   147    -10.830693   9 C  px              113     -9.915100   7 N  px        
   276      9.269711  17 N  s                13      8.509258   2 C  s         
    56      8.240833   5 C  s               233      7.494905  15 C  px        
    63     -7.429262   5 C  px              106      6.759933   7 N  s         

 Vector  126  Occ=0.000000D+00  E= 4.176121D-01
              MO Center=  4.9D-02, -1.3D+00,  7.9D-02, r^2= 1.8D+01
   Bfn.  Coefficient  Atom+Function         Bfn.  Coefficient  Atom+Function  
  ----- ------------  ---------------      ----- ------------  ---------------
   310     19.765189  19 C  s               174     16.711685  11 C  s         
   173     10.965483  11 C  s               353    -10.860071  22 C  s         
   226    -10.752892  15 C  s                13      9.596426   2 C  s         
    56     -9.537575   5 C  s               403      9.154634  24 N  s         
   206     -9.019741  13 H  s               276     -8.834172  17 N  s         

 Vector  127  Occ=0.000000D+00  E= 4.246864D-01
              MO Center=  5.2D-01, -1.4D+00,  2.2D-01, r^2= 1.8D+01
   Bfn.  Coefficient  Atom+Function         Bfn.  Coefficient  Atom+Function  
  ----- ------------  ---------------      ----- ------------  ---------------
   226     19.378055  15 C  s               276    -17.743638  17 N  s         
    13    -14.863010   2 C  s               140     12.387541   9 C  s         
    63     10.455959   5 C  px              113      9.881159   7 N  px        
    56     -9.086202   5 C  s               309      7.262163  19 C  s         
     2      6.927536   1 H  s               147      6.911945   9 C  px        

 Vector  128  Occ=0.000000D+00  E= 4.288224D-01
              MO Center=  7.9D-01,  6.4D-01, -1.9D-01, r^2= 1.7D+01
   Bfn.  Coefficient  Atom+Function         Bfn.  Coefficient  Atom+Function  
  ----- ------------  ---------------      ----- ------------  ---------------
   353    -25.642328  22 C  s               310     23.760692  19 C  s         
   403     12.442904  24 N  s               106     -8.558871   7 N  s         
    56     -6.714119   5 C  s                81      5.952321   6 O  s         
   276     -5.897524  17 N  s               309      5.277274  19 C  s         
   319     -5.207650  19 C  pz              147      4.400241   9 C  px        

 Vector  129  Occ=0.000000D+00  E= 4.318234D-01
              MO Center= -2.0D-01, -9.8D-01,  2.2D-01, r^2= 1.6D+01
   Bfn.  Coefficient  Atom+Function         Bfn.  Coefficient  Atom+Function  
  ----- ------------  ---------------      ----- ------------  ---------------
   310     19.043213  19 C  s               106    -13.045154   7 N  s         
   173     -8.662883  11 C  s               174     -8.485367  11 C  s         
   215      7.418541  14 H  s               284     -7.348670  17 N  py        
    63     -6.848023   5 C  px              318     -6.153194  19 C  py        
   206      5.789861  13 H  s               234     -5.813517  15 C  py        

 Vector  130  Occ=0.000000D+00  E= 4.341912D-01
              MO Center=  4.5D-01, -1.4D+00, -2.8D-01, r^2= 1.8D+01
   Bfn.  Coefficient  Atom+Function         Bfn.  Coefficient  Atom+Function  
  ----- ------------  ---------------      ----- ------------  ---------------
   276     14.728498  17 N  s               140    -10.154934   9 C  s         
   226     -9.324285  15 C  s               174      7.389333  11 C  s         
   235     -7.259595  15 C  pz              173      7.095570  11 C  s         
    13      6.622171   2 C  s                65     -6.260121   5 C  pz        
   206     -5.472397  13 H  s               149      5.244698   9 C  pz        

 Vector  131  Occ=0.000000D+00  E= 4.399276D-01
              MO Center= -4.8D-01, -5.2D-01,  1.4D-01, r^2= 1.7D+01
   Bfn.  Coefficient  Atom+Function         Bfn.  Coefficient  Atom+Function  
  ----- ------------  ---------------      ----- ------------  ---------------
   113      8.466871   7 N  px              147      8.016420   9 C  px        
   276     -7.321099  17 N  s                56     -7.146028   5 C  s         
   106     -6.994631   7 N  s               149      6.677169   9 C  pz        
   310      5.711216  19 C  s               174      5.544981  11 C  s         
   403      5.405124  24 N  s               163      5.166826  10 H  s         

 Vector  132  Occ=0.000000D+00  E= 4.458316D-01
              MO Center= -5.9D-01, -9.8D-01, -1.9D-01, r^2= 2.0D+01
   Bfn.  Coefficient  Atom+Function         Bfn.  Coefficient  Atom+Function  
  ----- ------------  ---------------      ----- ------------  ---------------
   276     11.015643  17 N  s               113      9.713535   7 N  px        
    13     -9.315364   2 C  s               234     -8.233453  15 C  py        
   173     -7.143762  11 C  s               197      6.580129  12 H  s         
    63      6.530100   5 C  px              403      6.136051  24 N  s         
   353     -5.565577  22 C  s               226      5.474345  15 C  s         

 Vector  133  Occ=0.000000D+00  E= 4.590439D-01
              MO Center= -6.2D-01, -1.0D+00,  3.0D-01, r^2= 1.7D+01
   Bfn.  Coefficient  Atom+Function         Bfn.  Coefficient  Atom+Function  
  ----- ------------  ---------------      ----- ------------  ---------------
   310     17.863839  19 C  s               174     10.758691  11 C  s         
   215     -8.201708  14 H  s               276     -8.051671  17 N  s         
   234     -7.031441  15 C  py               13      6.675219   2 C  s         
   226     -6.382771  15 C  s               342     -6.364460  21 H  s         
   235     -6.197463  15 C  pz              106     -6.128606   7 N  s         

 Vector  134  Occ=0.000000D+00  E= 4.649830D-01
              MO Center= -7.9D-01, -1.5D+00,  1.5D-01, r^2= 1.6D+01
   Bfn.  Coefficient  Atom+Function         Bfn.  Coefficient  Atom+Function  
  ----- ------------  ---------------      ----- ------------  ---------------
   174     35.489996  11 C  s               226    -24.574124  15 C  s         
   276     16.335598  17 N  s                56    -15.823188   5 C  s         
   234     14.916832  15 C  py              310    -14.327124  19 C  s         
   140    -14.165147   9 C  s                12     10.000676   2 C  s         
   353      9.741630  22 C  s                13      9.512434   2 C  s         

 Vector  135  Occ=0.000000D+00  E= 4.696968D-01
              MO Center=  8.4D-02,  1.3D+00,  3.5D-01, r^2= 1.5D+01
   Bfn.  Coefficient  Atom+Function         Bfn.  Coefficient  Atom+Function  
  ----- ------------  ---------------      ----- ------------  ---------------
   310     10.075000  19 C  s                56     -8.817723   5 C  s         
   276      8.395943  17 N  s               333     -7.578458  20 H  s         
   147      5.712325   9 C  px              174      5.645413  11 C  s         
    63      4.755795   5 C  px              106      4.725769   7 N  s         
   353      4.696804  22 C  s               378     -4.496983  23 O  s         

 Vector  136  Occ=0.000000D+00  E= 4.728594D-01
              MO Center= -3.4D-01, -5.3D-01, -4.0D-02, r^2= 1.7D+01
   Bfn.  Coefficient  Atom+Function         Bfn.  Coefficient  Atom+Function  
  ----- ------------  ---------------      ----- ------------  ---------------
   234     14.785734  15 C  py              226    -12.117182  15 C  s         
   149     -7.170848   9 C  pz              106      6.961469   7 N  s         
   215      5.816462  14 H  s               310     -5.670875  19 C  s         
   197      5.360596  12 H  s               174      5.325890  11 C  s         
   284     -5.306862  17 N  py              403      5.138433  24 N  s         

 Vector  137  Occ=0.000000D+00  E= 4.767935D-01
              MO Center=  6.1D-01, -3.5D-01, -2.7D-02, r^2= 1.6D+01
   Bfn.  Coefficient  Atom+Function         Bfn.  Coefficient  Atom+Function  
  ----- ------------  ---------------      ----- ------------  ---------------
   226     11.147359  15 C  s               233      7.724496  15 C  px        
   140      7.669305   9 C  s               353     -7.312726  22 C  s         
   234      7.061744  15 C  py              284     -6.725638  17 N  py        
   276     -6.517696  17 N  s                13     -5.831771   2 C  s         
   147     -5.406219   9 C  px               45      5.262073   4 H  s         

 Vector  138  Occ=0.000000D+00  E= 4.844265D-01
              MO Center= -6.5D-02, -1.1D+00,  1.5D-01, r^2= 1.7D+01
   Bfn.  Coefficient  Atom+Function         Bfn.  Coefficient  Atom+Function  
  ----- ------------  ---------------      ----- ------------  ---------------
   226     17.230550  15 C  s                12     12.332238   2 C  s         
    56     11.736320   5 C  s                13    -11.119028   2 C  s         
   174    -10.554409  11 C  s               173     -9.680763  11 C  s         
   251     -8.724213  16 O  s               148     -8.017469   9 C  py        
   106     -7.945802   7 N  s               140      7.255655   9 C  s         

 Vector  139  Occ=0.000000D+00  E= 4.885900D-01
              MO Center=  1.8D-03,  5.0D-01,  4.4D-01, r^2= 1.6D+01
   Bfn.  Coefficient  Atom+Function         Bfn.  Coefficient  Atom+Function  
  ----- ------------  ---------------      ----- ------------  ---------------
   353     20.471424  22 C  s               174    -12.386017  11 C  s         
   234    -10.805884  15 C  py              378     -9.051253  23 O  s         
    56      8.727686   5 C  s               233     -7.294560  15 C  px        
   310     -5.880557  19 C  s               173     -5.558059  11 C  s         
   235     -5.364685  15 C  pz               13     -5.035845   2 C  s         

 Vector  140  Occ=0.000000D+00  E= 4.956148D-01
              MO Center= -6.1D-01, -1.3D+00,  1.3D-01, r^2= 1.5D+01
   Bfn.  Coefficient  Atom+Function         Bfn.  Coefficient  Atom+Function  
  ----- ------------  ---------------      ----- ------------  ---------------
   310     18.959769  19 C  s               174    -16.848766  11 C  s         
   353    -12.305058  22 C  s                12    -10.421395   2 C  s         
   106     -8.324021   7 N  s               276     -8.131497  17 N  s         
   234     -7.693820  15 C  py              148     -6.867205   9 C  py        
   233     -6.244714  15 C  px              235     -5.890731  15 C  pz        

 Vector  141  Occ=0.000000D+00  E= 5.012380D-01
              MO Center= -3.1D-01, -2.3D-01,  6.2D-01, r^2= 1.6D+01
   Bfn.  Coefficient  Atom+Function         Bfn.  Coefficient  Atom+Function  
  ----- ------------  ---------------      ----- ------------  ---------------
   174     13.500315  11 C  s               310    -11.920542  19 C  s         
   234     11.512476  15 C  py               13     10.468320   2 C  s         
   206     -8.803645  13 H  s               173      7.898033  11 C  s         
   148      7.331322   9 C  py              113     -7.014316   7 N  px        
   106      6.604975   7 N  s               226     -6.197665  15 C  s         


 center of mass
 --------------
 x =  -0.00613886 y =   0.12413534 z =  -0.03556765

 moments of inertia (a.u.)
 ------------------
        3291.839227537844           0.000000000000          -0.000000000001
           0.000000000000        1651.061373792951           0.000000000000
          -0.000000000001           0.000000000000        4416.570865834878

  Mulliken analysis of the total density
  --------------------------------------

    Atom       Charge   Shell Charges
 -----------   ------   -------------------------------------------------------
    1 H    1     0.85   0.76  0.12 -0.00  0.03 -0.06
    2 C    6     6.23   2.01  0.66  0.20  0.09  2.07  1.05  0.00  0.06  0.09
    3 H    1     0.97   0.76  0.22  0.01  0.03 -0.05
    4 H    1     0.89   0.76  0.15  0.01  0.03 -0.06
    5 C    6     5.23   2.01  0.68  0.09 -0.03  1.90  0.39 -0.02  0.24 -0.02
    6 O    8     8.75   2.01  0.82  0.99  0.15  2.80  1.84  0.15  0.02 -0.02
    7 N    7     7.55   2.01  0.72  0.83 -0.15  2.45  1.44  0.16  0.05  0.04
    8 H    1     0.97   0.77  0.21 -0.03  0.05 -0.03
    9 C    6     6.38   2.01  0.66  0.11  0.04  1.99  1.31 -0.02  0.14  0.15
   10 H    1     1.04   0.78  0.20  0.02  0.03  0.02
   11 C    6     5.68   2.01  0.66  0.23  0.10  2.04  0.61 -0.04  0.07 -0.00
   12 H    1     0.95   0.76  0.24 -0.01  0.03 -0.07
   13 H    1     1.01   0.77  0.28  0.01  0.03 -0.08
   14 H    1     0.93   0.77  0.19  0.02  0.03 -0.07
   15 C    6     4.63   2.01  0.68  0.03 -0.07  1.88  0.05  0.04  0.24 -0.23
   16 O    8     8.83   2.01  0.82  1.04  0.19  2.78  1.84  0.14  0.01 -0.01
   17 N    7     7.28   2.01  0.72  0.74 -0.21  2.45  1.43  0.06  0.05  0.05
   18 H    1     1.01   0.77  0.27 -0.04  0.05 -0.04
   19 C    6     6.43   2.01  0.67  0.24  0.39  2.01  0.95 -0.02  0.11  0.08
   20 H    1     0.77   0.76  0.03  0.00  0.03 -0.05
   21 H    1     0.92   0.77  0.17  0.02  0.03 -0.06
   22 C    6     4.82   2.01  0.68  0.13 -0.13  1.89  0.04 -0.04  0.24  0.01
   23 O    8     8.80   2.01  0.82  1.02  0.19  2.79  1.82  0.15  0.01 -0.01
   24 N    7     7.13   2.01  0.72  0.77 -0.17  2.46  1.23  0.11  0.04 -0.03
   25 H    1     1.01   0.76  0.23 -0.00  0.05 -0.03
   26 H    1     0.91   0.73  0.25 -0.01  0.06 -0.12

       Multipole analysis of the density wrt the origin
       ------------------------------------------------

     L   x y z        total         open         nuclear
     -   - - -        -----         ----         -------
     0   0 0 0     -0.000000      0.000000    100.000000

     1   1 0 0      0.628878      0.000000      0.000000
     1   0 1 0     -3.837277      0.000000     -0.000000
     1   0 0 1      1.262846      0.000000     -0.000000

     2   2 0 0    -60.173676      0.000000    784.574813
     2   1 1 0      0.214044      0.000000      1.028732
     2   1 0 1     -1.404572      0.000000      0.854939
     2   0 2 0    -66.023620      0.000000   1652.069569
     2   0 1 1     -2.252411      0.000000     -8.296860
     2   0 0 2    -55.481743      0.000000    161.459906


 Task  times  cpu:     2027.9s     wall:     2213.2s


                                NWChem Input Module
                                -------------------


 Summary of allocated global arrays
-----------------------------------
  No active global arrays


MA_summarize_allocated_blocks: starting scan ...
MA_summarize_allocated_blocks: scan completed: 0 heap blocks, 0 stack blocks
MA usage statistics:

	allocation statistics:
					      heap	     stack
					      ----	     -----
	current number of blocks	         0	         0
	maximum number of blocks	        16	        14
	current total bytes		         0	         0
	maximum total bytes		     92816	  22971464
	maximum total K-bytes		        93	     22972
	maximum total M-bytes		         1	        23


                                     CITATION
                                     --------
                Please cite the following reference when publishing
                           results obtained with NWChem:

          E. Apra, E. J. Bylaska, W. A. de Jong, N. Govind, K. Kowalski,
       T. P. Straatsma, M. Valiev, H. J. J. van Dam, Y. Alexeev, J. Anchell,
       V. Anisimov, F. W. Aquino, R. Atta-Fynn, J. Autschbach, N. P. Bauman,
     J. C. Becca, D. E. Bernholdt, K. Bhaskaran-Nair, S. Bogatko, P. Borowski,
         J. Boschen, J. Brabec, A. Bruner, E. Cauet, Y. Chen, G. N. Chuev,
      C. J. Cramer, J. Daily, M. J. O. Deegan, T. H. Dunning Jr., M. Dupuis,
   K. G. Dyall, G. I. Fann, S. A. Fischer, A. Fonari, H. Fruchtl, L. Gagliardi,
      J. Garza, N. Gawande, S. Ghosh, K. Glaesemann, A. W. Gotz, J. Hammond,
       V. Helms, E. D. Hermes, K. Hirao, S. Hirata, M. Jacquelin, L. Jensen,
   B. G. Johnson, H. Jonsson, R. A. Kendall, M. Klemm, R. Kobayashi, V. Konkov,
      S. Krishnamoorthy, M. Krishnan, Z. Lin, R. D. Lins, R. J. Littlefield,
      A. J. Logsdail, K. Lopata, W. Ma, A. V. Marenich, J. Martin del Campo,
   D. Mejia-Rodriguez, J. E. Moore, J. M. Mullin, T. Nakajima, D. R. Nascimento,
    J. A. Nichols, P. J. Nichols, J. Nieplocha, A. Otero-de-la-Roza, B. Palmer,
    A. Panyala, T. Pirojsirikul, B. Peng, R. Peverati, J. Pittner, L. Pollack,
   R. M. Richard, P. Sadayappan, G. C. Schatz, W. A. Shelton, D. W. Silverstein,
   D. M. A. Smith, T. A. Soares, D. Song, M. Swart, H. L. Taylor, G. S. Thomas,
            V. Tipparaju, D. G. Truhlar, K. Tsemekhman, T. Van Voorhis,
      A. Vazquez-Mayagoitia, P. Verma, O. Villa, A. Vishnu, K. D. Vogiatzis,
        D. Wang, J. H. Weare, M. J. Williamson, T. L. Windus, K. Wolinski,
        A. T. Wong, Q. Wu, C. Yang, Q. Yu, M. Zacharias, Z. Zhang, Y. Zhao,
                                and R. J. Harrison
                        "NWChem: Past, present, and future
                         J. Chem. Phys. 152, 184102 (2020)
                               doi:10.1063/5.0004997

                                      AUTHORS
                                      -------
  E. Apra, E. J. Bylaska, N. Govind, K. Kowalski, M. Valiev, D. Mejia-Rodriguez,
       A. Kunitsa, N. P. Bauman, A. Panyala, W. A. de Jong, T. P. Straatsma,
   H. J. J. van Dam, D. Wang, T. L. Windus, J. Hammond, J. Autschbach, A. Woods,
    K. Bhaskaran-Nair, J. Brabec, K. Lopata, S. A. Fischer, S. Krishnamoorthy,
     M. Jacquelin, W. Ma, M. Klemm, O. Villa, Y. Chen, V. Anisimov, F. Aquino,
     S. Hirata, M. T. Hackler, E. Hermes, L. Jensen, J. E. Moore, J. C. Becca,
      V. Konjkov, T. Risthaus, M. Malagoli, A. Marenich, A. Otero-de-la-Roza,
        J. Mullin, P. Nichols, R. Peverati, J. Pittner, Y. Zhao, P.-D. Fan,
        A. Fonari, M. J. Williamson, R. J. Harrison, J. R. Rehr, M. Dupuis,
     D. Silverstein, D. M. A. Smith, J. Nieplocha, V. Tipparaju, M. Krishnan,
     B. E. Van Kuiken, A. Vazquez-Mayagoitia, M. Swart, Q. Wu, T. Van Voorhis,
     A. A. Auer, M. Nooijen, L. D. Crosby, E. Brown, G. Cisneros, G. I. Fann,
   H. Fruchtl, J. Garza, K. Hirao, R. A. Kendall, J. A. Nichols, K. Tsemekhman,
    K. Wolinski, J. Anchell, D. E. Bernholdt, P. Borowski, T. Clark, D. Clerc,
   H. Dachsel, M. J. O. Deegan, K. Dyall, D. Elwood, E. Glendening, M. Gutowski,
   A. C. Hess, J. Jaffe, B. G. Johnson, J. Ju, R. Kobayashi, R. Kutteh, Z. Lin,
   R. Littlefield, X. Long, B. Meng, T. Nakajima, S. Niu, L. Pollack, M. Rosing,
   K. Glaesemann, G. Sandrone, M. Stave, H. Taylor, G. Thomas, J. H. van Lenthe,
                               A. T. Wong, Z. Zhang.

 Total times  cpu:     2027.9s     wall:     2213.7s
