export TMOUT=5400
export TMPDIR=/tmp
export PTMPDIR=/tmp/ptmp
 argument  1 = ALA_ILE_5.nw
                                         
                                         


             Northwest Computational Chemistry Package (NWChem) 7.2.0
             --------------------------------------------------------


                    Environmental Molecular Sciences Laboratory
                       Pacific Northwest National Laboratory
                                Richland, WA 99352

                              Copyright (c) 1994-2022
                       Pacific Northwest National Laboratory
                            Battelle Memorial Institute

             NWChem is an open-source computational chemistry package
                        distributed under the terms of the
                      Educational Community License (ECL) 2.0
             A copy of the license is included with this distribution
                              in the LICENSE.TXT file

                                  ACKNOWLEDGMENT
                                  --------------

            This software and its documentation were developed at the
            EMSL at Pacific Northwest National Laboratory, a multiprogram
            national laboratory, operated for the U.S. Department of Energy
            by Battelle under Contract Number DE-AC05-76RL01830. Support
            for this work was provided by the Department of Energy Office
            of Biological and Environmental Research, Office of Basic
            Energy Sciences, and the Office of Advanced Scientific Computing.


           Job information
           ---------------

    hostname        = nova18-33
    program         = /opt/rit/el9/20230413/app/linux-rhel9-x86_64_v3/gcc-11.2.1/nwchem-7.2.0-oxtctbuhfuzyfaoziquq6bki22grib3g/bin/nwchem
    date            = Fri Jun 27 16:46:11 2025

    compiled        = Wed_May_17_23:46:39_2023
    source          = /tmp/root/spack-stage/spack-stage-nwchem-7.2.0-oxtctbuhfuzyfaoziquq6bki22grib3g/spack-src
    nwchem branch   = 7.2.0
    nwchem revision = d0d141fd
    ga revision     = 5.8.0
    use scalapack   = T
    input           = ALA_ILE_5.nw
    prefix          = ALA_ILE_5.
    data base       = ./ALA_ILE_5.db
    status          = startup
    nproc           =        8
    time left       =     -1s



           Memory information
           ------------------

    heap     =   26214396 doubles =    200.0 Mbytes
    stack    =   26214401 doubles =    200.0 Mbytes
    global   =   52428800 doubles =    400.0 Mbytes (distinct from heap & stack)
    total    =  104857597 doubles =    800.0 Mbytes
    verify   = yes
    hardfail = no 


           Directory information
           ---------------------

  0 permanent = .
  0 scratch   = .




                                NWChem Input Module
                                -------------------



 Scaling coordinates for geometry "geometry" by  1.889725989
 (inverse scale =  0.529177249)

 C1  symmetry detected

          ------
          auto-z
          ------
  no constraints, skipping    0.0000000000000000     
  no constraints, skipping    0.0000000000000000     


                             Geometry "geometry" -> ""
                             -------------------------

 Output coordinates in angstroms (scale by  1.889725989 to convert to a.u.)

  No.       Tag          Charge          X              Y              Z
 ---- ---------------- ---------- -------------- -------------- --------------
    1 H                    1.0000    -3.11658986    -3.29743252    -0.95532100
    2 C                    6.0000    -2.07473473    -3.52627766    -1.17635896
    3 H                    1.0000    -1.82530715    -3.16276785    -2.17114763
    4 H                    1.0000    -1.91747519    -4.60185030    -1.12044893
    5 C                    6.0000    -1.19839718    -2.83824457    -0.15652173
    6 O                    8.0000    -1.69845717    -2.15770353     0.72764053
    7 N                    7.0000     0.11634390    -3.00981168    -0.28253608
    8 H                    1.0000     0.45227483    -3.57540682    -1.04384847
    9 C                    6.0000     1.11450097    -2.38845560     0.59204558
   10 H                    1.0000     0.76023223    -2.45548210     1.62199078
   11 C                    6.0000     2.41243135    -3.20370340     0.48921676
   12 H                    1.0000     2.22573964    -4.23904787     0.77574602
   13 H                    1.0000     2.79752020    -3.17084245    -0.53109336
   14 H                    1.0000     3.16106755    -2.78107918     1.16115099
   15 C                    6.0000     1.30801175    -0.88569957     0.27793111
   16 O                    8.0000     2.33123466    -0.47896393    -0.27042918
   17 N                    7.0000     0.30637728    -0.06052936     0.59748160
   18 H                    1.0000    -0.53186016    -0.46484231     1.00847918
   19 C                    6.0000     0.28730895     1.38347643     0.32015747
   20 H                    1.0000     1.32010681     1.72868364     0.33772348
   21 C                    6.0000    -0.27639044     1.63757445    -1.10207429
   22 H                    1.0000     0.31062716     1.03948057    -1.80161846
   23 C                    6.0000    -1.74384140     1.18822014    -1.23787341
   24 H                    1.0000    -1.84650446     0.13790026    -0.96768194
   25 H                    1.0000    -2.38789953     1.78020052    -0.58616232
   26 H                    1.0000    -2.07658661     1.30956933    -2.26918714
   27 C                    6.0000    -0.18118248     3.10734852    -1.56690289
   28 H                    1.0000    -0.61354680     3.18227527    -2.56612312
   29 H                    1.0000    -0.76532098     3.75069162    -0.90822703
   30 C                    6.0000     1.25640744     3.63723250    -1.64919615
   31 H                    1.0000     1.85776321     2.98108178    -2.27956070
   32 H                    1.0000     1.24623050     4.63681266    -2.08501255
   33 H                    1.0000     1.70081315     3.69563551    -0.65639323
   34 C                    6.0000    -0.46160811     2.15098172     1.42237562
   35 O                    8.0000    -1.41186903     1.65737985     2.01479050
   36 N                    7.0000    -0.04754378     3.37299216     1.72628222
   37 H                    1.0000    -0.53666341     3.86874143     2.45220002
   38 H                    1.0000     0.73683267     3.77870416     1.24313177

      Atomic Mass 
      ----------- 

      H                  1.007825
      C                 12.000000
      O                 15.994910
      N                 14.003070


 Effective nuclear repulsion energy (a.u.)    1332.1274379128

            Nuclear Dipole moment (a.u.) 
            ----------------------------
        X                 Y               Z
 ---------------- ---------------- ----------------
     0.0000000000     0.0000000000    -0.0000000000



                                Z-matrix (autoz)
                                -------- 

 Units are Angstrom for bonds and degrees for angles

      Type          Name      I     J     K     L     M      Value
      ----------- --------  ----- ----- ----- ----- ----- ----------
    1 Stretch                  1     2                       1.08935
    2 Stretch                  2     3                       1.08810
    3 Stretch                  2     4                       1.08845
    4 Stretch                  2     5                       1.51044
    5 Stretch                  5     6                       1.22268
    6 Stretch                  5     7                       1.33186
    7 Stretch                  7     8                       1.00615
    8 Stretch                  7     9                       1.46536
    9 Stretch                  9    10                       1.09123
   10 Stretch                  9    11                       1.53617
   11 Stretch                  9    15                       1.54738
   12 Stretch                 11    12                       1.09036
   13 Stretch                 11    13                       1.09106
   14 Stretch                 11    14                       1.09113
   15 Stretch                 15    16                       1.23009
   16 Stretch                 15    17                       1.33652
   17 Stretch                 17    18                       1.01736
   18 Stretch                 17    19                       1.47052
   19 Stretch                 19    20                       1.08910
   20 Stretch                 19    21                       1.55083
   21 Stretch                 19    34                       1.53780
   22 Stretch                 21    22                       1.09164
   23 Stretch                 21    23                       1.54071
   24 Stretch                 21    27                       1.54446
   25 Stretch                 23    24                       1.08936
   26 Stretch                 23    25                       1.09086
   27 Stretch                 23    26                       1.09044
   28 Stretch                 27    28                       1.09133
   29 Stretch                 27    29                       1.09040
   30 Stretch                 27    30                       1.53434
   31 Stretch                 30    31                       1.09065
   32 Stretch                 30    32                       1.09050
   33 Stretch                 30    33                       1.08930
   34 Stretch                 34    35                       1.22376
   35 Stretch                 34    36                       1.32556
   36 Stretch                 36    37                       1.00596
   37 Stretch                 36    38                       1.00662
   38 Bend                     1     2     3               109.54600
   39 Bend                     1     2     4               109.59373
   40 Bend                     1     2     5               108.79576
   41 Bend                     2     5     6               120.29871
   42 Bend                     2     5     7               116.75437
   43 Bend                     3     2     4               110.11889
   44 Bend                     3     2     5               109.39720
   45 Bend                     4     2     5               109.36731
   46 Bend                     5     7     8               118.26748
   47 Bend                     5     7     9               124.14697
   48 Bend                     6     5     7               122.94606
   49 Bend                     7     9    10               108.42903
   50 Bend                     7     9    11               108.09191
   51 Bend                     7     9    15               112.07550
   52 Bend                     8     7     9               117.55085
   53 Bend                     9    11    12               109.97843
   54 Bend                     9    11    13               110.17116
   55 Bend                     9    11    14               109.44654
   56 Bend                     9    15    16               121.04022
   57 Bend                     9    15    17               117.21553
   58 Bend                    10     9    11               107.75111
   59 Bend                    10     9    15               106.96861
   60 Bend                    11     9    15               113.33742
   61 Bend                    12    11    13               109.55883
   62 Bend                    12    11    14               108.87067
   63 Bend                    13    11    14               108.78727
   64 Bend                    15    17    18               117.95042
   65 Bend                    15    17    19               124.81285
   66 Bend                    16    15    17               121.72465
   67 Bend                    17    19    20               107.21218
   68 Bend                    17    19    21               109.78900
   69 Bend                    17    19    34               111.17627
   70 Bend                    18    17    19               117.11319
   71 Bend                    19    21    22               107.60513
   72 Bend                    19    21    23               112.28700
   73 Bend                    19    21    27               114.17499
   74 Bend                    19    34    35               121.58948
   75 Bend                    19    34    36               118.18405
   76 Bend                    20    19    21               107.91158
   77 Bend                    20    19    34               106.98208
   78 Bend                    21    19    34               113.48593
   79 Bend                    21    23    24               110.43232
   80 Bend                    21    23    25               110.57356
   81 Bend                    21    23    26               109.97103
   82 Bend                    21    27    28               108.45003
   83 Bend                    21    27    29               110.28249
   84 Bend                    21    27    30               113.73752
   85 Bend                    22    21    23               107.21134
   86 Bend                    22    21    27               107.18026
   87 Bend                    23    21    27               108.04339
   88 Bend                    24    23    25               108.62681
   89 Bend                    24    23    26               108.24720
   90 Bend                    25    23    26               108.93412
   91 Bend                    27    30    31               109.86689
   92 Bend                    27    30    32               109.22296
   93 Bend                    27    30    33               110.60244
   94 Bend                    28    27    29               107.47803
   95 Bend                    28    27    30               107.36041
   96 Bend                    29    27    30               109.30343
   97 Bend                    31    30    32               109.00275
   98 Bend                    31    30    33               109.51669
   99 Bend                    32    30    33               108.59685
  100 Bend                    34    36    37               117.89638
  101 Bend                    34    36    38               120.32605
  102 Bend                    35    34    36               120.22579
  103 Bend                    37    36    38               121.77622
  104 Torsion                  1     2     5     6          -0.10967
  105 Torsion                  1     2     5     7        -179.78448
  106 Torsion                  2     5     7     8           0.43071
  107 Torsion                  2     5     7     9         178.23170
  108 Torsion                  3     2     5     6         119.52795
  109 Torsion                  3     2     5     7         -60.14685
  110 Torsion                  4     2     5     6        -119.78755
  111 Torsion                  4     2     5     7          60.53765
  112 Torsion                  5     7     9    10          42.45289
  113 Torsion                  5     7     9    11         159.00034
  114 Torsion                  5     7     9    15         -75.39335
  115 Torsion                  6     5     7     8        -179.23470
  116 Torsion                  6     5     7     9          -1.43371
  117 Torsion                  7     9    11    12         -58.36846
  118 Torsion                  7     9    11    13          62.49783
  119 Torsion                  7     9    11    14        -177.92745
  120 Torsion                  7     9    15    16        -108.12213
  121 Torsion                  7     9    15    17          70.29434
  122 Torsion                  8     7     9    10        -139.73160
  123 Torsion                  8     7     9    11         -23.18414
  124 Torsion                  8     7     9    15         102.42217
  125 Torsion                  9    15    17    18          -1.30827
  126 Torsion                  9    15    17    19        -177.14025
  127 Torsion                 10     9    11    12          58.61802
  128 Torsion                 10     9    11    13         179.48431
  129 Torsion                 10     9    11    14         -60.94097
  130 Torsion                 10     9    15    16         133.16532
  131 Torsion                 10     9    15    17         -48.41821
  132 Torsion                 11     9    15    16          14.55768
  133 Torsion                 11     9    15    17        -167.02585
  134 Torsion                 12    11     9    15         176.77289
  135 Torsion                 13    11     9    15         -62.36082
  136 Torsion                 14    11     9    15          57.21390
  137 Torsion                 15    17    19    20         -29.86961
  138 Torsion                 15    17    19    21          87.10767
  139 Torsion                 15    17    19    34        -146.47984
  140 Torsion                 16    15    17    18         177.09661
  141 Torsion                 16    15    17    19           1.26463
  142 Torsion                 17    19    21    22         -54.05061
  143 Torsion                 17    19    21    23          63.69568
  144 Torsion                 17    19    21    27        -172.87491
  145 Torsion                 17    19    34    35         -32.95087
  146 Torsion                 17    19    34    36         146.75008
  147 Torsion                 18    17    19    20         154.26672
  148 Torsion                 18    17    19    21         -88.75599
  149 Torsion                 18    17    19    34          37.65649
  150 Torsion                 19    21    23    24         -56.10285
  151 Torsion                 19    21    23    25          64.15542
  152 Torsion                 19    21    23    26        -175.50251
  153 Torsion                 19    21    27    28        -179.22823
  154 Torsion                 19    21    27    29         -61.78694
  155 Torsion                 19    21    27    30          61.40938
  156 Torsion                 19    34    36    37        -179.59698
  157 Torsion                 19    34    36    38          -0.01174
  158 Torsion                 20    19    21    22          62.48767
  159 Torsion                 20    19    21    23        -179.76604
  160 Torsion                 20    19    21    27         -56.33663
  161 Torsion                 20    19    34    35        -149.70195
  162 Torsion                 20    19    34    36          29.99900
  163 Torsion                 21    19    34    35          91.39599
  164 Torsion                 21    19    34    36         -88.90307
  165 Torsion                 21    27    30    31          54.38188
  166 Torsion                 21    27    30    32         173.89725
  167 Torsion                 21    27    30    33         -66.63765
  168 Torsion                 22    21    19    34        -179.14529
  169 Torsion                 22    21    23    24          61.87700
  170 Torsion                 22    21    23    25        -177.86473
  171 Torsion                 22    21    23    26         -57.52265
  172 Torsion                 22    21    27    28          61.70682
  173 Torsion                 22    21    27    29         179.14812
  174 Torsion                 22    21    27    30         -57.65556
  175 Torsion                 23    21    19    34         -61.39900
  176 Torsion                 23    21    27    28         -53.53574
  177 Torsion                 23    21    27    29          63.90556
  178 Torsion                 23    21    27    30        -172.89812
  179 Torsion                 24    23    21    27         177.09915
  180 Torsion                 25    23    21    27         -62.64258
  181 Torsion                 26    23    21    27          57.69949
  182 Torsion                 27    21    19    34          62.03041
  183 Torsion                 28    27    30    31         -65.59844
  184 Torsion                 28    27    30    32          53.91693
  185 Torsion                 28    27    30    33         173.38203
  186 Torsion                 29    27    30    31         178.11130
  187 Torsion                 29    27    30    32         -62.37333
  188 Torsion                 29    27    30    33          57.09178
  189 Torsion                 35    34    36    37           0.10820
  190 Torsion                 35    34    36    38         179.69344


            XYZ format geometry
            -------------------
    38
 geometry
 H                    -3.11658986    -3.29743252    -0.95532100
 C                    -2.07473473    -3.52627766    -1.17635896
 H                    -1.82530715    -3.16276785    -2.17114763
 H                    -1.91747519    -4.60185030    -1.12044893
 C                    -1.19839718    -2.83824457    -0.15652173
 O                    -1.69845717    -2.15770353     0.72764053
 N                     0.11634390    -3.00981168    -0.28253608
 H                     0.45227483    -3.57540682    -1.04384847
 C                     1.11450097    -2.38845560     0.59204558
 H                     0.76023223    -2.45548210     1.62199078
 C                     2.41243135    -3.20370340     0.48921676
 H                     2.22573964    -4.23904787     0.77574602
 H                     2.79752020    -3.17084245    -0.53109336
 H                     3.16106755    -2.78107918     1.16115099
 C                     1.30801175    -0.88569957     0.27793111
 O                     2.33123466    -0.47896393    -0.27042918
 N                     0.30637728    -0.06052936     0.59748160
 H                    -0.53186016    -0.46484231     1.00847918
 C                     0.28730895     1.38347643     0.32015747
 H                     1.32010681     1.72868364     0.33772348
 C                    -0.27639044     1.63757445    -1.10207429
 H                     0.31062716     1.03948057    -1.80161846
 C                    -1.74384140     1.18822014    -1.23787341
 H                    -1.84650446     0.13790026    -0.96768194
 H                    -2.38789953     1.78020052    -0.58616232
 H                    -2.07658661     1.30956933    -2.26918714
 C                    -0.18118248     3.10734852    -1.56690289
 H                    -0.61354680     3.18227527    -2.56612312
 H                    -0.76532098     3.75069162    -0.90822703
 C                     1.25640744     3.63723250    -1.64919615
 H                     1.85776321     2.98108178    -2.27956070
 H                     1.24623050     4.63681266    -2.08501255
 H                     1.70081315     3.69563551    -0.65639323
 C                    -0.46160811     2.15098172     1.42237562
 O                    -1.41186903     1.65737985     2.01479050
 N                    -0.04754378     3.37299216     1.72628222
 H                    -0.53666341     3.86874143     2.45220002
 H                     0.73683267     3.77870416     1.24313177

 ==============================================================================
                                internuclear distances
 ------------------------------------------------------------------------------
       center one      |      center two      | atomic units |  angstroms
 ------------------------------------------------------------------------------
    2 C                |   1 H                |     2.05858  |     1.08935
    3 H                |   2 C                |     2.05621  |     1.08810
    4 H                |   2 C                |     2.05686  |     1.08845
    5 C                |   2 C                |     2.85432  |     1.51044
    6 O                |   5 C                |     2.31052  |     1.22268
    7 N                |   5 C                |     2.51686  |     1.33186
    8 H                |   7 N                |     1.90135  |     1.00615
    9 C                |   7 N                |     2.76914  |     1.46536
   10 H                |   9 C                |     2.06213  |     1.09123
   11 C                |   9 C                |     2.90295  |     1.53617
   12 H                |  11 C                |     2.06049  |     1.09036
   13 H                |  11 C                |     2.06180  |     1.09106
   14 H                |  11 C                |     2.06194  |     1.09113
   15 C                |   9 C                |     2.92413  |     1.54738
   16 O                |  15 C                |     2.32453  |     1.23009
   17 N                |  15 C                |     2.52566  |     1.33652
   18 H                |  17 N                |     1.92254  |     1.01736
   19 C                |  17 N                |     2.77888  |     1.47052
   20 H                |  19 C                |     2.05811  |     1.08910
   21 C                |  19 C                |     2.93064  |     1.55083
   22 H                |  21 C                |     2.06289  |     1.09164
   23 C                |  21 C                |     2.91151  |     1.54071
   24 H                |  23 C                |     2.05860  |     1.08936
   25 H                |  23 C                |     2.06143  |     1.09086
   26 H                |  23 C                |     2.06063  |     1.09044
   27 C                |  21 C                |     2.91861  |     1.54446
   28 H                |  27 C                |     2.06231  |     1.09133
   29 H                |  27 C                |     2.06055  |     1.09040
   30 C                |  27 C                |     2.89949  |     1.53434
   31 H                |  30 C                |     2.06103  |     1.09065
   32 H                |  30 C                |     2.06075  |     1.09050
   33 H                |  30 C                |     2.05847  |     1.08930
   34 C                |  19 C                |     2.90602  |     1.53780
   35 O                |  34 C                |     2.31258  |     1.22376
   36 N                |  34 C                |     2.50495  |     1.32556
   37 H                |  36 N                |     1.90099  |     1.00596
   38 H                |  36 N                |     1.90224  |     1.00662
 ------------------------------------------------------------------------------
                         number of included internuclear distances:         37
 ==============================================================================



 ==============================================================================
                                 internuclear angles
 ------------------------------------------------------------------------------
        center 1       |       center 2       |       center 3       |  degrees
 ------------------------------------------------------------------------------
    1 H                |   2 C                |   3 H                |   109.55
    1 H                |   2 C                |   4 H                |   109.59
    1 H                |   2 C                |   5 C                |   108.80
    3 H                |   2 C                |   4 H                |   110.12
    3 H                |   2 C                |   5 C                |   109.40
    4 H                |   2 C                |   5 C                |   109.37
    2 C                |   5 C                |   6 O                |   120.30
    2 C                |   5 C                |   7 N                |   116.75
    6 O                |   5 C                |   7 N                |   122.95
    5 C                |   7 N                |   8 H                |   118.27
    5 C                |   7 N                |   9 C                |   124.15
    8 H                |   7 N                |   9 C                |   117.55
    7 N                |   9 C                |  10 H                |   108.43
    7 N                |   9 C                |  11 C                |   108.09
    7 N                |   9 C                |  15 C                |   112.08
   10 H                |   9 C                |  11 C                |   107.75
   10 H                |   9 C                |  15 C                |   106.97
   11 C                |   9 C                |  15 C                |   113.34
    9 C                |  11 C                |  12 H                |   109.98
    9 C                |  11 C                |  13 H                |   110.17
    9 C                |  11 C                |  14 H                |   109.45
   12 H                |  11 C                |  13 H                |   109.56
   12 H                |  11 C                |  14 H                |   108.87
   13 H                |  11 C                |  14 H                |   108.79
    9 C                |  15 C                |  16 O                |   121.04
    9 C                |  15 C                |  17 N                |   117.22
   16 O                |  15 C                |  17 N                |   121.72
   15 C                |  17 N                |  18 H                |   117.95
   15 C                |  17 N                |  19 C                |   124.81
   18 H                |  17 N                |  19 C                |   117.11
   17 N                |  19 C                |  20 H                |   107.21
   17 N                |  19 C                |  21 C                |   109.79
   17 N                |  19 C                |  34 C                |   111.18
   20 H                |  19 C                |  21 C                |   107.91
   20 H                |  19 C                |  34 C                |   106.98
   21 C                |  19 C                |  34 C                |   113.49
   19 C                |  21 C                |  22 H                |   107.61
   19 C                |  21 C                |  23 C                |   112.29
   19 C                |  21 C                |  27 C                |   114.17
   22 H                |  21 C                |  23 C                |   107.21
   22 H                |  21 C                |  27 C                |   107.18
   23 C                |  21 C                |  27 C                |   108.04
   21 C                |  23 C                |  24 H                |   110.43
   21 C                |  23 C                |  25 H                |   110.57
   21 C                |  23 C                |  26 H                |   109.97
   24 H                |  23 C                |  25 H                |   108.63
   24 H                |  23 C                |  26 H                |   108.25
   25 H                |  23 C                |  26 H                |   108.93
   21 C                |  27 C                |  28 H                |   108.45
   21 C                |  27 C                |  29 H                |   110.28
   21 C                |  27 C                |  30 C                |   113.74
   28 H                |  27 C                |  29 H                |   107.48
   28 H                |  27 C                |  30 C                |   107.36
   29 H                |  27 C                |  30 C                |   109.30
   27 C                |  30 C                |  31 H                |   109.87
   27 C                |  30 C                |  32 H                |   109.22
   27 C                |  30 C                |  33 H                |   110.60
   31 H                |  30 C                |  32 H                |   109.00
   31 H                |  30 C                |  33 H                |   109.52
   32 H                |  30 C                |  33 H                |   108.60
   19 C                |  34 C                |  35 O                |   121.59
   19 C                |  34 C                |  36 N                |   118.18
   35 O                |  34 C                |  36 N                |   120.23
   34 C                |  36 N                |  37 H                |   117.90
   34 C                |  36 N                |  38 H                |   120.33
   37 H                |  36 N                |  38 H                |   121.78
 ------------------------------------------------------------------------------
                            number of included internuclear angles:         66
 ==============================================================================



  library name resolved from: environment
  library file name is: </opt/rit/el9/20230413/app/linux-rhel9-x86_64_v3/gcc-11.2.1/nwchem-7.2.0-oxtctbuhfuzyfaoziquq6bki22grib3g/share/nwchem/libraries/>
  


 Summary of "ao basis" -> "" (cartesian)
 ------------------------------------------------------------------------------
       Tag                 Description            Shells   Functions and Types
 ---------------- ------------------------------  ------  ---------------------
 *                        aug-cc-pvdz                 on all atoms 


                      Basis "ao basis" -> "ao basis" (cartesian)
                      -----
  H (Hydrogen)
  ------------
            Exponent  Coefficients 
       -------------- ---------------------------------------------------------
  1 S  1.30100000E+01  0.019685
  1 S  1.96200000E+00  0.137977
  1 S  4.44600000E-01  0.478148

  2 S  1.22000000E-01  1.000000

  3 S  2.97400000E-02  1.000000

  4 P  7.27000000E-01  1.000000

  5 P  1.41000000E-01  1.000000

  C (Carbon)
  ----------
            Exponent  Coefficients 
       -------------- ---------------------------------------------------------
  1 S  6.66500000E+03  0.000692
  1 S  1.00000000E+03  0.005329
  1 S  2.28000000E+02  0.027077
  1 S  6.47100000E+01  0.101718
  1 S  2.10600000E+01  0.274740
  1 S  7.49500000E+00  0.448564
  1 S  2.79700000E+00  0.285074
  1 S  5.21500000E-01  0.015204

  2 S  6.66500000E+03 -0.000146
  2 S  1.00000000E+03 -0.001154
  2 S  2.28000000E+02 -0.005725
  2 S  6.47100000E+01 -0.023312
  2 S  2.10600000E+01 -0.063955
  2 S  7.49500000E+00 -0.149981
  2 S  2.79700000E+00 -0.127262
  2 S  5.21500000E-01  0.544529

  3 S  1.59600000E-01  1.000000

  4 S  4.69000000E-02  1.000000

  5 P  9.43900000E+00  0.038109
  5 P  2.00200000E+00  0.209480
  5 P  5.45600000E-01  0.508557

  6 P  1.51700000E-01  1.000000

  7 P  4.04100000E-02  1.000000

  8 D  5.50000000E-01  1.000000

  9 D  1.51000000E-01  1.000000

  O (Oxygen)
  ----------
            Exponent  Coefficients 
       -------------- ---------------------------------------------------------
  1 S  1.17200000E+04  0.000710
  1 S  1.75900000E+03  0.005470
  1 S  4.00800000E+02  0.027837
  1 S  1.13700000E+02  0.104800
  1 S  3.70300000E+01  0.283062
  1 S  1.32700000E+01  0.448719
  1 S  5.02500000E+00  0.270952
  1 S  1.01300000E+00  0.015458

  2 S  1.17200000E+04 -0.000160
  2 S  1.75900000E+03 -0.001263
  2 S  4.00800000E+02 -0.006267
  2 S  1.13700000E+02 -0.025716
  2 S  3.70300000E+01 -0.070924
  2 S  1.32700000E+01 -0.165411
  2 S  5.02500000E+00 -0.116955
  2 S  1.01300000E+00  0.557368

  3 S  3.02300000E-01  1.000000

  4 S  7.89600000E-02  1.000000

  5 P  1.77000000E+01  0.043018
  5 P  3.85400000E+00  0.228913
  5 P  1.04600000E+00  0.508728

  6 P  2.75300000E-01  1.000000

  7 P  6.85600000E-02  1.000000

  8 D  1.18500000E+00  1.000000

  9 D  3.32000000E-01  1.000000

  N (Nitrogen)
  ------------
            Exponent  Coefficients 
       -------------- ---------------------------------------------------------
  1 S  9.04600000E+03  0.000700
  1 S  1.35700000E+03  0.005389
  1 S  3.09300000E+02  0.027406
  1 S  8.77300000E+01  0.103207
  1 S  2.85600000E+01  0.278723
  1 S  1.02100000E+01  0.448540
  1 S  3.83800000E+00  0.278238
  1 S  7.46600000E-01  0.015440

  2 S  9.04600000E+03 -0.000153
  2 S  1.35700000E+03 -0.001208
  2 S  3.09300000E+02 -0.005992
  2 S  8.77300000E+01 -0.024544
  2 S  2.85600000E+01 -0.067459
  2 S  1.02100000E+01 -0.158078
  2 S  3.83800000E+00 -0.121831
  2 S  7.46600000E-01  0.549003

  3 S  2.24800000E-01  1.000000

  4 S  6.12400000E-02  1.000000

  5 P  1.35500000E+01  0.039919
  5 P  2.91700000E+00  0.217169
  5 P  7.97300000E-01  0.510319

  6 P  2.18500000E-01  1.000000

  7 P  5.61100000E-02  1.000000

  8 D  8.17000000E-01  1.000000

  9 D  2.30000000E-01  1.000000



 Summary of "ao basis" -> "ao basis" (cartesian)
 ------------------------------------------------------------------------------
       Tag                 Description            Shells   Functions and Types
 ---------------- ------------------------------  ------  ---------------------
 H                        aug-cc-pvdz                5        9   3s2p
 C                        aug-cc-pvdz                9       25   4s3p2d
 O                        aug-cc-pvdz                9       25   4s3p2d
 N                        aug-cc-pvdz                9       25   4s3p2d


                                 NWChem SCF Module
                                 -----------------



  ao basis        = "ao basis"
  functions       =   614
  atoms           =    38
  closed shells   =    66
  open shells     =     0
  charge          =   0.00
  wavefunction    = RHF 
  input vectors   = atomic
  output vectors  = ./ALA_ILE_5.movecs
  use symmetry    = F
  symmetry adapt  = F


 Summary of "ao basis" -> "ao basis" (cartesian)
 ------------------------------------------------------------------------------
       Tag                 Description            Shells   Functions and Types
 ---------------- ------------------------------  ------  ---------------------
 H                        aug-cc-pvdz                5        9   3s2p
 C                        aug-cc-pvdz                9       25   4s3p2d
 O                        aug-cc-pvdz                9       25   4s3p2d
 N                        aug-cc-pvdz                9       25   4s3p2d



 Forming initial guess at       1.9s


 !! The overlap matrix has   6 vectors deemed linearly dependent with
    eigenvalues:
 1.91D-06 3.61D-06 4.87D-06 5.32D-06 8.10D-06 9.97D-06


      Superposition of Atomic Density Guess
      -------------------------------------

 Sum of atomic energies:        -812.03184720

      Non-variational initial energy
      ------------------------------

 Total energy =    -823.467553
 1-e energy   =   -3748.126922
 2-e energy   =    1592.531932
 HOMO         =      -0.308042
 LUMO         =       0.009292


 Starting SCF solution at     352.9s



 ----------------------------------------------
         Quadratically convergent ROHF

 Convergence threshold     :          1.000E-04
 Maximum no. of iterations :           30
 Final Fock-matrix accuracy:          1.000E-10
 ----------------------------------------------


              iter       energy          gnorm     gmax       time
             ----- ------------------- --------- --------- --------
                 1     -816.5005399571  2.44D+00  1.59D-01    569.2
                 2     -816.8249355709  8.53D-01  4.43D-02   1153.3
                 3     -816.8882804577  6.37D-02  3.91D-03   2037.2
                 4     -816.8888944455  3.85D-03  3.42D-04   3145.2
                 5     -816.8888974240  7.71D-06  4.11D-07   5013.2


       Final RHF  results 
       ------------------ 

         Total SCF energy =   -816.888897423950
      One-electron energy =  -3762.078384134459
      Two-electron energy =   1613.062048797704
 Nuclear repulsion energy =   1332.127437912804

        Time for solution =   4720.6s


             Final eigenvalues
             -----------------

              1      
    1  -20.5323
    2  -20.5232
    3  -20.5201
    4  -15.6087
    5  -15.5998
    6  -15.5824
    7  -11.3626
    8  -11.3576
    9  -11.3513
   10  -11.2982
   11  -11.2882
   12  -11.2488
   13  -11.2401
   14  -11.2388
   15  -11.2298
   16  -11.2274
   17  -11.2109
   18   -1.3982
   19   -1.3881
   20   -1.3759
   21   -1.2558
   22   -1.2296
   23   -1.2252
   24   -1.0962
   25   -1.0605
   26   -1.0055
   27   -0.9968
   28   -0.9647
   29   -0.8895
   30   -0.8618
   31   -0.8250
   32   -0.8143
   33   -0.7906
   34   -0.7656
   35   -0.7418
   36   -0.7178
   37   -0.6855
   38   -0.6776
   39   -0.6632
   40   -0.6554
   41   -0.6413
   42   -0.6239
   43   -0.6047
   44   -0.6017
   45   -0.5908
   46   -0.5827
   47   -0.5802
   48   -0.5760
   49   -0.5578
   50   -0.5530
   51   -0.5514
   52   -0.5373
   53   -0.5354
   54   -0.5292
   55   -0.5139
   56   -0.5117
   57   -0.5040
   58   -0.4831
   59   -0.4684
   60   -0.4530
   61   -0.4405
   62   -0.4286
   63   -0.4195
   64   -0.4130
   65   -0.3925
   66   -0.3786
   67    0.0275
   68    0.0319
   69    0.0395
   70    0.0442
   71    0.0491
   72    0.0497
   73    0.0533
   74    0.0622
   75    0.0666
   76    0.0676

                       ROHF Final Molecular Orbital Analysis
                       -------------------------------------

 Vector   18  Occ=2.000000D+00  E=-1.398160D+00
              MO Center= -1.2D+00, -2.3D+00,  3.5D-01, r^2= 1.7D+00
   Bfn.  Coefficient  Atom+Function         Bfn.  Coefficient  Atom+Function  
  ----- ------------  ---------------      ----- ------------  ---------------
    79      0.336339   6 O  s                80      0.337254   6 O  s         
    54      0.238759   5 C  s                12      0.177731   2 C  s         

 Vector   19  Occ=2.000000D+00  E=-1.388073D+00
              MO Center= -8.2D-01,  1.7D+00,  1.6D+00, r^2= 2.2D+00
   Bfn.  Coefficient  Atom+Function         Bfn.  Coefficient  Atom+Function  
  ----- ------------  ---------------      ----- ------------  ---------------
   549      0.363367  35 O  s               548      0.332160  35 O  s         
   523      0.239159  34 C  s               309     -0.172685  19 C  s         

 Vector   20  Occ=2.000000D+00  E=-1.375947D+00
              MO Center=  1.5D+00, -4.4D-01,  1.3D-01, r^2= 2.7D+00
   Bfn.  Coefficient  Atom+Function         Bfn.  Coefficient  Atom+Function  
  ----- ------------  ---------------      ----- ------------  ---------------
   250      0.359904  16 O  s               249      0.336579  16 O  s         
   224      0.230164  15 C  s         

 Vector   21  Occ=2.000000D+00  E=-1.255809D+00
              MO Center= -8.2D-02, -2.8D+00, -7.3D-02, r^2= 1.8D+00
   Bfn.  Coefficient  Atom+Function         Bfn.  Coefficient  Atom+Function  
  ----- ------------  ---------------      ----- ------------  ---------------
   105      0.416981   7 N  s               104      0.341737   7 N  s         
    80     -0.220650   6 O  s                79     -0.184504   6 O  s         
    57      0.160834   5 C  px              128      0.157809   8 H  s         

 Vector   22  Occ=2.000000D+00  E=-1.229569D+00
              MO Center=  1.6D-01,  1.2D+00,  9.4D-01, r^2= 4.3D+00
   Bfn.  Coefficient  Atom+Function         Bfn.  Coefficient  Atom+Function  
  ----- ------------  ---------------      ----- ------------  ---------------
   275      0.315695  17 N  s               274      0.251671  17 N  s         
   573      0.222528  36 N  s               574      0.204675  36 N  s         
   549     -0.196216  35 O  s               548     -0.162229  35 O  s         

 Vector   23  Occ=2.000000D+00  E=-1.225223D+00
              MO Center=  1.3D-01,  1.7D+00,  1.2D+00, r^2= 4.5D+00
   Bfn.  Coefficient  Atom+Function         Bfn.  Coefficient  Atom+Function  
  ----- ------------  ---------------      ----- ------------  ---------------
   574      0.324748  36 N  s               573      0.293082  36 N  s         
   275     -0.284165  17 N  s               274     -0.231720  17 N  s         

 Vector   24  Occ=2.000000D+00  E=-1.096150D+00
              MO Center= -9.7D-02,  1.8D+00, -9.0D-01, r^2= 4.0D+00
   Bfn.  Coefficient  Atom+Function         Bfn.  Coefficient  Atom+Function  
  ----- ------------  ---------------      ----- ------------  ---------------
   309      0.269535  19 C  s               342      0.237234  21 C  s         
   428      0.201575  27 C  s               429      0.170345  27 C  s         

 Vector   25  Occ=2.000000D+00  E=-1.060484D+00
              MO Center=  5.1D-01, -2.4D+00, -1.2D-02, r^2= 6.2D+00
   Bfn.  Coefficient  Atom+Function         Bfn.  Coefficient  Atom+Function  
  ----- ------------  ---------------      ----- ------------  ---------------
   138      0.235885   9 C  s               172      0.196766  11 C  s         
   144      0.181917   9 C  px               12     -0.171773   2 C  s         
    11     -0.156540   2 C  s               225      0.155671  15 C  s         

 Vector   26  Occ=2.000000D+00  E=-1.005514D+00
              MO Center=  1.8D-01,  1.8D+00, -8.8D-01, r^2= 8.2D+00
   Bfn.  Coefficient  Atom+Function         Bfn.  Coefficient  Atom+Function  
  ----- ------------  ---------------      ----- ------------  ---------------
   309      0.265063  19 C  s               471     -0.232792  30 C  s         
   349     -0.183412  21 C  py              435     -0.175521  27 C  py        
   308      0.171398  19 C  s               428     -0.171560  27 C  s         
   343     -0.167123  21 C  s               434     -0.164543  27 C  px        

 Vector   27  Occ=2.000000D+00  E=-9.967561D-01
              MO Center= -6.3D-01, -2.8D+00, -6.0D-01, r^2= 7.8D+00
   Bfn.  Coefficient  Atom+Function         Bfn.  Coefficient  Atom+Function  
  ----- ------------  ---------------      ----- ------------  ---------------
    11      0.293018   2 C  s               172      0.181000  11 C  s         
   309      0.172625  19 C  s               144      0.164677   9 C  px        
    55      0.157490   5 C  s         

 Vector   28  Occ=2.000000D+00  E=-9.647289D-01
              MO Center= -3.6D-01,  1.2D+00, -4.0D-01, r^2= 5.8D+00
   Bfn.  Coefficient  Atom+Function         Bfn.  Coefficient  Atom+Function  
  ----- ------------  ---------------      ----- ------------  ---------------
   316      0.251679  19 C  pz              376     -0.246704  23 C  s         
   343      0.236908  21 C  s               348      0.228817  21 C  px        
   308      0.198222  19 C  s               145     -0.193749   9 C  py        
   139     -0.173313   9 C  s               225      0.171443  15 C  s         
   350      0.154369  21 C  pz        

 Vector   29  Occ=2.000000D+00  E=-8.895312D-01
              MO Center=  1.2D+00, -1.8D+00,  3.3D-01, r^2= 7.5D+00
   Bfn.  Coefficient  Atom+Function         Bfn.  Coefficient  Atom+Function  
  ----- ------------  ---------------      ----- ------------  ---------------
   139      0.317985   9 C  s               145      0.271413   9 C  py        
   172     -0.235064  11 C  s               225     -0.204538  15 C  s         
   309      0.187492  19 C  s               138      0.183727   9 C  s         
   174     -0.183547  11 C  s               173     -0.172551  11 C  s         

 Vector   30  Occ=2.000000D+00  E=-8.618271D-01
              MO Center= -1.1D-01,  2.3D+00, -1.2D+00, r^2= 6.0D+00
   Bfn.  Coefficient  Atom+Function         Bfn.  Coefficient  Atom+Function  
  ----- ------------  ---------------      ----- ------------  ---------------
   378      0.235563  23 C  s               471      0.210312  30 C  s         
   376      0.202824  23 C  s               472      0.189754  30 C  s         
   428     -0.173977  27 C  s               349     -0.170978  21 C  py        
   343      0.156486  21 C  s         

 Vector   31  Occ=2.000000D+00  E=-8.250193D-01
              MO Center= -8.6D-02,  1.0D+00,  4.9D-01, r^2= 1.0D+01
   Bfn.  Coefficient  Atom+Function         Bfn.  Coefficient  Atom+Function  
  ----- ------------  ---------------      ----- ------------  ---------------
   309      0.274444  19 C  s               577     -0.231934  36 N  py        
   530      0.200807  34 C  py              523      0.191945  34 C  s         
   377      0.190176  23 C  s               107     -0.178499   7 N  px        
   315      0.172553  19 C  py              597     -0.159869  37 H  s         
   316      0.155442  19 C  pz        

 Vector   32  Occ=2.000000D+00  E=-8.143393D-01
              MO Center= -1.2D-01, -1.2D+00, -2.6D-01, r^2= 9.4D+00
   Bfn.  Coefficient  Atom+Function         Bfn.  Coefficient  Atom+Function  
  ----- ------------  ---------------      ----- ------------  ---------------
   107      0.263421   7 N  px              128      0.221596   8 H  s         
   429      0.181753  27 C  s                54     -0.180701   5 C  s         
   139     -0.181391   9 C  s               343     -0.180461  21 C  s         
   105      0.154385   7 N  s               377      0.152614  23 C  s         

 Vector   33  Occ=2.000000D+00  E=-7.906071D-01
              MO Center=  2.9D-01,  2.6D-01,  1.8D-01, r^2= 7.7D+00
   Bfn.  Coefficient  Atom+Function         Bfn.  Coefficient  Atom+Function  
  ----- ------------  ---------------      ----- ------------  ---------------
   429      0.255511  27 C  s               377      0.218172  23 C  s         
   277     -0.215004  17 N  px              343     -0.208903  21 C  s         
   275      0.207226  17 N  s               225     -0.179970  15 C  s         
   298      0.166793  18 H  s                55      0.163946   5 C  s         
   128     -0.154710   8 H  s         

 Vector   34  Occ=2.000000D+00  E=-7.655524D-01
              MO Center=  8.2D-02,  1.6D+00,  6.0D-01, r^2= 6.4D+00
   Bfn.  Coefficient  Atom+Function         Bfn.  Coefficient  Atom+Function  
  ----- ------------  ---------------      ----- ------------  ---------------
   606      0.238454  38 H  s               576      0.208652  36 N  px        
   225      0.187160  15 C  s               277      0.187316  17 N  px        
   298     -0.162525  18 H  s               275     -0.159727  17 N  s         
   577      0.155660  36 N  py        

 Vector   35  Occ=2.000000D+00  E=-7.418110D-01
              MO Center=  1.6D-01,  8.4D-01,  5.2D-01, r^2= 7.6D+00
   Bfn.  Coefficient  Atom+Function         Bfn.  Coefficient  Atom+Function  
  ----- ------------  ---------------      ----- ------------  ---------------
   225      0.239320  15 C  s               429      0.210118  27 C  s         
   298     -0.187146  18 H  s               145     -0.184378   9 C  py        
   606     -0.177437  38 H  s               277      0.173787  17 N  px        
   576     -0.166282  36 N  px              578      0.163016  36 N  pz        
   597      0.160606  37 H  s         

 Vector   36  Occ=2.000000D+00  E=-7.177750D-01
              MO Center=  3.5D-01, -4.2D-02,  5.9D-01, r^2= 1.1D+01
   Bfn.  Coefficient  Atom+Function         Bfn.  Coefficient  Atom+Function  
  ----- ------------  ---------------      ----- ------------  ---------------
   145      0.328321   9 C  py              139      0.291443   9 C  s         
   225     -0.229859  15 C  s               597      0.224592  37 H  s         
   578      0.188962  36 N  pz              228     -0.182588  15 C  py        
   109     -0.178068   7 N  pz              142      0.160955   9 C  py        
   163     -0.150392  10 H  s               576     -0.150201  36 N  px        

 Vector   37  Occ=2.000000D+00  E=-6.855124D-01
              MO Center= -9.4D-01, -2.1D+00, -5.7D-02, r^2= 7.6D+00
   Bfn.  Coefficient  Atom+Function         Bfn.  Coefficient  Atom+Function  
  ----- ------------  ---------------      ----- ------------  ---------------
    57      0.250835   5 C  px               84      0.192262   6 O  pz        
    16     -0.188783   2 C  pz               80      0.177317   6 O  s         
    83      0.173781   6 O  py               19     -0.158409   2 C  pz        

 Vector   38  Occ=2.000000D+00  E=-6.776475D-01
              MO Center=  1.7D-01, -2.3D+00,  3.7D-01, r^2= 4.6D+00
   Bfn.  Coefficient  Atom+Function         Bfn.  Coefficient  Atom+Function  
  ----- ------------  ---------------      ----- ------------  ---------------
   143      0.257415   9 C  pz              162      0.202897  10 H  s         
   108     -0.201269   7 N  py               84      0.195119   6 O  pz        
   146      0.187432   9 C  pz               80      0.180049   6 O  s         
    12     -0.155898   2 C  s         

 Vector   39  Occ=2.000000D+00  E=-6.632252D-01
              MO Center= -1.8D-01,  8.9D-01,  4.2D-01, r^2= 7.8D+00
   Bfn.  Coefficient  Atom+Function         Bfn.  Coefficient  Atom+Function  
  ----- ------------  ---------------      ----- ------------  ---------------
   553      0.184099  35 O  pz              311      0.179495  19 C  px        
   139      0.151410   9 C  s         

 Vector   40  Occ=2.000000D+00  E=-6.554213D-01
              MO Center= -1.9D-01,  1.6D+00,  8.0D-04, r^2= 6.7D+00
   Bfn.  Coefficient  Atom+Function         Bfn.  Coefficient  Atom+Function  
  ----- ------------  ---------------      ----- ------------  ---------------
   343      0.286804  21 C  s               551      0.198843  35 O  px        
   527     -0.188614  34 C  py              316      0.185690  19 C  pz        
   549     -0.160802  35 O  s               433     -0.158944  27 C  pz        
   347     -0.156563  21 C  pz        

 Vector   41  Occ=2.000000D+00  E=-6.413188D-01
              MO Center=  4.6D-01,  7.5D-01,  5.5D-02, r^2= 7.4D+00
   Bfn.  Coefficient  Atom+Function         Bfn.  Coefficient  Atom+Function  
  ----- ------------  ---------------      ----- ------------  ---------------
   252      0.186270  16 O  px              312      0.174828  19 C  py        
   524     -0.175347  34 C  s               250      0.166940  16 O  s         
   278     -0.162317  17 N  py              332      0.155831  20 H  s         

 Vector   42  Occ=2.000000D+00  E=-6.239358D-01
              MO Center= -9.8D-01, -2.2D+00, -4.0D-01, r^2= 8.1D+00
   Bfn.  Coefficient  Atom+Function         Bfn.  Coefficient  Atom+Function  
  ----- ------------  ---------------      ----- ------------  ---------------
   139      0.336869   9 C  s                15      0.230021   2 C  py        
    44     -0.202959   4 H  s                35      0.191305   3 H  s         
    59     -0.168541   5 C  pz               83      0.164668   6 O  py        

 Vector   43  Occ=2.000000D+00  E=-6.046935D-01
              MO Center=  5.1D-01, -2.9D-01, -4.1D-01, r^2= 1.0D+01
   Bfn.  Coefficient  Atom+Function         Bfn.  Coefficient  Atom+Function  
  ----- ------------  ---------------      ----- ------------  ---------------
   227      0.223764  15 C  px              252     -0.216315  16 O  px        
   343      0.200749  21 C  s               254      0.191584  16 O  pz        
   309     -0.180265  19 C  s               250     -0.170399  16 O  s         

 Vector   44  Occ=2.000000D+00  E=-6.016985D-01
              MO Center=  1.3D-02,  2.3D+00,  1.4D-04, r^2= 7.8D+00
   Bfn.  Coefficient  Atom+Function         Bfn.  Coefficient  Atom+Function  
  ----- ------------  ---------------      ----- ------------  ---------------
   551     -0.255684  35 O  px              315      0.247840  19 C  py        
   476     -0.236285  30 C  pz              513     -0.193664  33 H  s         
   524     -0.192895  34 C  s               528     -0.191180  34 C  pz        
   549      0.176750  35 O  s               514     -0.169487  33 H  s         
   333     -0.164267  20 H  s               433     -0.163293  27 C  pz        

 Vector   45  Occ=2.000000D+00  E=-5.907940D-01
              MO Center= -1.9D-01, -1.7D+00, -1.1D-01, r^2= 9.2D+00
   Bfn.  Coefficient  Atom+Function         Bfn.  Coefficient  Atom+Function  
  ----- ------------  ---------------      ----- ------------  ---------------
    59      0.223836   5 C  pz               82      0.204558   6 O  px        
   139      0.200944   9 C  s               145      0.185112   9 C  py        
    58      0.166776   5 C  py              309     -0.164059  19 C  s         
   163     -0.162746  10 H  s               252      0.159491  16 O  px        

 Vector   46  Occ=2.000000D+00  E=-5.827033D-01
              MO Center= -2.9D-01, -1.8D-01, -5.6D-01, r^2= 9.9D+00
   Bfn.  Coefficient  Atom+Function         Bfn.  Coefficient  Atom+Function  
  ----- ------------  ---------------      ----- ------------  ---------------
   309      0.249999  19 C  s               380     -0.222900  23 C  py        
   400      0.201736  24 H  s               401      0.193569  24 H  s         
   343     -0.180588  21 C  s               361      0.161663  21 C  dxy       
   524     -0.156858  34 C  s         

 Vector   47  Occ=2.000000D+00  E=-5.802177D-01
              MO Center= -1.5D-02,  1.9D+00, -6.1D-01, r^2= 1.0D+01
   Bfn.  Coefficient  Atom+Function         Bfn.  Coefficient  Atom+Function  
  ----- ------------  ---------------      ----- ------------  ---------------
   475      0.260069  30 C  py              504      0.195537  32 H  s         
   495     -0.175520  31 H  s               496     -0.168804  31 H  s         
   526      0.151017  34 C  px        

 Vector   48  Occ=2.000000D+00  E=-5.759890D-01
              MO Center= -1.2D+00, -2.6D+00, -5.5D-01, r^2= 9.2D+00
   Bfn.  Coefficient  Atom+Function         Bfn.  Coefficient  Atom+Function  
  ----- ------------  ---------------      ----- ------------  ---------------
     1      0.294359   1 H  s                 2      0.281027   1 H  s         
    14     -0.274241   2 C  px              214      0.158982  14 H  s         
    16      0.157320   2 C  pz               35     -0.156118   3 H  s         

 Vector   49  Occ=2.000000D+00  E=-5.578395D-01
              MO Center= -3.1D-02,  8.5D-01,  4.8D-01, r^2= 1.0D+01
   Bfn.  Coefficient  Atom+Function         Bfn.  Coefficient  Atom+Function  
  ----- ------------  ---------------      ----- ------------  ---------------
   343      0.185091  21 C  s               174      0.166469  11 C  s         
   576     -0.166069  36 N  px              528     -0.163043  34 C  pz        
   177     -0.153380  11 C  pz              578     -0.153979  36 N  pz        
   553     -0.152286  35 O  pz        

 Vector   50  Occ=2.000000D+00  E=-5.529507D-01
              MO Center=  1.4D-01, -8.2D-03, -2.7D-01, r^2= 1.2D+01
   Bfn.  Coefficient  Atom+Function         Bfn.  Coefficient  Atom+Function  
  ----- ------------  ---------------      ----- ------------  ---------------
   419      0.189357  26 H  s               174     -0.185144  11 C  s         
    56      0.173817   5 C  s               177      0.173975  11 C  pz        
   401     -0.169314  24 H  s               400     -0.168029  24 H  s         
   309     -0.166611  19 C  s               333      0.167041  20 H  s         
   418      0.165399  26 H  s               197      0.164019  12 H  s         

 Vector   51  Occ=2.000000D+00  E=-5.514067D-01
              MO Center=  3.0D-01,  5.5D-01,  1.2D-01, r^2= 1.2D+01
   Bfn.  Coefficient  Atom+Function         Bfn.  Coefficient  Atom+Function  
  ----- ------------  ---------------      ----- ------------  ---------------
   333      0.240380  20 H  s               215     -0.192058  14 H  s         
   214     -0.168692  14 H  s               528      0.165629  34 C  pz        
   552      0.164614  35 O  py              551      0.151329  35 O  px        

 Vector   52  Occ=2.000000D+00  E=-5.372526D-01
              MO Center=  3.3D-01, -1.5D+00, -1.6D-01, r^2= 9.1D+00
   Bfn.  Coefficient  Atom+Function         Bfn.  Coefficient  Atom+Function  
  ----- ------------  ---------------      ----- ------------  ---------------
   254      0.214010  16 O  pz              215      0.208729  14 H  s         
   214      0.159548  14 H  s               279      0.155945  17 N  pz        

 Vector   53  Occ=2.000000D+00  E=-5.354021D-01
              MO Center=  1.2D+00, -1.6D+00,  2.0D-01, r^2= 8.4D+00
   Bfn.  Coefficient  Atom+Function         Bfn.  Coefficient  Atom+Function  
  ----- ------------  ---------------      ----- ------------  ---------------
   176      0.282037  11 C  py              196     -0.240972  12 H  s         
    12      0.174042   2 C  s               215      0.174131  14 H  s         
    55     -0.168608   5 C  s               252     -0.162871  16 O  px        
   278     -0.161470  17 N  py              197     -0.159988  12 H  s         
   142     -0.155419   9 C  py        

 Vector   54  Occ=2.000000D+00  E=-5.292372D-01
              MO Center=  1.2D-02, -2.7D+00, -1.3D-02, r^2= 6.4D+00
   Bfn.  Coefficient  Atom+Function         Bfn.  Coefficient  Atom+Function  
  ----- ------------  ---------------      ----- ------------  ---------------
   175     -0.242849  11 C  px              141      0.227724   9 C  px        
    83      0.205058   6 O  py               35     -0.174582   3 H  s         
    86      0.158011   6 O  py               45      0.152557   4 H  s         

 Vector   55  Occ=2.000000D+00  E=-5.139313D-01
              MO Center=  1.2D+00, -1.1D+00, -9.8D-02, r^2= 1.0D+01
   Bfn.  Coefficient  Atom+Function         Bfn.  Coefficient  Atom+Function  
  ----- ------------  ---------------      ----- ------------  ---------------
   173      0.259207  11 C  s               178     -0.252615  11 C  px        
   174     -0.242912  11 C  s               205     -0.227025  13 H  s         
   162     -0.223014  10 H  s                56      0.203320   5 C  s         
   197      0.199881  12 H  s               175     -0.191320  11 C  px        
   143     -0.185702   9 C  pz              177      0.181716  11 C  pz        

 Vector   56  Occ=2.000000D+00  E=-5.117227D-01
              MO Center=  4.4D-02,  9.3D-01, -8.3D-01, r^2= 1.1D+01
   Bfn.  Coefficient  Atom+Function         Bfn.  Coefficient  Atom+Function  
  ----- ------------  ---------------      ----- ------------  ---------------
   401      0.230016  24 H  s               474      0.211197  30 C  px        
   431     -0.202793  27 C  px              379      0.165853  23 C  px        
   505     -0.158117  32 H  s               380     -0.156213  23 C  py        
   139     -0.152338   9 C  s         

 Vector   57  Occ=2.000000D+00  E=-5.040280D-01
              MO Center= -3.2D-01,  2.4D+00, -1.3D+00, r^2= 5.2D+00
   Bfn.  Coefficient  Atom+Function         Bfn.  Coefficient  Atom+Function  
  ----- ------------  ---------------      ----- ------------  ---------------
   419      0.335414  26 H  s               514     -0.278535  33 H  s         
   381     -0.244991  23 C  pz              378     -0.239806  23 C  s         
   453     -0.233797  28 H  s               462      0.226432  29 H  s         
   418      0.215424  26 H  s               476     -0.216167  30 C  pz        
   433      0.209740  27 C  pz              513     -0.205677  33 H  s         

 Vector   58  Occ=2.000000D+00  E=-4.830517D-01
              MO Center= -5.3D-02,  2.1D+00, -9.7D-01, r^2= 5.2D+00
   Bfn.  Coefficient  Atom+Function         Bfn.  Coefficient  Atom+Function  
  ----- ------------  ---------------      ----- ------------  ---------------
   462      0.298347  29 H  s               453     -0.254486  28 H  s         
   461      0.219841  29 H  s               433      0.210120  27 C  pz        
   367      0.205105  22 H  s               366      0.202820  22 H  s         
   347     -0.199670  21 C  pz              377     -0.195449  23 C  s         
   315     -0.180373  19 C  py              410      0.178314  25 H  s         

 Vector   59  Occ=2.000000D+00  E=-4.683538D-01
              MO Center= -6.6D-02,  1.8D+00, -8.4D-01, r^2= 5.5D+00
   Bfn.  Coefficient  Atom+Function         Bfn.  Coefficient  Atom+Function  
  ----- ------------  ---------------      ----- ------------  ---------------
   333      0.255746  20 H  s               472      0.229821  30 C  s         
   401      0.212545  24 H  s               316      0.204661  19 C  pz        
   345     -0.203359  21 C  px              382      0.202125  23 C  px        
   367     -0.189034  22 H  s               379      0.181928  23 C  px        
   346      0.180299  21 C  py              524     -0.178322  34 C  s         

 Vector   60  Occ=2.000000D+00  E=-4.530487D-01
              MO Center= -2.1D-01,  1.7D+00, -1.1D+00, r^2= 6.1D+00
   Bfn.  Coefficient  Atom+Function         Bfn.  Coefficient  Atom+Function  
  ----- ------------  ---------------      ----- ------------  ---------------
   432     -0.238904  27 C  py              346      0.235098  21 C  py        
   472     -0.215332  30 C  s               401      0.207582  24 H  s         
   379     -0.197610  23 C  px              345      0.193355  21 C  px        
   505      0.188996  32 H  s               380     -0.178941  23 C  py        
   400      0.176636  24 H  s               477      0.174014  30 C  px        

 Vector   61  Occ=2.000000D+00  E=-4.405011D-01
              MO Center=  3.1D-01, -1.1D+00, -8.4D-02, r^2= 7.0D+00
   Bfn.  Coefficient  Atom+Function         Bfn.  Coefficient  Atom+Function  
  ----- ------------  ---------------      ----- ------------  ---------------
   253      0.347319  16 O  py              256      0.279193  16 O  py        
    84      0.219087   6 O  pz               83     -0.191876   6 O  py        
   108      0.172419   7 N  py              109     -0.171792   7 N  pz        
   111      0.170913   7 N  py              139      0.169383   9 C  s         
    87      0.167622   6 O  pz               86     -0.150529   6 O  py        

 Vector   62  Occ=2.000000D+00  E=-4.286123D-01
              MO Center= -1.2D+00, -2.2D+00,  2.7D-01, r^2= 3.6D+00
   Bfn.  Coefficient  Atom+Function         Bfn.  Coefficient  Atom+Function  
  ----- ------------  ---------------      ----- ------------  ---------------
    82      0.449301   6 O  px               85      0.365720   6 O  px        
   225      0.204250  15 C  s                83      0.182357   6 O  py        
   105     -0.180939   7 N  s                84      0.170174   6 O  pz        
    13     -0.165271   2 C  s                16      0.165120   2 C  pz        
    19      0.164867   2 C  pz              144     -0.158800   9 C  px        

 Vector   63  Occ=2.000000D+00  E=-4.195412D-01
              MO Center= -8.2D-01,  1.6D+00,  1.3D+00, r^2= 3.6D+00
   Bfn.  Coefficient  Atom+Function         Bfn.  Coefficient  Atom+Function  
  ----- ------------  ---------------      ----- ------------  ---------------
   552     -0.354128  35 O  py              553     -0.351518  35 O  pz        
   309      0.326481  19 C  s               524     -0.323895  34 C  s         
   377      0.296859  23 C  s               555     -0.295097  35 O  py        
   556     -0.279516  35 O  pz              545     -0.233452  34 C  dyz       
   367     -0.227077  22 H  s               530      0.218826  34 C  py        

 Vector   64  Occ=2.000000D+00  E=-4.129972D-01
              MO Center= -6.6D-01,  2.5D+00,  1.7D+00, r^2= 2.5D+00
   Bfn.  Coefficient  Atom+Function         Bfn.  Coefficient  Atom+Function  
  ----- ------------  ---------------      ----- ------------  ---------------
   578     -0.292587  36 N  pz              581     -0.275339  36 N  pz        
   576     -0.272159  36 N  px              551      0.268148  35 O  px        
   552     -0.244677  35 O  py              579     -0.245881  36 N  px        
   554      0.209158  35 O  px              553      0.200895  35 O  pz        
   555     -0.198235  35 O  py              556      0.165665  35 O  pz        

 Vector   65  Occ=2.000000D+00  E=-3.925195D-01
              MO Center=  6.4D-01, -1.7D+00,  7.2D-02, r^2= 4.6D+00
   Bfn.  Coefficient  Atom+Function         Bfn.  Coefficient  Atom+Function  
  ----- ------------  ---------------      ----- ------------  ---------------
   253      0.340282  16 O  py              108     -0.290238   7 N  py        
   111     -0.266079   7 N  py              256      0.267133  16 O  py        
   109      0.197648   7 N  pz               83      0.187021   6 O  py        
   112      0.177054   7 N  pz              142      0.174791   9 C  py        
   228     -0.164719  15 C  py              145      0.154825   9 C  py        

 Vector   66  Occ=2.000000D+00  E=-3.785926D-01
              MO Center=  7.3D-01,  1.4D-01,  2.4D-01, r^2= 3.7D+00
   Bfn.  Coefficient  Atom+Function         Bfn.  Coefficient  Atom+Function  
  ----- ------------  ---------------      ----- ------------  ---------------
   279      0.387155  17 N  pz              282      0.359544  17 N  pz        
   254     -0.290546  16 O  pz              257     -0.228460  16 O  pz        
   276      0.196474  17 N  s               309     -0.180057  19 C  s         
   319     -0.172824  19 C  pz              277      0.166498  17 N  px        
   347      0.155302  21 C  pz        

 Vector   67  Occ=0.000000D+00  E= 2.751859D-02
              MO Center= -1.8D-01, -4.3D+00, -1.9D+00, r^2= 2.5D+01
   Bfn.  Coefficient  Atom+Function         Bfn.  Coefficient  Atom+Function  
  ----- ------------  ---------------      ----- ------------  ---------------
   234      3.113372  15 C  py              402     -2.535355  24 H  s         
    12     -1.848201   2 C  s               148      1.771795   9 C  py        
   106      1.737736   7 N  s               226     -1.717790  15 C  s         
   198      1.692937  12 H  s                46      1.647138   4 H  s         
    37      1.572691   3 H  s                45      1.489911   4 H  s         

 Vector   68  Occ=0.000000D+00  E= 3.193993D-02
              MO Center=  6.5D-01,  4.9D+00,  4.1D-01, r^2= 2.7D+01
   Bfn.  Coefficient  Atom+Function         Bfn.  Coefficient  Atom+Function  
  ----- ------------  ---------------      ----- ------------  ---------------
   378      2.939031  23 C  s               575     -2.409105  36 N  s         
   506     -2.364872  32 H  s               533      2.278550  34 C  py        
   599     -1.771577  37 H  s               318      1.702079  19 C  py        
   234      1.580061  15 C  py              429      1.318976  27 C  s         
   147      1.298561   9 C  px              351      1.275992  21 C  px        

 Vector   69  Occ=0.000000D+00  E= 3.948221D-02
              MO Center=  1.3D-01, -1.1D+00, -1.2D+00, r^2= 4.2D+01
   Bfn.  Coefficient  Atom+Function         Bfn.  Coefficient  Atom+Function  
  ----- ------------  ---------------      ----- ------------  ---------------
   319     -2.482770  19 C  pz              198      2.306345  12 H  s         
    63     -2.265091   5 C  px               37     -2.092034   3 H  s         
   106      1.963454   7 N  s               420     -1.951788  26 H  s         
   234      1.859391  15 C  py              147     -1.753129   9 C  px        
   454     -1.669787  28 H  s               575      1.540651  36 N  s         

 Vector   70  Occ=0.000000D+00  E= 4.423074D-02
              MO Center=  1.7D-01, -2.1D-01, -1.1D+00, r^2= 5.0D+01
   Bfn.  Coefficient  Atom+Function         Bfn.  Coefficient  Atom+Function  
  ----- ------------  ---------------      ----- ------------  ---------------
   147      4.553847   9 C  px              378      3.947003  23 C  s         
    63      3.390717   5 C  px              352      2.715461  21 C  py        
    56      2.372766   5 C  s               575      2.256045  36 N  s         
   351      1.907770  21 C  px              174     -1.826912  11 C  s         
     3      1.744821   1 H  s               533     -1.719609  34 C  py        

 Vector   71  Occ=0.000000D+00  E= 4.906374D-02
              MO Center=  6.3D-01,  3.9D-01, -1.2D+00, r^2= 4.8D+01
   Bfn.  Coefficient  Atom+Function         Bfn.  Coefficient  Atom+Function  
  ----- ------------  ---------------      ----- ------------  ---------------
   352      4.803739  21 C  py              378      3.840395  23 C  s         
   506     -3.749780  32 H  s               318     -2.874939  19 C  py        
   473     -2.675429  30 C  s                46     -2.591089   4 H  s         
   351      2.552015  21 C  px              334      2.490489  20 H  s         
   481      2.456221  30 C  py              319     -2.291111  19 C  pz        

 Vector   72  Occ=0.000000D+00  E= 4.966634D-02
              MO Center=  1.9D-01, -1.6D+00, -3.1D-01, r^2= 4.0D+01
   Bfn.  Coefficient  Atom+Function         Bfn.  Coefficient  Atom+Function  
  ----- ------------  ---------------      ----- ------------  ---------------
   164     -2.273688  10 H  s               130      2.211065   8 H  s         
   420     -2.062924  26 H  s                 3     -1.953837   1 H  s         
   174      1.885586  11 C  s               216     -1.876535  14 H  s         
   207      1.723342  13 H  s               473      1.573180  30 C  s         
   334     -1.469275  20 H  s               351     -1.416914  21 C  px        

 Vector   73  Occ=0.000000D+00  E= 5.332957D-02
              MO Center=  2.6D-01,  1.9D+00, -4.4D-01, r^2= 4.3D+01
   Bfn.  Coefficient  Atom+Function         Bfn.  Coefficient  Atom+Function  
  ----- ------------  ---------------      ----- ------------  ---------------
   463      3.321018  29 H  s               515     -2.276176  33 H  s         
   437      2.136079  27 C  px              106      1.916192   7 N  s         
   234      1.814462  15 C  py              130      1.765612   8 H  s         
   402      1.748778  24 H  s               198      1.691942  12 H  s         
   472      1.660685  30 C  s               216     -1.539956  14 H  s         

 Vector   74  Occ=0.000000D+00  E= 6.220927D-02
              MO Center= -2.5D-02, -1.5D+00, -4.9D-01, r^2= 4.2D+01
   Bfn.  Coefficient  Atom+Function         Bfn.  Coefficient  Atom+Function  
  ----- ------------  ---------------      ----- ------------  ---------------
   164      4.184845  10 H  s                63     -3.639548   5 C  px        
     3     -3.476061   1 H  s               207     -3.091751  13 H  s         
   454      2.890796  28 H  s                56     -2.869092   5 C  s         
   149     -2.838156   9 C  pz               13     -2.807790   2 C  s         
   113     -2.748376   7 N  px              148     -2.492981   9 C  py        

 Vector   75  Occ=0.000000D+00  E= 6.656273D-02
              MO Center=  5.6D-01,  6.0D-01, -1.8D+00, r^2= 4.2D+01
   Bfn.  Coefficient  Atom+Function         Bfn.  Coefficient  Atom+Function  
  ----- ------------  ---------------      ----- ------------  ---------------
   497      4.000210  31 H  s                37     -3.170620   3 H  s         
   506     -2.615236  32 H  s               207      2.536997  13 H  s         
   378     -2.209980  23 C  s               318      2.066676  19 C  py        
   319     -2.010251  19 C  pz              481      2.015033  30 C  py        
   608     -1.984683  38 H  s               411      1.855533  25 H  s         

 Vector   76  Occ=0.000000D+00  E= 6.763289D-02
              MO Center=  9.4D-01, -5.1D-01, -1.3D-01, r^2= 4.8D+01
   Bfn.  Coefficient  Atom+Function         Bfn.  Coefficient  Atom+Function  
  ----- ------------  ---------------      ----- ------------  ---------------
   198      4.773906  12 H  s               515      4.177682  33 H  s         
   174      3.763066  11 C  s               226     -3.578272  15 C  s         
   420      3.476956  26 H  s               334     -3.429291  20 H  s         
    13      3.361115   2 C  s               216     -3.316956  14 H  s         
   463     -3.029141  29 H  s               234      2.725426  15 C  py        

 Vector   77  Occ=0.000000D+00  E= 7.010310D-02
              MO Center=  1.0D-01, -1.3D-01, -3.6D-01, r^2= 4.6D+01
   Bfn.  Coefficient  Atom+Function         Bfn.  Coefficient  Atom+Function  
  ----- ------------  ---------------      ----- ------------  ---------------
   334     -4.327028  20 H  s               234      4.090149  15 C  py        
   454     -3.893177  28 H  s               164      3.752078  10 H  s         
   378     -3.585772  23 C  s               318      3.564330  19 C  py        
    46     -3.521656   4 H  s               351     -3.440558  21 C  px        
   216     -2.568992  14 H  s               506      2.548296  32 H  s         

 Vector   78  Occ=0.000000D+00  E= 7.287284D-02
              MO Center= -2.9D-01, -2.0D-01,  1.8D-01, r^2= 4.3D+01
   Bfn.  Coefficient  Atom+Function         Bfn.  Coefficient  Atom+Function  
  ----- ------------  ---------------      ----- ------------  ---------------
   164      3.736936  10 H  s               130      3.497311   8 H  s         
   411      3.181588  25 H  s                63     -3.017153   5 C  px        
    56     -2.875192   5 C  s               351      2.710565  21 C  px        
   106      2.695237   7 N  s               454     -2.565961  28 H  s         
   198     -2.521091  12 H  s               515      2.350501  33 H  s         

 Vector   79  Occ=0.000000D+00  E= 7.831614D-02
              MO Center=  1.4D-01,  7.9D-01, -1.1D+00, r^2= 4.5D+01
   Bfn.  Coefficient  Atom+Function         Bfn.  Coefficient  Atom+Function  
  ----- ------------  ---------------      ----- ------------  ---------------
   608      4.592018  38 H  s               454      4.090172  28 H  s         
   497     -4.017098  31 H  s               463     -3.655736  29 H  s         
     3      3.512059   1 H  s               515     -3.109503  33 H  s         
   207      2.844430  13 H  s                37     -2.599859   3 H  s         
   113      2.285644   7 N  px              234      2.240225  15 C  py        

 Vector   80  Occ=0.000000D+00  E= 8.207611D-02
              MO Center= -1.2D-01,  2.7D+00, -6.5D-01, r^2= 3.8D+01
   Bfn.  Coefficient  Atom+Function         Bfn.  Coefficient  Atom+Function  
  ----- ------------  ---------------      ----- ------------  ---------------
   463      7.535109  29 H  s               368      6.086410  22 H  s         
   353      4.365988  21 C  pz              439     -3.529736  27 C  pz        
   608      3.401678  38 H  s               506     -3.383267  32 H  s         
   300     -3.278596  18 H  s               147     -3.234384   9 C  px        
   174      3.231696  11 C  s               149     -2.900657   9 C  pz        

 Vector   81  Occ=0.000000D+00  E= 8.962296D-02
              MO Center= -1.3D-01, -7.1D-01, -1.2D+00, r^2= 4.6D+01
   Bfn.  Coefficient  Atom+Function         Bfn.  Coefficient  Atom+Function  
  ----- ------------  ---------------      ----- ------------  ---------------
   420     -7.437056  26 H  s               334      7.072813  20 H  s         
   207     -4.267246  13 H  s               454      4.185662  28 H  s         
   198      4.018752  12 H  s                46     -3.752773   4 H  s         
   387     -3.566288  23 C  pz              515     -3.376404  33 H  s         
   473     -3.185402  30 C  s               317     -3.047428  19 C  px        

 Vector   82  Occ=0.000000D+00  E= 9.295924D-02
              MO Center=  9.9D-01, -1.5D+00, -8.5D-01, r^2= 3.9D+01
   Bfn.  Coefficient  Atom+Function         Bfn.  Coefficient  Atom+Function  
  ----- ------------  ---------------      ----- ------------  ---------------
   368      6.119623  22 H  s               216      5.567633  14 H  s         
   174      5.098611  11 C  s               207     -4.524973  13 H  s         
    37     -4.161679   3 H  s               352      3.727958  21 C  py        
    56     -3.702060   5 C  s               334     -3.718001  20 H  s         
   130      3.556220   8 H  s               318     -3.175133  19 C  py        

 Vector   83  Occ=0.000000D+00  E= 9.841669D-02
              MO Center=  9.8D-01,  1.3D+00, -1.9D-01, r^2= 4.0D+01
   Bfn.  Coefficient  Atom+Function         Bfn.  Coefficient  Atom+Function  
  ----- ------------  ---------------      ----- ------------  ---------------
   334     10.758198  20 H  s               174      6.945383  11 C  s         
   454     -6.201148  28 H  s               317     -6.044741  19 C  px        
   226     -5.483807  15 C  s               515     -5.503989  33 H  s         
   506      4.355357  32 H  s               411     -4.156792  25 H  s         
[...]
   473     -8.779035  30 C  s                65      8.364649   5 C  pz        
   113      8.297696   7 N  px               56      7.233707   5 C  s         
   525      6.712103  34 C  s               174      6.374259  11 C  s         

 Vector  171  Occ=0.000000D+00  E= 4.367030D-01
              MO Center= -2.8D-01, -9.4D-01,  4.7D-01, r^2= 2.2D+01
   Bfn.  Coefficient  Atom+Function         Bfn.  Coefficient  Atom+Function  
  ----- ------------  ---------------      ----- ------------  ---------------
   226     15.388549  15 C  s               140     13.874620   9 C  s         
   378    -12.225348  23 C  s               430     11.309945  27 C  s         
    13    -10.458102   2 C  s               351    -10.129801  21 C  px        
   234     -9.371943  15 C  py              147     -8.731036   9 C  px        
   276     -8.647688  17 N  s                56     -8.465556   5 C  s         

 Vector  172  Occ=0.000000D+00  E= 4.411978D-01
              MO Center= -1.6D-01, -1.1D-01, -5.9D-01, r^2= 2.2D+01
   Bfn.  Coefficient  Atom+Function         Bfn.  Coefficient  Atom+Function  
  ----- ------------  ---------------      ----- ------------  ---------------
    56     10.107708   5 C  s               234      8.637548  15 C  py        
   351     -8.466135  21 C  px              318     -8.028159  19 C  py        
   368      7.343311  22 H  s               147      7.128509   9 C  px        
   233     -6.332451  15 C  px              439     -5.906049  27 C  pz        
   319     -5.743662  19 C  pz              173      5.704544  11 C  s         

 Vector  173  Occ=0.000000D+00  E= 4.446635D-01
              MO Center=  3.0D-02,  1.0D+00, -1.0D+00, r^2= 1.9D+01
   Bfn.  Coefficient  Atom+Function         Bfn.  Coefficient  Atom+Function  
  ----- ------------  ---------------      ----- ------------  ---------------
   378     13.513508  23 C  s               352     10.691672  21 C  py        
   377      9.690608  23 C  s               226     -9.531983  15 C  s         
   106      9.249651   7 N  s               430     -9.149128  27 C  s         
   575      9.060701  36 N  s               351     -8.652836  21 C  px        
   318     -8.421998  19 C  py              473     -7.792297  30 C  s         

 Vector  174  Occ=0.000000D+00  E= 4.455531D-01
              MO Center=  5.6D-02,  2.3D-01, -2.9D-01, r^2= 2.4D+01
   Bfn.  Coefficient  Atom+Function         Bfn.  Coefficient  Atom+Function  
  ----- ------------  ---------------      ----- ------------  ---------------
   575     11.481196  36 N  s               276     10.494142  17 N  s         
   226    -10.253352  15 C  s               429    -10.253923  27 C  s         
   140     -9.585220   9 C  s               462      9.188171  29 H  s         
   453      8.554787  28 H  s                13      8.329450   2 C  s         
   525     -7.145669  34 C  s               378      7.068631  23 C  s         

 Vector  175  Occ=0.000000D+00  E= 4.509238D-01
              MO Center= -2.9D-02, -3.1D-02,  2.6D-02, r^2= 2.2D+01
   Bfn.  Coefficient  Atom+Function         Bfn.  Coefficient  Atom+Function  
  ----- ------------  ---------------      ----- ------------  ---------------
   276     11.715215  17 N  s               174     -8.384291  11 C  s         
   317      7.725110  19 C  px              318      6.965253  19 C  py        
   283     -6.070399  17 N  px              319     -6.056185  19 C  pz        
   575      5.934457  36 N  s               344     -5.389035  21 C  s         
   525     -4.822261  34 C  s               285      4.749526  17 N  pz        

 Vector  176  Occ=0.000000D+00  E= 4.531323D-01
              MO Center=  2.9D-01, -8.4D-01, -5.8D-01, r^2= 2.4D+01
   Bfn.  Coefficient  Atom+Function         Bfn.  Coefficient  Atom+Function  
  ----- ------------  ---------------      ----- ------------  ---------------
   174     18.239451  11 C  s               276     13.327239  17 N  s         
   148     11.837600   9 C  py              226    -11.567266  15 C  s         
   140    -10.551162   9 C  s               575    -10.533337  36 N  s         
    13     10.190655   2 C  s               173      9.917982  11 C  s         
   318      8.694102  19 C  py              206     -6.881453  13 H  s         

 Vector  177  Occ=0.000000D+00  E= 4.574641D-01
              MO Center= -1.8D-01, -2.6D-01, -8.3D-01, r^2= 2.4D+01
   Bfn.  Coefficient  Atom+Function         Bfn.  Coefficient  Atom+Function  
  ----- ------------  ---------------      ----- ------------  ---------------
    12     10.471880   2 C  s               472      9.324171  30 C  s         
   106      7.446828   7 N  s               496     -7.327996  31 H  s         
   378      7.060113  23 C  s               276      7.016562  17 N  s         
     2     -6.558353   1 H  s               174      5.168586  11 C  s         
   226     -5.191220  15 C  s               430     -5.117778  27 C  s         

 Vector  178  Occ=0.000000D+00  E= 4.657807D-01
              MO Center=  1.1D-01,  6.4D-03, -1.4D-01, r^2= 2.2D+01
   Bfn.  Coefficient  Atom+Function         Bfn.  Coefficient  Atom+Function  
  ----- ------------  ---------------      ----- ------------  ---------------
   473     10.409470  30 C  s               174     -8.809052  11 C  s         
    56      7.189756   5 C  s               147      7.005260   9 C  px        
   352     -6.713963  21 C  py              344     -6.064002  21 C  s         
   367      5.921169  22 H  s               317      5.889480  19 C  px        
   106     -5.859538   7 N  s               351     -5.441794  21 C  px        

 Vector  179  Occ=0.000000D+00  E= 4.672191D-01
              MO Center= -8.5D-02, -1.9D-01, -6.6D-01, r^2= 2.2D+01
   Bfn.  Coefficient  Atom+Function         Bfn.  Coefficient  Atom+Function  
  ----- ------------  ---------------      ----- ------------  ---------------
   106     14.038939   7 N  s               226    -10.464767  15 C  s         
   429     -9.634377  27 C  s               402      9.356367  24 H  s         
   430     -9.356950  27 C  s               473      8.875867  30 C  s         
   351      8.356483  21 C  px              140     -8.119722   9 C  s         
   453      8.044807  28 H  s               149      7.431684   9 C  pz        

 Vector  180  Occ=0.000000D+00  E= 4.744984D-01
              MO Center=  4.5D-01,  1.3D+00, -2.2D-01, r^2= 2.2D+01
   Bfn.  Coefficient  Atom+Function         Bfn.  Coefficient  Atom+Function  
  ----- ------------  ---------------      ----- ------------  ---------------
   472     10.909289  30 C  s               473      8.943748  30 C  s         
   378      8.342284  23 C  s               505     -8.370268  32 H  s         
   377      7.409062  23 C  s               514     -7.114440  33 H  s         
   174      6.375983  11 C  s               453     -5.254227  28 H  s         
   575     -5.193022  36 N  s               429      4.748758  27 C  s         

 Vector  181  Occ=0.000000D+00  E= 4.767088D-01
              MO Center=  7.2D-01,  7.9D-01, -1.8D-01, r^2= 2.3D+01
   Bfn.  Coefficient  Atom+Function         Bfn.  Coefficient  Atom+Function  
  ----- ------------  ---------------      ----- ------------  ---------------
   473     13.902929  30 C  s               234    -11.054395  15 C  py        
   351     11.064984  21 C  px              319      9.589730  19 C  pz        
   283      8.710434  17 N  px              378      7.995579  23 C  s         
   514     -7.514536  33 H  s               317     -6.635884  19 C  px        
    56     -6.227301   5 C  s               334      6.247281  20 H  s         

 Vector  182  Occ=0.000000D+00  E= 4.780655D-01
              MO Center= -7.1D-01, -2.6D-01, -5.4D-01, r^2= 2.2D+01
   Bfn.  Coefficient  Atom+Function         Bfn.  Coefficient  Atom+Function  
  ----- ------------  ---------------      ----- ------------  ---------------
   174      9.736942  11 C  s               318     -6.950721  19 C  py        
   575      5.885492  36 N  s               106     -5.485191   7 N  s         
   284     -5.306080  17 N  py               13      5.141464   2 C  s         
   173      5.157405  11 C  s               317      4.975982  19 C  px        
   140     -4.827567   9 C  s               206     -4.474604  13 H  s         

 Vector  183  Occ=0.000000D+00  E= 4.837075D-01
              MO Center=  1.5D-01, -3.7D-01, -2.4D-01, r^2= 2.1D+01
   Bfn.  Coefficient  Atom+Function         Bfn.  Coefficient  Atom+Function  
  ----- ------------  ---------------      ----- ------------  ---------------
   352     18.896943  21 C  py              378     18.458607  23 C  s         
    56     14.565769   5 C  s                13     13.717476   2 C  s         
   226    -13.527666  15 C  s               473    -11.429277  30 C  s         
    63     10.910777   5 C  px              148      8.223496   9 C  py        
   140     -7.920899   9 C  s               351      7.813528  21 C  px        

 Vector  184  Occ=0.000000D+00  E= 4.859273D-01
              MO Center=  8.7D-01,  2.4D+00, -1.3D+00, r^2= 1.8D+01
   Bfn.  Coefficient  Atom+Function         Bfn.  Coefficient  Atom+Function  
  ----- ------------  ---------------      ----- ------------  ---------------
   318     11.362729  19 C  py              473    -10.866558  30 C  s         
   575     -9.436845  36 N  s               439     -8.723682  27 C  pz        
   496      8.320754  31 H  s               344      6.426017  21 C  s         
   497      5.581987  31 H  s               352     -5.421432  21 C  py        
   463      4.924793  29 H  s               429     -4.549680  27 C  s         

 Vector  185  Occ=0.000000D+00  E= 4.899735D-01
              MO Center=  3.7D-01, -5.9D-01, -1.6D-01, r^2= 2.3D+01
   Bfn.  Coefficient  Atom+Function         Bfn.  Coefficient  Atom+Function  
  ----- ------------  ---------------      ----- ------------  ---------------
   276     11.196784  17 N  s               174     -9.814186  11 C  s         
   473      8.859580  30 C  s               318      8.786551  19 C  py        
   113      6.160507   7 N  px               63      6.000077   5 C  px        
   206      5.966382  13 H  s                13      5.745141   2 C  s         
   514     -5.513742  33 H  s               575     -5.529328  36 N  s         

 Vector  186  Occ=0.000000D+00  E= 4.945060D-01
              MO Center=  4.2D-01,  1.0D+00, -2.1D-01, r^2= 2.1D+01
   Bfn.  Coefficient  Atom+Function         Bfn.  Coefficient  Atom+Function  
  ----- ------------  ---------------      ----- ------------  ---------------
   462      8.904868  29 H  s               276      7.744821  17 N  s         
   429     -7.480862  27 C  s               174     -6.867250  11 C  s         
   163      5.593029  10 H  s               309     -5.570554  19 C  s         
   353      5.548328  21 C  pz              233      5.480234  15 C  px        
   402      5.365958  24 H  s               430     -4.819861  27 C  s         

 Vector  187  Occ=0.000000D+00  E= 5.000951D-01
              MO Center=  1.0D-01, -7.6D-01, -4.2D-01, r^2= 2.1D+01
   Bfn.  Coefficient  Atom+Function         Bfn.  Coefficient  Atom+Function  
  ----- ------------  ---------------      ----- ------------  ---------------
   174     16.844673  11 C  s                56    -15.035867   5 C  s         
   147    -10.742580   9 C  px               12     -7.952303   2 C  s         
   402      7.308348  24 H  s               148      6.452509   9 C  py        
     2      6.001685   1 H  s               197     -5.818169  12 H  s         
   149     -5.709288   9 C  pz               36      5.180183   3 H  s         


 center of mass
 --------------
 x =  -0.00729668 y =  -0.03188456 z =   0.08740194

 moments of inertia (a.u.)
 ------------------
        6351.475548999198          -0.000000000000           0.000000000001
          -0.000000000000        2797.208395409286          -0.000000000001
           0.000000000001          -0.000000000001        6889.385156061094

  Mulliken analysis of the total density
  --------------------------------------

    Atom       Charge   Shell Charges
 -----------   ------   -------------------------------------------------------
    1 H    1     0.93   0.76  0.19  0.01  0.03 -0.06
    2 C    6     6.38   2.01  0.66  0.30  0.16  2.07  1.02  0.00  0.06  0.11
    3 H    1     0.85   0.76  0.11  0.00  0.03 -0.06
    4 H    1     0.84   0.76  0.10  0.01  0.03 -0.07
    5 C    6     5.18   2.01  0.68  0.08  0.02  1.90  0.32 -0.06  0.24 -0.00
    6 O    8     8.74   2.01  0.82  0.99  0.15  2.80  1.85  0.13  0.02 -0.01
    7 N    7     7.51   2.01  0.72  0.83 -0.15  2.45  1.45  0.11  0.05  0.05
    8 H    1     0.98   0.77  0.22 -0.03  0.05 -0.04
    9 C    6     6.72   2.01  0.66  0.15 -0.01  1.99  1.65 -0.12  0.14  0.24
   10 H    1     1.06   0.78  0.23  0.01  0.03  0.01
   11 C    6     5.74   2.01  0.66  0.18  0.28  2.04  0.52 -0.05  0.07  0.01
   12 H    1     0.96   0.77  0.22  0.02  0.03 -0.08
   13 H    1     0.88   0.77  0.13  0.02  0.03 -0.07
   14 H    1     0.97   0.77  0.24  0.00  0.03 -0.08
   15 C    6     4.49   2.01  0.68 -0.07  0.03  1.88  0.03  0.09  0.24 -0.39
   16 O    8     8.84   2.01  0.82  1.03  0.17  2.79  1.86  0.16  0.01 -0.01
   17 N    7     7.59   2.01  0.72  0.88 -0.07  2.45  1.47  0.03  0.05  0.05
   18 H    1     0.84   0.73  0.19 -0.05  0.06 -0.09
   19 C    6     6.17   2.01  0.66  0.27 -0.01  2.00  1.19 -0.03  0.14 -0.05
   20 H    1     1.23   0.79  0.41 -0.01  0.03  0.02
   21 C    6     6.41   2.01  0.66 -0.02  0.03  2.01  1.23 -0.07  0.12  0.43
   22 H    1     1.21   0.79  0.43  0.02  0.03 -0.05
   23 C    6     5.42   2.01  0.67  0.20  0.16  2.04  0.43 -0.09  0.07 -0.08
   24 H    1     1.23   0.78  0.38  0.08  0.03 -0.03
   25 H    1     0.90   0.77  0.16  0.01  0.03 -0.07
   26 H    1     0.96   0.78  0.27 -0.01  0.03 -0.11
   27 C    6     6.07   2.01  0.66  0.52 -0.07  2.03  0.75 -0.11  0.10  0.18
   28 H    1     0.95   0.79  0.24  0.00  0.03 -0.11
   29 H    1     0.88   0.79  0.19 -0.03  0.03 -0.10
   30 C    6     5.70   2.01  0.66  0.26  0.14  2.04  0.58  0.01  0.07 -0.06
   31 H    1     0.92   0.77  0.20 -0.01  0.03 -0.08
   32 H    1     1.01   0.78  0.28  0.00  0.03 -0.08
   33 H    1     1.04   0.79  0.25  0.03  0.03 -0.05
   34 C    6     4.48   2.01  0.68  0.05  0.11  1.89 -0.29 -0.00  0.24 -0.20
   35 O    8     8.81   2.01  0.82  1.05  0.16  2.79  1.86  0.12  0.01  0.00
   36 N    7     7.21   2.01  0.72  0.84 -0.17  2.47  1.24  0.08  0.04 -0.02
   37 H    1     0.99   0.75  0.21 -0.00  0.06 -0.03
   38 H    1     0.93   0.76  0.20 -0.02  0.05 -0.05

       Multipole analysis of the density wrt the origin
       ------------------------------------------------

     L   x y z        total         open         nuclear
     -   - - -        -----         ----         -------
     0   0 0 0      0.000000      0.000000    132.000000

     1   1 0 0      0.514286      0.000000      0.000000
     1   0 1 0     -0.205523      0.000000      0.000000
     1   0 0 1     -1.070232      0.000000     -0.000000

     2   2 0 0    -88.920420      0.000000    949.938636
     2   1 1 0      1.206786      0.000000      6.070091
     2   1 0 1      9.017198      0.000000     26.327671
     2   0 2 0    -54.135323      0.000000   2971.147372
     2   0 1 1      6.280698      0.000000    -21.784723
     2   0 0 2    -78.120910      0.000000    651.846026


 Task  times  cpu:     5020.6s     wall:     5141.7s


                                NWChem Input Module
                                -------------------


 Summary of allocated global arrays
-----------------------------------
  No active global arrays


MA_summarize_allocated_blocks: starting scan ...
MA_summarize_allocated_blocks: scan completed: 0 heap blocks, 0 stack blocks
MA usage statistics:

	allocation statistics:
					      heap	     stack
					      ----	     -----
	current number of blocks	         0	         0
	maximum number of blocks	        16	        14
	current total bytes		         0	         0
	maximum total bytes		    131240	  28332200
	maximum total K-bytes		       132	     28333
	maximum total M-bytes		         1	        29


                                     CITATION
                                     --------
                Please cite the following reference when publishing
                           results obtained with NWChem:

          E. Apra, E. J. Bylaska, W. A. de Jong, N. Govind, K. Kowalski,
       T. P. Straatsma, M. Valiev, H. J. J. van Dam, Y. Alexeev, J. Anchell,
       V. Anisimov, F. W. Aquino, R. Atta-Fynn, J. Autschbach, N. P. Bauman,
     J. C. Becca, D. E. Bernholdt, K. Bhaskaran-Nair, S. Bogatko, P. Borowski,
         J. Boschen, J. Brabec, A. Bruner, E. Cauet, Y. Chen, G. N. Chuev,
      C. J. Cramer, J. Daily, M. J. O. Deegan, T. H. Dunning Jr., M. Dupuis,
   K. G. Dyall, G. I. Fann, S. A. Fischer, A. Fonari, H. Fruchtl, L. Gagliardi,
      J. Garza, N. Gawande, S. Ghosh, K. Glaesemann, A. W. Gotz, J. Hammond,
       V. Helms, E. D. Hermes, K. Hirao, S. Hirata, M. Jacquelin, L. Jensen,
   B. G. Johnson, H. Jonsson, R. A. Kendall, M. Klemm, R. Kobayashi, V. Konkov,
      S. Krishnamoorthy, M. Krishnan, Z. Lin, R. D. Lins, R. J. Littlefield,
      A. J. Logsdail, K. Lopata, W. Ma, A. V. Marenich, J. Martin del Campo,
   D. Mejia-Rodriguez, J. E. Moore, J. M. Mullin, T. Nakajima, D. R. Nascimento,
    J. A. Nichols, P. J. Nichols, J. Nieplocha, A. Otero-de-la-Roza, B. Palmer,
    A. Panyala, T. Pirojsirikul, B. Peng, R. Peverati, J. Pittner, L. Pollack,
   R. M. Richard, P. Sadayappan, G. C. Schatz, W. A. Shelton, D. W. Silverstein,
   D. M. A. Smith, T. A. Soares, D. Song, M. Swart, H. L. Taylor, G. S. Thomas,
            V. Tipparaju, D. G. Truhlar, K. Tsemekhman, T. Van Voorhis,
      A. Vazquez-Mayagoitia, P. Verma, O. Villa, A. Vishnu, K. D. Vogiatzis,
        D. Wang, J. H. Weare, M. J. Williamson, T. L. Windus, K. Wolinski,
        A. T. Wong, Q. Wu, C. Yang, Q. Yu, M. Zacharias, Z. Zhang, Y. Zhao,
                                and R. J. Harrison
                        "NWChem: Past, present, and future
                         J. Chem. Phys. 152, 184102 (2020)
                               doi:10.1063/5.0004997

                                      AUTHORS
                                      -------
  E. Apra, E. J. Bylaska, N. Govind, K. Kowalski, M. Valiev, D. Mejia-Rodriguez,
       A. Kunitsa, N. P. Bauman, A. Panyala, W. A. de Jong, T. P. Straatsma,
   H. J. J. van Dam, D. Wang, T. L. Windus, J. Hammond, J. Autschbach, A. Woods,
    K. Bhaskaran-Nair, J. Brabec, K. Lopata, S. A. Fischer, S. Krishnamoorthy,
     M. Jacquelin, W. Ma, M. Klemm, O. Villa, Y. Chen, V. Anisimov, F. Aquino,
     S. Hirata, M. T. Hackler, E. Hermes, L. Jensen, J. E. Moore, J. C. Becca,
      V. Konjkov, T. Risthaus, M. Malagoli, A. Marenich, A. Otero-de-la-Roza,
        J. Mullin, P. Nichols, R. Peverati, J. Pittner, Y. Zhao, P.-D. Fan,
        A. Fonari, M. J. Williamson, R. J. Harrison, J. R. Rehr, M. Dupuis,
     D. Silverstein, D. M. A. Smith, J. Nieplocha, V. Tipparaju, M. Krishnan,
     B. E. Van Kuiken, A. Vazquez-Mayagoitia, M. Swart, Q. Wu, T. Van Voorhis,
     A. A. Auer, M. Nooijen, L. D. Crosby, E. Brown, G. Cisneros, G. I. Fann,
   H. Fruchtl, J. Garza, K. Hirao, R. A. Kendall, J. A. Nichols, K. Tsemekhman,
    K. Wolinski, J. Anchell, D. E. Bernholdt, P. Borowski, T. Clark, D. Clerc,
   H. Dachsel, M. J. O. Deegan, K. Dyall, D. Elwood, E. Glendening, M. Gutowski,
   A. C. Hess, J. Jaffe, B. G. Johnson, J. Ju, R. Kobayashi, R. Kutteh, Z. Lin,
   R. Littlefield, X. Long, B. Meng, T. Nakajima, S. Niu, L. Pollack, M. Rosing,
   K. Glaesemann, G. Sandrone, M. Stave, H. Taylor, G. Thomas, J. H. van Lenthe,
                               A. T. Wong, Z. Zhang.

 Total times  cpu:     5020.7s     wall:     5142.2s
