export TMOUT=5400
export TMPDIR=/tmp
export PTMPDIR=/tmp/ptmp
 argument  1 = inputs/ASN_GLN_3.nw



============================== echo of input deck ==============================
start ASN_GLN_3
geometry
H         11.13800       15.50900        2.54400
C         10.07400       15.55700        2.32100
H          9.83200       14.84000        1.53700
H          9.80600       16.56000        1.99200
C          9.28400       15.21400        3.56100
O          8.50700       14.26600        3.55800
N          9.45300       16.00600        4.61900
H         10.07200       16.79400        4.52100
C          8.76400       15.81600        5.90700
H          8.97100       14.79900        6.24800
C          9.36800       16.81700        6.91600
H         10.42000       16.98000        6.68000
H          8.85100       17.77200        6.83700
C          9.32800       16.36800        8.37200
O         10.27800       16.55200        9.10800
N          8.27000       15.75300        8.84500
H          7.46000       15.58800        8.25700
H          8.30800       15.47300        9.80700
C          7.22600       15.95700        5.79600
O          6.50000       15.55600        6.70200
N          6.72900       16.52000        4.69300
H          7.39600       16.86000        4.00900
C          5.31300       16.62400        4.33900
H          4.75900       16.98700        5.20600
C          5.16100       17.64400        3.19100
H          5.67100       17.27600        2.29900
H          4.09900       17.71300        2.95300
C          5.65200       19.06900        3.51900
H          5.13600       19.75800        2.85000
H          5.36200       19.32800        4.53800
C          7.15500       19.31400        3.34700
O          7.96100       18.43600        3.08000
N          7.60500       20.53800        3.51100
H          6.97800       21.29100        3.72900
H          8.59100       20.67200        3.37500
C          4.67700       15.27700        3.93300
O          3.46100       15.18300        3.82000
N          5.45300       14.22600        3.69100
H          6.45900       14.29900        3.76400
H          5.01400       13.35800        3.43500
end

basis
 * library aug-cc-pvdz
end

echo

scf
 direct
end

task scf energy
================================================================================


                                         
                                         


             Northwest Computational Chemistry Package (NWChem) 7.2.0
             --------------------------------------------------------


                    Environmental Molecular Sciences Laboratory
                       Pacific Northwest National Laboratory
                                Richland, WA 99352

                              Copyright (c) 1994-2022
                       Pacific Northwest National Laboratory
                            Battelle Memorial Institute

             NWChem is an open-source computational chemistry package
                        distributed under the terms of the
                      Educational Community License (ECL) 2.0
             A copy of the license is included with this distribution
                              in the LICENSE.TXT file

                                  ACKNOWLEDGMENT
                                  --------------

            This software and its documentation were developed at the
            EMSL at Pacific Northwest National Laboratory, a multiprogram
            national laboratory, operated for the U.S. Department of Energy
            by Battelle under Contract Number DE-AC05-76RL01830. Support
            for this work was provided by the Department of Energy Office
            of Biological and Environmental Research, Office of Basic
            Energy Sciences, and the Office of Advanced Scientific Computing.


           Job information
           ---------------

    hostname        = nova21-swift-4
    program         = /opt/rit/el9/20230413/app/linux-rhel9-x86_64_v3/gcc-11.2.1/nwchem-7.2.0-oxtctbuhfuzyfaoziquq6bki22grib3g/bin/nwchem
    date            = Thu Jul 10 05:27:41 2025

    compiled        = Wed_May_17_23:46:39_2023
    source          = /tmp/root/spack-stage/spack-stage-nwchem-7.2.0-oxtctbuhfuzyfaoziquq6bki22grib3g/spack-src
    nwchem branch   = 7.2.0
    nwchem revision = d0d141fd
    ga revision     = 5.8.0
    use scalapack   = T
    input           = inputs/ASN_GLN_3.nw
    prefix          = ASN_GLN_3.
    data base       = ./ASN_GLN_3.db
    status          = startup
    nproc           =        8
    time left       =     -1s



           Memory information
           ------------------

    heap     =   26214396 doubles =    200.0 Mbytes
    stack    =   26214401 doubles =    200.0 Mbytes
    global   =   52428800 doubles =    400.0 Mbytes (distinct from heap & stack)
    total    =  104857597 doubles =    800.0 Mbytes
    verify   = yes
    hardfail = no 


           Directory information
           ---------------------

  0 permanent = .
  0 scratch   = .




                                NWChem Input Module
                                -------------------



 Scaling coordinates for geometry "geometry" by  1.889725989
 (inverse scale =  0.529177249)

 C1  symmetry detected

          ------
          auto-z
          ------
  no constraints, skipping    0.0000000000000000     
  no constraints, skipping    0.0000000000000000     


                             Geometry "geometry" -> ""
                             -------------------------

 Output coordinates in angstroms (scale by  1.889725989 to convert to a.u.)

  No.       Tag          Charge          X              Y              Z
 ---- ---------------- ---------- -------------- -------------- --------------
    1 H                    1.0000     1.76396010    -0.78701051    -4.03827413
    2 C                    6.0000     1.29778752     0.06889964    -3.55430105
    3 H                    1.0000     0.80522200     0.68880785    -4.30290108
    4 H                    1.0000     2.04993662     0.65820092    -3.03174030
    5 C                    6.0000     0.26783264    -0.41368559    -2.56150024
    6 O                    8.0000    -0.90533135    -0.07634390    -2.67253546
    7 N                    7.0000     0.70785118    -1.17944072    -1.56390725
    8 H                    1.0000     1.69589893    -1.36735027    -1.51742439
    9 C                    6.0000    -0.15855760    -1.73647271    -0.51090383
   10 H                    1.0000    -0.95758296    -2.29814013    -1.00029855
   11 C                    6.0000     0.69353836    -2.70805495     0.33458918
   12 H                    1.0000     1.44680730    -3.17625230    -0.29971843
   13 H                    1.0000     1.20738163    -2.15504347     1.11925369
   14 C                    6.0000    -0.08166583    -3.85036120     0.98060148
   15 O                    8.0000     0.37171908    -4.97819791     1.00247562
   16 N                    7.0000    -1.26517693    -3.63314521     1.50351322
   17 H                    1.0000    -1.66894657    -2.70253321     1.50412774
   18 H                    1.0000    -1.72977349    -4.42624923     1.90404293
   19 C                    6.0000    -0.83198051    -0.64542537     0.35729158
   20 O                    8.0000    -1.78430425    -0.92853611     1.07953864
   21 N                    7.0000    -0.34571951     0.59528387     0.28816981
   22 H                    1.0000     0.46630889     0.73933642    -0.30191810
   23 C                    6.0000    -0.91843172     1.78409249     0.92056429
   24 H                    1.0000    -1.15527334     1.55067725     1.95969728
   25 C                    6.0000     0.13022181     2.91590166     0.89332841
   26 H                    1.0000     0.34643809     3.19534374    -0.13931414
   27 H                    1.0000    -0.31397006     3.78536099     1.37910929
   28 C                    6.0000     1.44683253     2.59939436     1.63200921
   29 H                    1.0000     1.90695642     3.54851348     1.90768456
   30 H                    1.0000     1.22557875     2.06543290     2.55692754
   31 C                    6.0000     2.48814553     1.80875645     0.83252378
   32 O                    8.0000     2.28307404     1.34334957    -0.27794959
   33 N                    7.0000     3.66585537     1.60705580     1.38014444
   34 H                    1.0000     3.87881547     1.97334013     2.29016960
   35 H                    1.0000     4.33377210     1.10117664     0.82641029
   36 C                    6.0000    -2.22831663     2.26512783     0.25984686
   37 O                    8.0000    -2.91896515     3.11157159     0.81374088
   38 N                    7.0000    -2.59501875     1.77062677    -0.91758223
   39 H                    1.0000    -2.02193748     1.08490027    -1.39092253
   40 H                    1.0000    -3.45610751     2.09504348    -1.32373606

      Atomic Mass 
      ----------- 

      H                  1.007825
      C                 12.000000
      O                 15.994910
      N                 14.003070


 Effective nuclear repulsion energy (a.u.)    1853.1646370123

            Nuclear Dipole moment (a.u.) 
            ----------------------------
        X                 Y               Z
 ---------------- ---------------- ----------------
    -0.0000000000    -0.0000000000     0.0000000000



                                Z-matrix (autoz)
                                -------- 

 Units are Angstrom for bonds and degrees for angles

      Type          Name      I     J     K     L     M      Value
      ----------- --------  ----- ----- ----- ----- ----- ----------
    1 Stretch                  1     2                       1.08818
    2 Stretch                  2     3                       1.08964
    3 Stretch                  2     4                       1.08907
    4 Stretch                  2     5                       1.50975
    5 Stretch                  5     6                       1.22574
    6 Stretch                  5     7                       1.33236
    7 Stretch                  7     8                       1.00683
    8 Stretch                  7     9                       1.47301
    9 Stretch                  9    10                       1.09244
   10 Stretch                  9    11                       1.54431
   11 Stretch                  9    19                       1.54843
   12 Stretch                 11    12                       1.09040
   13 Stretch                 11    13                       1.08883
   14 Stretch                 11    14                       1.52418
   15 Stretch                 14    15                       1.21575
   16 Stretch                 14    16                       1.31199
   17 Stretch                 16    17                       1.01443
   18 Stretch                 16    18                       1.00264
   19 Stretch                 19    20                       1.22830
   20 Stretch                 19    21                       1.33439
   21 Stretch                 21    22                       1.01407
   22 Stretch                 21    23                       1.46328
   23 Stretch                 23    24                       1.09104
   24 Stretch                 23    25                       1.54318
   25 Stretch                 23    36                       1.54394
   26 Stretch                 25    26                       1.09142
   27 Stretch                 25    27                       1.09053
   28 Stretch                 25    28                       1.54249
   29 Stretch                 28    29                       1.09020
   30 Stretch                 28    30                       1.09066
   31 Stretch                 28    31                       1.53252
   32 Stretch                 31    32                       1.22140
   33 Stretch                 31    33                       1.31437
   34 Stretch                 33    34                       1.00382
   35 Stretch                 33    35                       1.00431
   36 Stretch                 36    37                       1.22485
   37 Stretch                 36    38                       1.32866
   38 Stretch                 38    39                       1.01128
   39 Stretch                 38    40                       1.00582
   40 Bend                     1     2     3               109.60785
   41 Bend                     1     2     4               110.06868
   42 Bend                     1     2     5               109.46939
   43 Bend                     2     5     6               120.35786
   44 Bend                     2     5     7               116.79355
   45 Bend                     3     2     4               109.51195
   46 Bend                     3     2     5               108.98022
   47 Bend                     4     2     5               109.18296
   48 Bend                     5     7     8               117.77017
   49 Bend                     5     7     9               123.94082
   50 Bend                     6     5     7               122.82598
   51 Bend                     7     9    10               107.72142
   52 Bend                     7     9    11               107.74323
   53 Bend                     7     9    19               112.96509
   54 Bend                     8     7     9               118.27047
   55 Bend                     9    11    12               109.44026
   56 Bend                     9    11    13               109.59695
   57 Bend                     9    11    14               115.01960
   58 Bend                     9    19    20               120.29658
   59 Bend                     9    19    21               117.87997
   60 Bend                    10     9    11               108.98800
   61 Bend                    10     9    19               107.17888
   62 Bend                    11     9    19               112.10410
   63 Bend                    11    14    15               120.87813
   64 Bend                    11    14    16               120.24134
   65 Bend                    12    11    13               108.13661
   66 Bend                    12    11    14               106.02807
   67 Bend                    13    11    14               108.37432
   68 Bend                    14    16    17               120.74196
   69 Bend                    14    16    18               116.50336
   70 Bend                    15    14    16               118.87007
   71 Bend                    17    16    18               122.75040
   72 Bend                    19    21    22               117.00231
   73 Bend                    19    21    23               126.18403
   74 Bend                    20    19    21               121.82331
   75 Bend                    21    23    24               108.83035
   76 Bend                    21    23    25               108.79984
   77 Bend                    21    23    36               113.59277
   78 Bend                    22    21    23               116.71053
   79 Bend                    23    25    26               109.82227
   80 Bend                    23    25    27               107.46345
   81 Bend                    23    25    28               114.90297
   82 Bend                    23    36    37               120.01138
   83 Bend                    23    36    38               119.83013
   84 Bend                    24    23    25               108.73735
   85 Bend                    24    23    36               106.86200
   86 Bend                    25    23    36               109.90513
   87 Bend                    25    28    29               107.62012
   88 Bend                    25    28    30               109.47618
   89 Bend                    25    28    31               115.84947
   90 Bend                    26    25    27               107.33908
   91 Bend                    26    25    28               109.66621
   92 Bend                    27    25    28               107.33415
   93 Bend                    28    31    32               123.83499
   94 Bend                    28    31    33               118.07622
   95 Bend                    29    28    30               107.30148
   96 Bend                    29    28    31               107.11456
   97 Bend                    30    28    31               109.12725
   98 Bend                    31    33    34               120.78413
   99 Bend                    31    33    35               116.32611
  100 Bend                    32    31    33               118.08432
  101 Bend                    34    33    35               122.85696
  102 Bend                    36    38    39               120.71361
  103 Bend                    36    38    40               118.29927
  104 Bend                    37    36    38               120.15337
  105 Bend                    39    38    40               120.98708
  106 Torsion                  1     2     5     6        -120.89703
  107 Torsion                  1     2     5     7          60.78449
  108 Torsion                  2     5     7     8           1.67856
  109 Torsion                  2     5     7     9        -179.91776
  110 Torsion                  3     2     5     6          -1.03014
  111 Torsion                  3     2     5     7        -179.34862
  112 Torsion                  4     2     5     6         118.54935
  113 Torsion                  4     2     5     7         -59.76914
  114 Torsion                  5     7     9    10          55.16217
  115 Torsion                  5     7     9    11         172.60650
  116 Torsion                  5     7     9    19         -63.01323
  117 Torsion                  6     5     7     8        -176.59475
  118 Torsion                  6     5     7     9           1.80892
  119 Torsion                  7     9    11    12         -32.05076
  120 Torsion                  7     9    11    13          86.37744
  121 Torsion                  7     9    11    14        -151.25013
  122 Torsion                  7     9    19    20         164.67099
  123 Torsion                  7     9    19    21         -15.19089
  124 Torsion                  8     7     9    10        -126.44160
  125 Torsion                  8     7     9    11          -8.99726
  126 Torsion                  8     7     9    19         115.38300
  127 Torsion                  9    11    14    15         138.46946
  128 Torsion                  9    11    14    16         -40.34096
  129 Torsion                  9    19    21    22          -2.63054
  130 Torsion                  9    19    21    23         173.53809
  131 Torsion                 10     9    11    12          84.56997
  132 Torsion                 10     9    11    13        -157.00183
  133 Torsion                 10     9    11    14         -34.62940
  134 Torsion                 10     9    19    20          46.17929
  135 Torsion                 10     9    19    21        -133.68258
  136 Torsion                 11     9    19    20         -73.36774
  137 Torsion                 11     9    19    21         106.77039
  138 Torsion                 11    14    16    17          -1.42162
  139 Torsion                 11    14    16    18         179.31030
  140 Torsion                 12    11     9    19        -156.94814
  141 Torsion                 12    11    14    15          17.39023
  142 Torsion                 12    11    14    16        -161.42018
  143 Torsion                 13    11     9    19         -38.51993
  144 Torsion                 13    11    14    15         -98.50288
  145 Torsion                 13    11    14    16          82.68670
  146 Torsion                 14    11     9    19          83.85249
  147 Torsion                 15    14    16    17         179.74425
  148 Torsion                 15    14    16    18           0.47617
  149 Torsion                 19    21    23    24          47.31518
  150 Torsion                 19    21    23    25         165.64938
  151 Torsion                 19    21    23    36         -71.58990
  152 Torsion                 20    19    21    22         177.50982
  153 Torsion                 20    19    21    23          -6.32155
  154 Torsion                 21    23    25    26          64.19214
  155 Torsion                 21    23    25    27        -179.35228
  156 Torsion                 21    23    25    28         -59.98482
  157 Torsion                 21    23    36    37         168.41321
  158 Torsion                 21    23    36    38         -12.40873
  159 Torsion                 22    21    23    24        -136.50631
  160 Torsion                 22    21    23    25         -18.17210
  161 Torsion                 22    21    23    36         104.58861
  162 Torsion                 23    25    28    29        -156.60336
  163 Torsion                 23    25    28    30         -40.28880
  164 Torsion                 23    25    28    31          83.59666
  165 Torsion                 23    36    38    39          -0.38774
  166 Torsion                 23    36    38    40         179.54278
  167 Torsion                 24    23    25    26        -177.41507
  168 Torsion                 24    23    25    27         -60.95948
  169 Torsion                 24    23    25    28          58.40798
  170 Torsion                 24    23    36    37          48.38640
  171 Torsion                 24    23    36    38        -132.43554
  172 Torsion                 25    23    36    37         -69.43649
  173 Torsion                 25    23    36    38         109.74157
  174 Torsion                 25    28    31    32          -6.10593
  175 Torsion                 25    28    31    33         174.67871
  176 Torsion                 26    25    23    36         -60.76188
  177 Torsion                 26    25    28    29          79.13733
  178 Torsion                 26    25    28    30        -164.54812
  179 Torsion                 26    25    28    31         -40.66266
  180 Torsion                 27    25    23    36          55.69371
  181 Torsion                 27    25    28    29         -37.16400
  182 Torsion                 27    25    28    30          79.15056
  183 Torsion                 27    25    28    31        -156.96398
  184 Torsion                 28    25    23    36         175.06117
  185 Torsion                 28    31    33    34          -0.89986
  186 Torsion                 28    31    33    35        -178.87519
  187 Torsion                 29    28    31    32        -126.18048
  188 Torsion                 29    28    31    33          54.60416
  189 Torsion                 30    28    31    32         117.96087
  190 Torsion                 30    28    31    33         -61.25449
  191 Torsion                 32    31    33    34         179.83888
  192 Torsion                 32    31    33    35           1.86355
  193 Torsion                 37    36    38    39         178.78914
  194 Torsion                 37    36    38    40          -1.28034


            XYZ format geometry
            -------------------
    40
 geometry
 H                     1.76396010    -0.78701051    -4.03827413
 C                     1.29778752     0.06889964    -3.55430105
 H                     0.80522200     0.68880785    -4.30290108
 H                     2.04993662     0.65820092    -3.03174030
 C                     0.26783264    -0.41368559    -2.56150024
 O                    -0.90533135    -0.07634390    -2.67253546
 N                     0.70785118    -1.17944072    -1.56390725
 H                     1.69589893    -1.36735027    -1.51742439
 C                    -0.15855760    -1.73647271    -0.51090383
 H                    -0.95758296    -2.29814013    -1.00029855
 C                     0.69353836    -2.70805495     0.33458918
 H                     1.44680730    -3.17625230    -0.29971843
 H                     1.20738163    -2.15504347     1.11925369
 C                    -0.08166583    -3.85036120     0.98060148
 O                     0.37171908    -4.97819791     1.00247562
 N                    -1.26517693    -3.63314521     1.50351322
 H                    -1.66894657    -2.70253321     1.50412774
 H                    -1.72977349    -4.42624923     1.90404293
 C                    -0.83198051    -0.64542537     0.35729158
 O                    -1.78430425    -0.92853611     1.07953864
 N                    -0.34571951     0.59528387     0.28816981
 H                     0.46630889     0.73933642    -0.30191810
 C                    -0.91843172     1.78409249     0.92056429
 H                    -1.15527334     1.55067725     1.95969728
 C                     0.13022181     2.91590166     0.89332841
 H                     0.34643809     3.19534374    -0.13931414
 H                    -0.31397006     3.78536099     1.37910929
 C                     1.44683253     2.59939436     1.63200921
 H                     1.90695642     3.54851348     1.90768456
 H                     1.22557875     2.06543290     2.55692754
 C                     2.48814553     1.80875645     0.83252378
 O                     2.28307404     1.34334957    -0.27794959
 N                     3.66585537     1.60705580     1.38014444
 H                     3.87881547     1.97334013     2.29016960
 H                     4.33377210     1.10117664     0.82641029
 C                    -2.22831663     2.26512783     0.25984686
 O                    -2.91896515     3.11157159     0.81374088
 N                    -2.59501875     1.77062677    -0.91758223
 H                    -2.02193748     1.08490027    -1.39092253
 H                    -3.45610751     2.09504348    -1.32373606

 ==============================================================================
                                internuclear distances
 ------------------------------------------------------------------------------
       center one      |      center two      | atomic units |  angstroms
 ------------------------------------------------------------------------------
    2 C                |   1 H                |     2.05636  |     1.08818
    3 H                |   2 C                |     2.05912  |     1.08964
    4 H                |   2 C                |     2.05804  |     1.08907
    5 C                |   2 C                |     2.85302  |     1.50975
    6 O                |   5 C                |     2.31632  |     1.22574
    7 N                |   5 C                |     2.51780  |     1.33236
    8 H                |   7 N                |     1.90264  |     1.00683
    9 C                |   7 N                |     2.78359  |     1.47301
   10 H                |   9 C                |     2.06441  |     1.09244
   11 C                |   9 C                |     2.91833  |     1.54431
   12 H                |  11 C                |     2.06055  |     1.09040
   13 H                |  11 C                |     2.05759  |     1.08883
   14 C                |  11 C                |     2.88029  |     1.52418
   15 O                |  14 C                |     2.29744  |     1.21575
   16 N                |  14 C                |     2.47930  |     1.31199
   17 H                |  16 N                |     1.91700  |     1.01443
   18 H                |  16 N                |     1.89472  |     1.00264
   19 C                |   9 C                |     2.92611  |     1.54843
   20 O                |  19 C                |     2.32114  |     1.22830
   21 N                |  19 C                |     2.52162  |     1.33439
   22 H                |  21 N                |     1.91632  |     1.01407
   23 C                |  21 N                |     2.76520  |     1.46328
   24 H                |  23 C                |     2.06177  |     1.09104
   25 C                |  23 C                |     2.91619  |     1.54318
   26 H                |  25 C                |     2.06248  |     1.09142
   27 H                |  25 C                |     2.06080  |     1.09053
   28 C                |  25 C                |     2.91489  |     1.54249
   29 H                |  28 C                |     2.06018  |     1.09020
   30 H                |  28 C                |     2.06105  |     1.09066
   31 C                |  28 C                |     2.89604  |     1.53252
   32 O                |  31 C                |     2.30810  |     1.22140
   33 N                |  31 C                |     2.48380  |     1.31437
   34 H                |  33 N                |     1.89695  |     1.00382
   35 H                |  33 N                |     1.89788  |     1.00431
   36 C                |  23 C                |     2.91762  |     1.54394
   37 O                |  36 C                |     2.31463  |     1.22485
   38 N                |  36 C                |     2.51081  |     1.32866
   39 H                |  38 N                |     1.91105  |     1.01128
   40 H                |  38 N                |     1.90073  |     1.00582
 ------------------------------------------------------------------------------
                         number of included internuclear distances:         39
 ==============================================================================



 ==============================================================================
                                 internuclear angles
 ------------------------------------------------------------------------------
        center 1       |       center 2       |       center 3       |  degrees
 ------------------------------------------------------------------------------
    1 H                |   2 C                |   3 H                |   109.61
    1 H                |   2 C                |   4 H                |   110.07
    1 H                |   2 C                |   5 C                |   109.47
    3 H                |   2 C                |   4 H                |   109.51
    3 H                |   2 C                |   5 C                |   108.98
    4 H                |   2 C                |   5 C                |   109.18
    2 C                |   5 C                |   6 O                |   120.36
    2 C                |   5 C                |   7 N                |   116.79
    6 O                |   5 C                |   7 N                |   122.83
    5 C                |   7 N                |   8 H                |   117.77
    5 C                |   7 N                |   9 C                |   123.94
    8 H                |   7 N                |   9 C                |   118.27
    7 N                |   9 C                |  10 H                |   107.72
    7 N                |   9 C                |  11 C                |   107.74
    7 N                |   9 C                |  19 C                |   112.97
   10 H                |   9 C                |  11 C                |   108.99
   10 H                |   9 C                |  19 C                |   107.18
   11 C                |   9 C                |  19 C                |   112.10
    9 C                |  11 C                |  12 H                |   109.44
    9 C                |  11 C                |  13 H                |   109.60
    9 C                |  11 C                |  14 C                |   115.02
   12 H                |  11 C                |  13 H                |   108.14
   12 H                |  11 C                |  14 C                |   106.03
   13 H                |  11 C                |  14 C                |   108.37
   11 C                |  14 C                |  15 O                |   120.88
   11 C                |  14 C                |  16 N                |   120.24
   15 O                |  14 C                |  16 N                |   118.87
   14 C                |  16 N                |  17 H                |   120.74
   14 C                |  16 N                |  18 H                |   116.50
   17 H                |  16 N                |  18 H                |   122.75
    9 C                |  19 C                |  20 O                |   120.30
    9 C                |  19 C                |  21 N                |   117.88
   20 O                |  19 C                |  21 N                |   121.82
   19 C                |  21 N                |  22 H                |   117.00
   19 C                |  21 N                |  23 C                |   126.18
   22 H                |  21 N                |  23 C                |   116.71
   21 N                |  23 C                |  24 H                |   108.83
   21 N                |  23 C                |  25 C                |   108.80
   21 N                |  23 C                |  36 C                |   113.59
   24 H                |  23 C                |  25 C                |   108.74
   24 H                |  23 C                |  36 C                |   106.86
   25 C                |  23 C                |  36 C                |   109.91
   23 C                |  25 C                |  26 H                |   109.82
   23 C                |  25 C                |  27 H                |   107.46
   23 C                |  25 C                |  28 C                |   114.90
   26 H                |  25 C                |  27 H                |   107.34
   26 H                |  25 C                |  28 C                |   109.67
   27 H                |  25 C                |  28 C                |   107.33
   25 C                |  28 C                |  29 H                |   107.62
   25 C                |  28 C                |  30 H                |   109.48
   25 C                |  28 C                |  31 C                |   115.85
   29 H                |  28 C                |  30 H                |   107.30
   29 H                |  28 C                |  31 C                |   107.11
   30 H                |  28 C                |  31 C                |   109.13
   28 C                |  31 C                |  32 O                |   123.83
   28 C                |  31 C                |  33 N                |   118.08
   32 O                |  31 C                |  33 N                |   118.08
   31 C                |  33 N                |  34 H                |   120.78
   31 C                |  33 N                |  35 H                |   116.33
   34 H                |  33 N                |  35 H                |   122.86
   23 C                |  36 C                |  37 O                |   120.01
   23 C                |  36 C                |  38 N                |   119.83
   37 O                |  36 C                |  38 N                |   120.15
   36 C                |  38 N                |  39 H                |   120.71
   36 C                |  38 N                |  40 H                |   118.30
   39 H                |  38 N                |  40 H                |   120.99
 ------------------------------------------------------------------------------
                            number of included internuclear angles:         66
 ==============================================================================



  library name resolved from: environment
  library file name is: </opt/rit/el9/20230413/app/linux-rhel9-x86_64_v3/gcc-11.2.1/nwchem-7.2.0-oxtctbuhfuzyfaoziquq6bki22grib3g/share/nwchem/libraries/>
  


 Summary of "ao basis" -> "" (cartesian)
 ------------------------------------------------------------------------------
       Tag                 Description            Shells   Functions and Types
 ---------------- ------------------------------  ------  ---------------------
 *                        aug-cc-pvdz                 on all atoms 


                      Basis "ao basis" -> "ao basis" (cartesian)
                      -----
  H (Hydrogen)
  ------------
            Exponent  Coefficients 
       -------------- ---------------------------------------------------------
  1 S  1.30100000E+01  0.019685
  1 S  1.96200000E+00  0.137977
  1 S  4.44600000E-01  0.478148

  2 S  1.22000000E-01  1.000000

  3 S  2.97400000E-02  1.000000

  4 P  7.27000000E-01  1.000000

  5 P  1.41000000E-01  1.000000

  C (Carbon)
  ----------
            Exponent  Coefficients 
       -------------- ---------------------------------------------------------
  1 S  6.66500000E+03  0.000692
  1 S  1.00000000E+03  0.005329
  1 S  2.28000000E+02  0.027077
  1 S  6.47100000E+01  0.101718
  1 S  2.10600000E+01  0.274740
  1 S  7.49500000E+00  0.448564
  1 S  2.79700000E+00  0.285074
  1 S  5.21500000E-01  0.015204

  2 S  6.66500000E+03 -0.000146
  2 S  1.00000000E+03 -0.001154
  2 S  2.28000000E+02 -0.005725
  2 S  6.47100000E+01 -0.023312
  2 S  2.10600000E+01 -0.063955
  2 S  7.49500000E+00 -0.149981
  2 S  2.79700000E+00 -0.127262
  2 S  5.21500000E-01  0.544529

  3 S  1.59600000E-01  1.000000

  4 S  4.69000000E-02  1.000000

  5 P  9.43900000E+00  0.038109
  5 P  2.00200000E+00  0.209480
  5 P  5.45600000E-01  0.508557

  6 P  1.51700000E-01  1.000000

  7 P  4.04100000E-02  1.000000

  8 D  5.50000000E-01  1.000000

  9 D  1.51000000E-01  1.000000

  O (Oxygen)
  ----------
            Exponent  Coefficients 
       -------------- ---------------------------------------------------------
  1 S  1.17200000E+04  0.000710
  1 S  1.75900000E+03  0.005470
  1 S  4.00800000E+02  0.027837
  1 S  1.13700000E+02  0.104800
  1 S  3.70300000E+01  0.283062
  1 S  1.32700000E+01  0.448719
  1 S  5.02500000E+00  0.270952
  1 S  1.01300000E+00  0.015458

  2 S  1.17200000E+04 -0.000160
  2 S  1.75900000E+03 -0.001263
  2 S  4.00800000E+02 -0.006267
  2 S  1.13700000E+02 -0.025716
  2 S  3.70300000E+01 -0.070924
  2 S  1.32700000E+01 -0.165411
  2 S  5.02500000E+00 -0.116955
  2 S  1.01300000E+00  0.557368

  3 S  3.02300000E-01  1.000000

  4 S  7.89600000E-02  1.000000

  5 P  1.77000000E+01  0.043018
  5 P  3.85400000E+00  0.228913
  5 P  1.04600000E+00  0.508728

  6 P  2.75300000E-01  1.000000

  7 P  6.85600000E-02  1.000000

  8 D  1.18500000E+00  1.000000

  9 D  3.32000000E-01  1.000000

  N (Nitrogen)
  ------------
            Exponent  Coefficients 
       -------------- ---------------------------------------------------------
  1 S  9.04600000E+03  0.000700
  1 S  1.35700000E+03  0.005389
  1 S  3.09300000E+02  0.027406
  1 S  8.77300000E+01  0.103207
  1 S  2.85600000E+01  0.278723
  1 S  1.02100000E+01  0.448540
  1 S  3.83800000E+00  0.278238
  1 S  7.46600000E-01  0.015440

  2 S  9.04600000E+03 -0.000153
  2 S  1.35700000E+03 -0.001208
  2 S  3.09300000E+02 -0.005992
  2 S  8.77300000E+01 -0.024544
  2 S  2.85600000E+01 -0.067459
  2 S  1.02100000E+01 -0.158078
  2 S  3.83800000E+00 -0.121831
  2 S  7.46600000E-01  0.549003

  3 S  2.24800000E-01  1.000000

  4 S  6.12400000E-02  1.000000

  5 P  1.35500000E+01  0.039919
  5 P  2.91700000E+00  0.217169
  5 P  7.97300000E-01  0.510319

  6 P  2.18500000E-01  1.000000

  7 P  5.61100000E-02  1.000000

  8 D  8.17000000E-01  1.000000

  9 D  2.30000000E-01  1.000000



 Summary of "ao basis" -> "ao basis" (cartesian)
 ------------------------------------------------------------------------------
       Tag                 Description            Shells   Functions and Types
 ---------------- ------------------------------  ------  ---------------------
 H                        aug-cc-pvdz                5        9   3s2p
 C                        aug-cc-pvdz                9       25   4s3p2d
 O                        aug-cc-pvdz                9       25   4s3p2d
 N                        aug-cc-pvdz                9       25   4s3p2d


                                 NWChem SCF Module
                                 -----------------



  ao basis        = "ao basis"
  functions       =   696
  atoms           =    40
  closed shells   =    80
  open shells     =     0
  charge          =   0.00
  wavefunction    = RHF 
  input vectors   = atomic
  output vectors  = ./ASN_GLN_3.movecs
  use symmetry    = F
  symmetry adapt  = F


 Summary of "ao basis" -> "ao basis" (cartesian)
 ------------------------------------------------------------------------------
       Tag                 Description            Shells   Functions and Types
 ---------------- ------------------------------  ------  ---------------------
 H                        aug-cc-pvdz                5        9   3s2p
 C                        aug-cc-pvdz                9       25   4s3p2d
 O                        aug-cc-pvdz                9       25   4s3p2d
 N                        aug-cc-pvdz                9       25   4s3p2d



 Forming initial guess at       0.8s


 !! The overlap matrix has   6 vectors deemed linearly dependent with
    eigenvalues:
 2.11D-06 3.59D-06 4.91D-06 5.64D-06 7.23D-06 9.34D-06


      Superposition of Atomic Density Guess
      -------------------------------------

 Sum of atomic energies:       -1069.17223035

      Non-variational initial energy
      ------------------------------

 Total energy =   -1082.642579
 1-e energy   =   -5140.798270
 2-e energy   =    2204.991054
 HOMO         =      -0.309139
 LUMO         =       0.013756


 Starting SCF solution at     321.4s



 ----------------------------------------------
         Quadratically convergent ROHF

 Convergence threshold     :          1.000E-04
 Maximum no. of iterations :           30
 Final Fock-matrix accuracy:          1.000E-10
 ----------------------------------------------


              iter       energy          gnorm     gmax       time
             ----- ------------------- --------- --------- --------
                 1    -1073.9199636787  2.94D+00  1.52D-01    660.5
                 2    -1074.3692628362  9.41D-01  4.42D-02   1353.9
                 3    -1074.4472294601  7.72D-02  4.19D-03   2372.9
                 4    -1074.4481408783  4.99D-03  4.18D-04   3727.8
                 5    -1074.4481452856  1.04D-05  5.00D-07   6093.6


       Final RHF  results 
       ------------------ 

         Total SCF energy =  -1074.448145285573
      One-electron energy =  -5154.810921218103
      Two-electron energy =   2227.198138920188
 Nuclear repulsion energy =   1853.164637012342

        Time for solution =   5773.7s


             Final eigenvalues
             -----------------

              1      
    1  -20.5622
    2  -20.5460
    3  -20.5452
    4  -20.5107
    5  -20.5107
    6  -15.6299
    7  -15.6206
    8  -15.6012
    9  -15.5737
   10  -15.5694
   11  -11.3934
   12  -11.3760
   13  -11.3751
   14  -11.3476
   15  -11.3471
   16  -11.3212
   17  -11.3028
   18  -11.2834
   19  -11.2724
   20  -11.2656
   21  -11.2529
   22   -1.4336
   23   -1.4127
   24   -1.4037
   25   -1.3831
   26   -1.3729
   27   -1.2741
   28   -1.2624
   29   -1.2524
   30   -1.2080
   31   -1.1987
   32   -1.1038
   33   -1.0839
   34   -1.0139
   35   -1.0095
   36   -0.9339
   37   -0.8931
   38   -0.8417
   39   -0.8250
   40   -0.8172
   41   -0.7919
   42   -0.7853
   43   -0.7695
   44   -0.7434
   45   -0.7338
   46   -0.7245
   47   -0.7165
   48   -0.7046
   49   -0.6905
   50   -0.6721
   51   -0.6662
   52   -0.6557
   53   -0.6427
   54   -0.6345
   55   -0.6252
   56   -0.6150
   57   -0.6007
   58   -0.5984
   59   -0.5956
   60   -0.5877
   61   -0.5851
   62   -0.5761
   63   -0.5674
   64   -0.5562
   65   -0.5505
   66   -0.5363
   67   -0.5331
   68   -0.5271
   69   -0.5172
   70   -0.5037
   71   -0.4671
   72   -0.4605
   73   -0.4522
   74   -0.4455
   75   -0.4372
   76   -0.4232
   77   -0.4065
   78   -0.3949
   79   -0.3940
   80   -0.3892
   81    0.0103
   82    0.0265
   83    0.0326
   84    0.0380
   85    0.0468
   86    0.0473
   87    0.0515
   88    0.0564
   89    0.0611
   90    0.0690

                       ROHF Final Molecular Orbital Analysis
                       -------------------------------------

 Vector   22  Occ=2.000000D+00  E=-1.433552D+00
              MO Center=  2.5D+00,  1.5D+00,  2.2D-01, r^2= 9.2D-01
   Bfn.  Coefficient  Atom+Function         Bfn.  Coefficient  Atom+Function  
  ----- ------------  ---------------      ----- ------------  ---------------
   538      0.364292  32 O  s               537      0.350790  32 O  s         
   512      0.245619  31 C  s         

 Vector   23  Occ=2.000000D+00  E=-1.412697D+00
              MO Center= -7.5D-01, -4.8D-01, -1.0D+00, r^2= 4.0D+00
   Bfn.  Coefficient  Atom+Function         Bfn.  Coefficient  Atom+Function  
  ----- ------------  ---------------      ----- ------------  ---------------
    80      0.258882   6 O  s                79      0.252776   6 O  s         
   334      0.246348  20 O  s               333      0.224424  20 O  s         
    54      0.182975   5 C  s               308      0.164625  19 C  s         

 Vector   24  Occ=2.000000D+00  E=-1.403664D+00
              MO Center= -9.6D-01, -5.2D-01, -6.8D-01, r^2= 4.0D+00
   Bfn.  Coefficient  Atom+Function         Bfn.  Coefficient  Atom+Function  
  ----- ------------  ---------------      ----- ------------  ---------------
   334      0.294138  20 O  s               333      0.268901  20 O  s         
    80     -0.250783   6 O  s                79     -0.240702   6 O  s         
   308      0.176933  19 C  s                54     -0.164285   5 C  s         

 Vector   25  Occ=2.000000D+00  E=-1.383064D+00
              MO Center=  5.5D-02, -4.4D+00,  1.0D+00, r^2= 1.1D+00
   Bfn.  Coefficient  Atom+Function         Bfn.  Coefficient  Atom+Function  
  ----- ------------  ---------------      ----- ------------  ---------------
   241      0.368373  15 O  s               240      0.348672  15 O  s         
   215      0.249303  14 C  s         

 Vector   26  Occ=2.000000D+00  E=-1.372877D+00
              MO Center= -2.6D+00,  2.7D+00,  5.0D-01, r^2= 1.1D+00
   Bfn.  Coefficient  Atom+Function         Bfn.  Coefficient  Atom+Function  
  ----- ------------  ---------------      ----- ------------  ---------------
   631      0.380851  37 O  s               630      0.350632  37 O  s         
   605      0.246294  36 C  s         

 Vector   27  Occ=2.000000D+00  E=-1.274115D+00
              MO Center=  1.6D-01, -6.4D-01, -1.1D+00, r^2= 3.6D+00
   Bfn.  Coefficient  Atom+Function         Bfn.  Coefficient  Atom+Function  
  ----- ------------  ---------------      ----- ------------  ---------------
   105      0.353826   7 N  s               104      0.288838   7 N  s         
   139     -0.266925   9 C  s                80     -0.198232   6 O  s         
    79     -0.165777   6 O  s               309      0.157709  19 C  s         
   358      0.157406  21 N  s               334     -0.154616  20 O  s         
   359      0.153640  21 N  s         

 Vector   28  Occ=2.000000D+00  E=-1.262370D+00
              MO Center=  3.1D+00,  1.5D+00,  9.6D-01, r^2= 2.7D+00
   Bfn.  Coefficient  Atom+Function         Bfn.  Coefficient  Atom+Function  
  ----- ------------  ---------------      ----- ------------  ---------------
   563      0.418396  33 N  s               562      0.356843  33 N  s         
   538     -0.215892  32 O  s               537     -0.183494  32 O  s         
   586      0.164243  34 H  s               518     -0.159712  31 C  px        
   517      0.157314  31 C  pz              595      0.150640  35 H  s         

 Vector   29  Occ=2.000000D+00  E=-1.252413D+00
              MO Center= -2.9D-01,  3.4D-01, -5.5D-04, r^2= 4.1D+00
   Bfn.  Coefficient  Atom+Function         Bfn.  Coefficient  Atom+Function  
  ----- ------------  ---------------      ----- ------------  ---------------
   359      0.369918  21 N  s               358      0.295775  21 N  s         
   105     -0.202052   7 N  s               104     -0.165938   7 N  s         
   334     -0.155894  20 O  s         

 Vector   30  Occ=2.000000D+00  E=-1.208050D+00
              MO Center= -8.6D-01, -3.7D+00,  1.3D+00, r^2= 1.8D+00
   Bfn.  Coefficient  Atom+Function         Bfn.  Coefficient  Atom+Function  
  ----- ------------  ---------------      ----- ------------  ---------------
   265      0.362013  16 N  s               266      0.362242  16 N  s         
   241     -0.225394  15 O  s               240     -0.190351  15 O  s         
   218     -0.172025  14 C  px              289      0.156321  17 H  s         
   298      0.153236  18 H  s         

 Vector   31  Occ=2.000000D+00  E=-1.198668D+00
              MO Center= -2.4D+00,  1.8D+00, -5.3D-01, r^2= 1.9D+00
   Bfn.  Coefficient  Atom+Function         Bfn.  Coefficient  Atom+Function  
  ----- ------------  ---------------      ----- ------------  ---------------
   656      0.381727  38 N  s               655      0.366664  38 N  s         
   393     -0.237111  23 C  s               631     -0.200404  37 O  s         
   610     -0.172383  36 C  pz              630     -0.168558  37 O  s         
   679      0.160342  39 H  s               688      0.158186  40 H  s         

 Vector   32  Occ=2.000000D+00  E=-1.103768D+00
              MO Center=  4.4D-01,  1.7D+00,  7.9D-01, r^2= 5.5D+00
   Bfn.  Coefficient  Atom+Function         Bfn.  Coefficient  Atom+Function  
  ----- ------------  ---------------      ----- ------------  ---------------
   426      0.229205  25 C  s               469      0.221267  28 C  s         

 Vector   33  Occ=2.000000D+00  E=-1.083905D+00
              MO Center=  4.5D-01, -1.1D+00, -2.5D-01, r^2= 7.0D+00
   Bfn.  Coefficient  Atom+Function         Bfn.  Coefficient  Atom+Function  
  ----- ------------  ---------------      ----- ------------  ---------------
   172      0.225524  11 C  s               138      0.208548   9 C  s         

 Vector   34  Occ=2.000000D+00  E=-1.013892D+00
              MO Center=  8.2D-01, -4.9D-01, -1.8D+00, r^2= 8.2D+00
   Bfn.  Coefficient  Atom+Function         Bfn.  Coefficient  Atom+Function  
  ----- ------------  ---------------      ----- ------------  ---------------
    11      0.281759   2 C  s               173      0.263541  11 C  s         
    55      0.210001   5 C  s               172      0.177451  11 C  s         
   384     -0.162671  22 H  s         

 Vector   35  Occ=2.000000D+00  E=-1.009533D+00
              MO Center=  3.9D-01,  1.5D+00,  1.4D-01, r^2= 7.7D+00
   Bfn.  Coefficient  Atom+Function         Bfn.  Coefficient  Atom+Function  
  ----- ------------  ---------------      ----- ------------  ---------------
   470     -0.227994  28 C  s               392      0.220211  23 C  s         
   469     -0.196797  28 C  s                11     -0.158886   2 C  s         
    12     -0.152875   2 C  s               384      0.152495  22 H  s         

 Vector   36  Occ=2.000000D+00  E=-9.338563D-01
              MO Center=  2.7D-01, -1.2D+00, -1.6D-01, r^2= 7.4D+00
   Bfn.  Coefficient  Atom+Function         Bfn.  Coefficient  Atom+Function  
  ----- ------------  ---------------      ----- ------------  ---------------
   173      0.300821  11 C  s               139     -0.228600   9 C  s         
   138     -0.211456   9 C  s               172      0.179707  11 C  s         
   470      0.158820  28 C  s         

 Vector   37  Occ=2.000000D+00  E=-8.930847D-01
              MO Center=  5.8D-01,  1.8D+00,  6.8D-01, r^2= 7.5D+00
   Bfn.  Coefficient  Atom+Function         Bfn.  Coefficient  Atom+Function  
  ----- ------------  ---------------      ----- ------------  ---------------
   470      0.306686  28 C  s               393      0.226637  23 C  s         
   426     -0.209876  25 C  s               427     -0.178840  25 C  s         
   398     -0.174852  23 C  px              565     -0.162706  33 N  px        
   512      0.158872  31 C  s         

 Vector   38  Occ=2.000000D+00  E=-8.416916D-01
              MO Center=  1.5D-01, -6.8D-01, -7.1D-01, r^2= 6.9D+00
   Bfn.  Coefficient  Atom+Function         Bfn.  Coefficient  Atom+Function  
  ----- ------------  ---------------      ----- ------------  ---------------
   139      0.324509   9 C  s               393      0.206790  23 C  s         
   217     -0.182499  14 C  s               109     -0.176793   7 N  pz        
   128     -0.171494   8 H  s                54      0.160599   5 C  s         
   108      0.156189   7 N  py        

 Vector   39  Occ=2.000000D+00  E=-8.249832D-01
              MO Center=  2.2D+00,  1.7D+00,  9.1D-01, r^2= 6.6D+00
   Bfn.  Coefficient  Atom+Function         Bfn.  Coefficient  Atom+Function  
  ----- ------------  ---------------      ----- ------------  ---------------
   427      0.350063  25 C  s               565     -0.251482  33 N  px        
   586     -0.238704  34 H  s               567     -0.213318  33 N  pz        
   475      0.207540  28 C  px              470     -0.192025  28 C  s         
   515      0.180738  31 C  px              512      0.171493  31 C  s         
   518      0.155456  31 C  px              538     -0.152956  32 O  s         

 Vector   40  Occ=2.000000D+00  E=-8.171533D-01
              MO Center= -2.0D-01,  4.4D-02, -2.0D-01, r^2= 5.7D+00
   Bfn.  Coefficient  Atom+Function         Bfn.  Coefficient  Atom+Function  
  ----- ------------  ---------------      ----- ------------  ---------------
   393      0.259747  23 C  s               173      0.228758  11 C  s         
   362     -0.218805  21 N  py              309      0.203205  19 C  s         
   383     -0.192697  22 H  s               105      0.185698   7 N  s         
   382     -0.184835  22 H  s               359     -0.182841  21 N  s         
   128      0.180765   8 H  s               315      0.181011  19 C  py        

 Vector   41  Occ=2.000000D+00  E=-7.919368D-01
              MO Center= -1.2D+00, -5.4D-01,  4.0D-01, r^2= 1.1D+01
   Bfn.  Coefficient  Atom+Function         Bfn.  Coefficient  Atom+Function  
  ----- ------------  ---------------      ----- ------------  ---------------
   268      0.205958  16 N  px              660     -0.192051  38 N  pz        
   398      0.181611  23 C  px              607      0.177332  36 C  s         
   217     -0.174194  14 C  s               605     -0.155975  36 C  s         
   215      0.151146  14 C  s               399     -0.151382  23 C  py        

 Vector   42  Occ=2.000000D+00  E=-7.853456D-01
              MO Center= -7.2D-01, -1.0D+00,  4.7D-01, r^2= 1.1D+01
   Bfn.  Coefficient  Atom+Function         Bfn.  Coefficient  Atom+Function  
  ----- ------------  ---------------      ----- ------------  ---------------
   309     -0.245208  19 C  s               268      0.225911  16 N  px        
   215      0.166450  14 C  s               217     -0.160248  14 C  s         
   298     -0.150553  18 H  s         

 Vector   43  Occ=2.000000D+00  E=-7.695032D-01
              MO Center=  2.5D+00,  1.5D+00,  1.1D+00, r^2= 6.9D+00
   Bfn.  Coefficient  Atom+Function         Bfn.  Coefficient  Atom+Function  
  ----- ------------  ---------------      ----- ------------  ---------------
   567      0.297862  33 N  pz              595     -0.284103  35 H  s         
   586      0.259031  34 H  s               427      0.205578  25 C  s         
   470     -0.194057  28 C  s               566      0.189906  33 N  py        
   596     -0.181665  35 H  s               514     -0.174733  31 C  s         
   587      0.150612  34 H  s         

 Vector   44  Occ=2.000000D+00  E=-7.434273D-01
              MO Center= -4.7D-01, -4.5D-01, -8.8D-02, r^2= 8.9D+00
   Bfn.  Coefficient  Atom+Function         Bfn.  Coefficient  Atom+Function  
  ----- ------------  ---------------      ----- ------------  ---------------
   309      0.324216  19 C  s               144      0.225820   9 C  px        
   146     -0.217087   9 C  pz              606      0.181052  36 C  s         
   398      0.168649  23 C  px              607     -0.168669  36 C  s         
   269     -0.165171  16 N  py              107     -0.162029   7 N  px        

 Vector   45  Occ=2.000000D+00  E=-7.337921D-01
              MO Center= -1.1D+00,  6.6D-01, -6.1D-01, r^2= 7.4D+00
   Bfn.  Coefficient  Atom+Function         Bfn.  Coefficient  Atom+Function  
  ----- ------------  ---------------      ----- ------------  ---------------
   679      0.227979  39 H  s               658      0.192610  38 N  px        
   144      0.185909   9 C  px              146     -0.184368   9 C  pz        
   659     -0.185279  38 N  py              680      0.167517  39 H  s         
   688     -0.156239  40 H  s               107     -0.155448   7 N  px        

 Vector   46  Occ=2.000000D+00  E=-7.245374D-01
              MO Center= -7.2D-01, -2.4D+00,  8.6D-01, r^2= 7.3D+00
   Bfn.  Coefficient  Atom+Function         Bfn.  Coefficient  Atom+Function  
  ----- ------------  ---------------      ----- ------------  ---------------
   269      0.332259  16 N  py              289      0.264803  17 H  s         
   298     -0.208090  18 H  s               290      0.181225  17 H  s         

 Vector   47  Occ=2.000000D+00  E=-7.164795D-01
              MO Center=  1.2D+00,  1.1D+00,  2.4D-01, r^2= 7.4D+00
   Bfn.  Coefficient  Atom+Function         Bfn.  Coefficient  Atom+Function  
  ----- ------------  ---------------      ----- ------------  ---------------
   515     -0.204236  31 C  px              538     -0.203620  32 O  s         
   514      0.201564  31 C  s               542      0.186032  32 O  pz        
   565      0.173302  33 N  px              474     -0.154744  28 C  pz        

 Vector   48  Occ=2.000000D+00  E=-7.045828D-01
              MO Center=  7.3D-01,  3.1D-01, -3.2D-01, r^2= 9.0D+00
   Bfn.  Coefficient  Atom+Function         Bfn.  Coefficient  Atom+Function  
  ----- ------------  ---------------      ----- ------------  ---------------
   384      0.195803  22 H  s               538      0.178122  32 O  s         
   515      0.176963  31 C  px              542     -0.172802  32 O  pz        
   142     -0.152218   9 C  py        

 Vector   49  Occ=2.000000D+00  E=-6.905263D-01
              MO Center= -4.3D-01, -2.9D-01, -1.5D+00, r^2= 7.7D+00
   Bfn.  Coefficient  Atom+Function         Bfn.  Coefficient  Atom+Function  
  ----- ------------  ---------------      ----- ------------  ---------------
    82      0.275619   6 O  px               80     -0.222930   6 O  s         
    14     -0.170190   2 C  px              106      0.168702   7 N  s         
    59     -0.164075   5 C  pz               85      0.153067   6 O  px        

 Vector   50  Occ=2.000000D+00  E=-6.720850D-01
              MO Center= -2.4D-01, -1.0D+00,  3.3D-01, r^2= 1.1D+01
   Bfn.  Coefficient  Atom+Function         Bfn.  Coefficient  Atom+Function  
  ----- ------------  ---------------      ----- ------------  ---------------
   176      0.172754  11 C  py              205      0.155329  13 H  s         

 Vector   51  Occ=2.000000D+00  E=-6.662243D-01
              MO Center=  4.8D-01,  2.1D+00,  6.8D-01, r^2= 7.9D+00
   Bfn.  Coefficient  Atom+Function         Bfn.  Coefficient  Atom+Function  
  ----- ------------  ---------------      ----- ------------  ---------------
   473      0.194363  28 C  py              493      0.189942  29 H  s         
   658     -0.189041  38 N  px              688      0.188297  40 H  s         
   516      0.176040  31 C  py              514      0.165909  31 C  s         
   502     -0.159714  30 H  s         

 Vector   52  Occ=2.000000D+00  E=-6.557111D-01
              MO Center= -2.3D-01, -1.4D+00, -3.0D-01, r^2= 9.4D+00
   Bfn.  Coefficient  Atom+Function         Bfn.  Coefficient  Atom+Function  
  ----- ------------  ---------------      ----- ------------  ---------------
    82      0.190098   6 O  px              244      0.176804  15 O  py        
   218      0.166492  14 C  px              109      0.158838   7 N  pz        
   338     -0.158332  20 O  pz              334     -0.153236  20 O  s         

 Vector   53  Occ=2.000000D+00  E=-6.427099D-01
              MO Center=  3.0D-02,  3.6D-02,  4.9D-01, r^2= 1.3D+01
   Bfn.  Coefficient  Atom+Function         Bfn.  Coefficient  Atom+Function  
  ----- ------------  ---------------      ----- ------------  ---------------
   309      0.195442  19 C  s               427      0.179212  25 C  s         
   244     -0.176473  15 O  py              517      0.168372  31 C  pz        

 Vector   54  Occ=2.000000D+00  E=-6.345275D-01
              MO Center=  8.5D-01,  2.2D-01, -1.2D+00, r^2= 8.9D+00
   Bfn.  Coefficient  Atom+Function         Bfn.  Coefficient  Atom+Function  
  ----- ------------  ---------------      ----- ------------  ---------------
   139      0.282851   9 C  s               318      0.197414  19 C  py        
   359     -0.196952  21 N  s               368     -0.183504  21 N  py        
   173     -0.180404  11 C  s               417      0.170291  24 H  s         
    16      0.166988   2 C  pz               44      0.167505   4 H  s         
     1     -0.153842   1 H  s                15      0.150582   2 C  py        

 Vector   55  Occ=2.000000D+00  E=-6.251540D-01
              MO Center=  7.7D-01,  3.4D-01, -4.5D-01, r^2= 1.1D+01
   Bfn.  Coefficient  Atom+Function         Bfn.  Coefficient  Atom+Function  
  ----- ------------  ---------------      ----- ------------  ---------------
   542      0.237448  32 O  pz              517     -0.175572  31 C  pz        
   139      0.161696   9 C  s               427     -0.151671  25 C  s         

 Vector   56  Occ=2.000000D+00  E=-6.150422D-01
              MO Center= -2.7D-01, -8.0D-02,  3.3D-01, r^2= 8.7D+00
   Bfn.  Coefficient  Atom+Function         Bfn.  Coefficient  Atom+Function  
  ----- ------------  ---------------      ----- ------------  ---------------
   336      0.218811  20 O  px              361      0.209958  21 N  px        
   397      0.166658  23 C  pz              313      0.163848  19 C  pz        

 Vector   57  Occ=2.000000D+00  E=-6.007235D-01
              MO Center= -1.0D+00,  5.1D-01, -4.3D-02, r^2= 1.2D+01
   Bfn.  Coefficient  Atom+Function         Bfn.  Coefficient  Atom+Function  
  ----- ------------  ---------------      ----- ------------  ---------------
   634      0.213001  37 O  py              631      0.176695  37 O  s         
   633     -0.165086  37 O  px              313     -0.164088  19 C  pz        
   336     -0.163107  20 O  px              173      0.156558  11 C  s         

 Vector   58  Occ=2.000000D+00  E=-5.984421D-01
              MO Center= -2.1D-01, -9.0D-01,  8.6D-02, r^2= 1.0D+01
   Bfn.  Coefficient  Atom+Function         Bfn.  Coefficient  Atom+Function  
  ----- ------------  ---------------      ----- ------------  ---------------
   384     -0.175568  22 H  s                13      0.163628   2 C  s         
   338      0.154498  20 O  pz        

 Vector   59  Occ=2.000000D+00  E=-5.956099D-01
              MO Center=  3.8D-01,  1.2D+00, -8.5D-02, r^2= 9.4D+00
   Bfn.  Coefficient  Atom+Function         Bfn.  Coefficient  Atom+Function  
  ----- ------------  ---------------      ----- ------------  ---------------
    57      0.162632   5 C  px              541      0.151320  32 O  py        

 Vector   60  Occ=2.000000D+00  E=-5.876650D-01
              MO Center= -5.4D-01,  1.6D+00, -3.8D-02, r^2= 9.8D+00
   Bfn.  Coefficient  Atom+Function         Bfn.  Coefficient  Atom+Function  
  ----- ------------  ---------------      ----- ------------  ---------------
   634      0.214435  37 O  py              139      0.167233   9 C  s         
   631      0.162366  37 O  s               384      0.158436  22 H  s         
    82     -0.157080   6 O  px              472      0.153757  28 C  px        
    57      0.151923   5 C  px        

 Vector   61  Occ=2.000000D+00  E=-5.851081D-01
              MO Center=  1.3D-01, -1.4D+00, -6.9D-02, r^2= 1.0D+01
   Bfn.  Coefficient  Atom+Function         Bfn.  Coefficient  Atom+Function  
  ----- ------------  ---------------      ----- ------------  ---------------
   196      0.202733  12 H  s               177     -0.177853  11 C  pz        
   175      0.154310  11 C  px        

 Vector   62  Occ=2.000000D+00  E=-5.761260D-01
              MO Center=  4.2D-01, -1.6D+00, -1.1D+00, r^2= 1.2D+01
   Bfn.  Coefficient  Atom+Function         Bfn.  Coefficient  Atom+Function  
  ----- ------------  ---------------      ----- ------------  ---------------
   173      0.291142  11 C  s                35      0.229822   3 H  s         
    16     -0.212713   2 C  pz               36      0.204587   3 H  s         
   244     -0.177555  15 O  py               44     -0.174602   4 H  s         
    14     -0.165435   2 C  px              219      0.157128  14 C  py        
   220     -0.157840  14 C  pz              144     -0.156237   9 C  px        

 Vector   63  Occ=2.000000D+00  E=-5.674365D-01
              MO Center=  6.4D-01, -1.1D+00, -1.9D+00, r^2= 9.5D+00
   Bfn.  Coefficient  Atom+Function         Bfn.  Coefficient  Atom+Function  
  ----- ------------  ---------------      ----- ------------  ---------------
    35      0.272591   3 H  s                15      0.256174   2 C  py        
    36      0.242454   3 H  s               217      0.204833  14 C  s         
     1     -0.182314   1 H  s               109     -0.163596   7 N  pz        
   219     -0.159936  14 C  py              384      0.160034  22 H  s         
   175      0.152419  11 C  px        

 Vector   64  Occ=2.000000D+00  E=-5.561895D-01
              MO Center= -6.0D-01,  1.2D+00,  4.5D-01, r^2= 1.1D+01
   Bfn.  Coefficient  Atom+Function         Bfn.  Coefficient  Atom+Function  
  ----- ------------  ---------------      ----- ------------  ---------------
   635     -0.212984  37 O  pz              609      0.210515  36 C  py        
   503     -0.163929  30 H  s               658      0.156380  38 N  px        

 Vector   65  Occ=2.000000D+00  E=-5.504601D-01
              MO Center=  1.6D-01,  4.3D-01,  1.7D-01, r^2= 1.2D+01
   Bfn.  Coefficient  Atom+Function         Bfn.  Coefficient  Atom+Function  
  ----- ------------  ---------------      ----- ------------  ---------------
   451      0.235207  26 H  s               459     -0.211736  27 H  s         
   460     -0.209173  27 H  s               431     -0.162629  25 C  pz        
   217     -0.152526  14 C  s         

 Vector   66  Occ=2.000000D+00  E=-5.362928D-01
              MO Center=  1.8D-01, -1.3D+00, -1.0D+00, r^2= 1.1D+01
   Bfn.  Coefficient  Atom+Function         Bfn.  Coefficient  Atom+Function  
  ----- ------------  ---------------      ----- ------------  ---------------
   245     -0.179602  15 O  pz              139     -0.178002   9 C  s         
    44      0.173747   4 H  s                84     -0.170060   6 O  pz        
    83     -0.158541   6 O  py               45      0.157419   4 H  s         
    16      0.154986   2 C  pz              220     -0.155647  14 C  pz        

 Vector   67  Occ=2.000000D+00  E=-5.330526D-01
              MO Center=  2.6D-03,  1.4D+00,  9.0D-01, r^2= 8.8D+00
   Bfn.  Coefficient  Atom+Function         Bfn.  Coefficient  Atom+Function  
  ----- ------------  ---------------      ----- ------------  ---------------
   430      0.211241  25 C  py              459      0.192101  27 H  s         
   429     -0.173414  25 C  px              474      0.168485  28 C  pz        
   502      0.153520  30 H  s         

 Vector   68  Occ=2.000000D+00  E=-5.270511D-01
              MO Center= -1.3D-02,  6.3D-01,  8.2D-01, r^2= 1.1D+01
   Bfn.  Coefficient  Atom+Function         Bfn.  Coefficient  Atom+Function  
  ----- ------------  ---------------      ----- ------------  ---------------
   431      0.233466  25 C  pz              427      0.203736  25 C  s         
   451     -0.189924  26 H  s               450     -0.181794  26 H  s         
   173      0.160491  11 C  s               474     -0.156867  28 C  pz        
   205     -0.153807  13 H  s               428     -0.153978  25 C  s         
   472     -0.152751  28 C  px        

 Vector   69  Occ=2.000000D+00  E=-5.171766D-01
              MO Center= -2.3D-01, -5.1D-01,  3.2D-02, r^2= 9.9D+00
   Bfn.  Coefficient  Atom+Function         Bfn.  Coefficient  Atom+Function  
  ----- ------------  ---------------      ----- ------------  ---------------
   427      0.253580  25 C  s               393     -0.172921  23 C  s         
   141     -0.167475   9 C  px              162      0.160028  10 H  s         
   217     -0.159619  14 C  s               143     -0.152788   9 C  pz        
   175      0.152954  11 C  px        

 Vector   70  Occ=2.000000D+00  E=-5.036728D-01
              MO Center= -7.1D-01,  1.7D+00,  5.8D-01, r^2= 6.2D+00
   Bfn.  Coefficient  Atom+Function         Bfn.  Coefficient  Atom+Function  
  ----- ------------  ---------------      ----- ------------  ---------------
   470      0.251121  28 C  s               451     -0.224348  26 H  s         
   416     -0.214262  24 H  s               607      0.214526  36 C  s         
   503     -0.199750  30 H  s               384     -0.195359  22 H  s         
   393     -0.188358  23 C  s               450     -0.188859  26 H  s         
   432     -0.175494  25 C  px              397     -0.170763  23 C  pz        

 Vector   71  Occ=2.000000D+00  E=-4.671117D-01
              MO Center=  8.7D-01,  4.8D-01,  1.3D-01, r^2= 7.5D+00
   Bfn.  Coefficient  Atom+Function         Bfn.  Coefficient  Atom+Function  
  ----- ------------  ---------------      ----- ------------  ---------------
   540      0.381373  32 O  px              543      0.314008  32 O  px        
   337     -0.263698  20 O  py              340     -0.218551  20 O  py        
   173      0.211775  11 C  s               197     -0.170253  12 H  s         
   513      0.165951  31 C  s               607     -0.164004  36 C  s         
   563     -0.156458  33 N  s                83      0.153660   6 O  py        

 Vector   72  Occ=2.000000D+00  E=-4.605298D-01
              MO Center=  1.3D+00,  7.6D-01,  1.1D-01, r^2= 7.7D+00
   Bfn.  Coefficient  Atom+Function         Bfn.  Coefficient  Atom+Function  
  ----- ------------  ---------------      ----- ------------  ---------------
   541     -0.272520  32 O  py              540      0.260844  32 O  px        
   173     -0.235540  11 C  s               337      0.218037  20 O  py        
   544     -0.215184  32 O  py              543      0.213217  32 O  px        
   384      0.202422  22 H  s               428     -0.197700  25 C  s         
   566      0.185622  33 N  py              340      0.180885  20 O  py        

 Vector   73  Occ=2.000000D+00  E=-4.522231D-01
              MO Center=  1.5D+00,  7.2D-01,  3.0D-01, r^2= 8.6D+00
   Bfn.  Coefficient  Atom+Function         Bfn.  Coefficient  Atom+Function  
  ----- ------------  ---------------      ----- ------------  ---------------
   566      0.294352  33 N  py              569      0.253972  33 N  py        
   541     -0.219024  32 O  py              540     -0.204900  32 O  px        
   337     -0.193999  20 O  py              544     -0.176485  32 O  py        
   543     -0.171436  32 O  px              340     -0.161254  20 O  py        
   567     -0.156972  33 N  pz        

 Vector   74  Occ=2.000000D+00  E=-4.455084D-01
              MO Center= -2.4D-01,  2.0D-01, -1.4D+00, r^2= 7.9D+00
   Bfn.  Coefficient  Atom+Function         Bfn.  Coefficient  Atom+Function  
  ----- ------------  ---------------      ----- ------------  ---------------
    84      0.376504   6 O  pz               87      0.303458   6 O  pz        
   139     -0.204406   9 C  s               173      0.187424  11 C  s         
   108     -0.175786   7 N  py        

 Vector   75  Occ=2.000000D+00  E=-4.371993D-01
              MO Center= -1.2D+00,  8.6D-01, -2.6D-01, r^2= 8.1D+00
   Bfn.  Coefficient  Atom+Function         Bfn.  Coefficient  Atom+Function  
  ----- ------------  ---------------      ----- ------------  ---------------
   417      0.327430  24 H  s                84      0.259053   6 O  pz        
   635      0.258764  37 O  pz              363      0.230441  21 N  pz        
   366      0.221183  21 N  pz               87      0.218503   6 O  pz        
   633      0.206863  37 O  px              638      0.197229  37 O  pz        
   163      0.191819  10 H  s               338     -0.190294  20 O  pz        

 Vector   76  Occ=2.000000D+00  E=-4.231792D-01
              MO Center=  3.9D-02, -2.5D+00, -3.4D-01, r^2= 8.0D+00
   Bfn.  Coefficient  Atom+Function         Bfn.  Coefficient  Atom+Function  
  ----- ------------  ---------------      ----- ------------  ---------------
   243      0.297267  15 O  px              246      0.231534  15 O  px        
    83      0.225972   6 O  py              109     -0.215782   7 N  pz        
   245     -0.214002  15 O  pz              108     -0.210574   7 N  py        
   111     -0.206583   7 N  py              139     -0.184906   9 C  s         
    86      0.178841   6 O  py              112     -0.169202   7 N  pz        

 Vector   77  Occ=2.000000D+00  E=-4.064988D-01
              MO Center= -3.5D-01, -2.3D+00,  2.5D-01, r^2= 9.4D+00
   Bfn.  Coefficient  Atom+Function         Bfn.  Coefficient  Atom+Function  
  ----- ------------  ---------------      ----- ------------  ---------------
   243      0.340655  15 O  px              106     -0.307011   7 N  s         
   139     -0.293809   9 C  s               173      0.271021  11 C  s         
   246      0.267300  15 O  px              216     -0.262591  14 C  s         
   163      0.231017  10 H  s               337     -0.209759  20 O  py        
   108      0.197246   7 N  py              149     -0.186799   9 C  pz        

 Vector   78  Occ=2.000000D+00  E=-3.949405D-01
              MO Center= -7.3D-01, -3.0D+00,  9.9D-01, r^2= 8.2D+00
   Bfn.  Coefficient  Atom+Function         Bfn.  Coefficient  Atom+Function  
  ----- ------------  ---------------      ----- ------------  ---------------
   245      0.352035  15 O  pz              270     -0.334257  16 N  pz        
   273     -0.287798  16 N  pz              248      0.273645  15 O  pz        
   268     -0.193562  16 N  px              149     -0.185625   9 C  pz        
   271     -0.163810  16 N  px              217      0.155100  14 C  s         

 Vector   79  Occ=2.000000D+00  E=-3.939979D-01
              MO Center= -2.4D+00,  1.7D+00,  2.7D-02, r^2= 6.5D+00
   Bfn.  Coefficient  Atom+Function         Bfn.  Coefficient  Atom+Function  
  ----- ------------  ---------------      ----- ------------  ---------------
   659      0.316748  38 N  py              662      0.283194  38 N  py        
   634     -0.267036  37 O  py              635      0.259146  37 O  pz        
   637     -0.212265  37 O  py              658      0.205321  38 N  px        
   638      0.200283  37 O  pz              427     -0.177941  25 C  s         
   470      0.171683  28 C  s               139      0.165501   9 C  s         

 Vector   80  Occ=2.000000D+00  E=-3.891532D-01
              MO Center= -1.6D+00,  9.3D-01,  5.7D-01, r^2= 7.7D+00
   Bfn.  Coefficient  Atom+Function         Bfn.  Coefficient  Atom+Function  
  ----- ------------  ---------------      ----- ------------  ---------------
   633      0.301669  37 O  px              173      0.262211  11 C  s         
   636      0.231892  37 O  px              470     -0.223701  28 C  s         
   363     -0.221699  21 N  pz              366     -0.217590  21 N  pz        
   361     -0.193042  21 N  px              364     -0.183506  21 N  px        
   139     -0.172494   9 C  s               660      0.168245  38 N  pz        

 Vector   81  Occ=0.000000D+00  E= 1.029393D-02
              MO Center=  4.6D+00,  1.7D+00,  2.2D+00, r^2= 1.7D+01
   Bfn.  Coefficient  Atom+Function         Bfn.  Coefficient  Atom+Function  
  ----- ------------  ---------------      ----- ------------  ---------------
   384      6.589235  22 H  s               564     -3.650569  33 N  s         
   514      2.967719  31 C  s               521      2.817756  31 C  px        
    13     -1.831836   2 C  s               588     -1.704745  34 H  s         
   597     -1.524173  35 H  s                65     -1.500433   5 C  pz        
   607      1.479003  36 C  s               428     -1.427268  25 C  s         

 Vector   82  Occ=0.000000D+00  E= 2.649094D-02
              MO Center=  3.5D+00,  3.0D-01, -7.9D-01, r^2= 3.0D+01
   Bfn.  Coefficient  Atom+Function         Bfn.  Coefficient  Atom+Function  
  ----- ------------  ---------------      ----- ------------  ---------------
   149      3.451094   9 C  pz              318      2.664620  19 C  py        
    65      2.604160   5 C  pz               56      2.449132   5 C  s         
   470      2.297203  28 C  s               148     -2.054409   9 C  py        
   174     -1.943520  11 C  s               597      1.789021  35 H  s         
    12     -1.706488   2 C  s                 3      1.666835   1 H  s         

 Vector   83  Occ=0.000000D+00  E= 3.262718D-02
              MO Center=  2.3D+00,  3.1D+00, -3.8D-01, r^2= 3.2D+01
   Bfn.  Coefficient  Atom+Function         Bfn.  Coefficient  Atom+Function  
  ----- ------------  ---------------      ----- ------------  ---------------
   384      8.903602  22 H  s                65     -3.881115   5 C  pz        
   495     -3.624723  29 H  s               428     -3.182959  25 C  s         
    13     -3.110921   2 C  s               471     -2.952824  28 C  s         
   149     -2.890310   9 C  pz              521     -2.499453  31 C  px        
   452     -2.485734  26 H  s               436      2.308403  25 C  py        

 Vector   84  Occ=0.000000D+00  E= 3.797283D-02
              MO Center=  1.8D+00, -9.9D-02,  1.5D+00, r^2= 3.4D+01
   Bfn.  Coefficient  Atom+Function         Bfn.  Coefficient  Atom+Function  
  ----- ------------  ---------------      ----- ------------  ---------------
   384      5.116590  22 H  s               504     -4.397558  30 H  s         
   318     -3.574853  19 C  py              428     -3.386943  25 C  s         
   217      2.860185  14 C  s               522      2.174893  31 C  py        
   495      2.130699  29 H  s                 3     -1.980340   1 H  s         
   149     -1.986321   9 C  pz              471     -1.980598  28 C  s         

 Vector   85  Occ=0.000000D+00  E= 4.680160D-02
              MO Center=  8.8D-01,  1.4D+00, -2.1D+00, r^2= 3.9D+01
   Bfn.  Coefficient  Atom+Function         Bfn.  Coefficient  Atom+Function  
  ----- ------------  ---------------      ----- ------------  ---------------
   607      3.744482  36 C  s                37      3.382937   3 H  s         
    56      3.380426   5 C  s               106     -3.242987   7 N  s         
   495     -3.188139  29 H  s               428     -3.147140  25 C  s         
    65      2.890125   5 C  pz              401      2.363923  23 C  px        
   452      2.293075  26 H  s               198     -1.979968  12 H  s         

 Vector   86  Occ=0.000000D+00  E= 4.731730D-02
              MO Center=  1.9D+00,  3.3D-01,  5.2D-02, r^2= 4.2D+01
   Bfn.  Coefficient  Atom+Function         Bfn.  Coefficient  Atom+Function  
  ----- ------------  ---------------      ----- ------------  ---------------
   514      4.052212  31 C  s               384      3.356791  22 H  s         
   428     -3.145908  25 C  s               588      2.776617  34 H  s         
     3      2.359766   1 H  s               452     -2.298160  26 H  s         
   149      2.052176   9 C  pz              207     -1.972011  13 H  s         
   267     -1.964657  16 N  s               360      1.893887  21 N  s         

 Vector   87  Occ=0.000000D+00  E= 5.149274D-02
              MO Center= -1.1D+00, -2.1D+00,  4.9D-01, r^2= 3.9D+01
   Bfn.  Coefficient  Atom+Function         Bfn.  Coefficient  Atom+Function  
  ----- ------------  ---------------      ----- ------------  ---------------
    65      3.538458   5 C  pz              504      3.502679  30 H  s         
[...]

 Vector  197  Occ=0.000000D+00  E= 4.447750D-01
              MO Center= -1.5D-01,  6.3D-01, -6.5D-01, r^2= 2.1D+01
   Bfn.  Coefficient  Atom+Function         Bfn.  Coefficient  Atom+Function  
  ----- ------------  ---------------      ----- ------------  ---------------
   384     10.658109  22 H  s               657      9.274079  38 N  s         
   471     -7.457792  28 C  s                56     -7.106166   5 C  s         
   310      6.929734  19 C  s               360      6.454235  21 N  s         
    13     -5.748411   2 C  s               217     -5.680056  14 C  s         
   616      5.542305  36 C  pz               65     -5.209283   5 C  pz        

 Vector  198  Occ=0.000000D+00  E= 4.481108D-01
              MO Center=  2.2D-01,  8.5D-01,  8.7D-02, r^2= 1.9D+01
   Bfn.  Coefficient  Atom+Function         Bfn.  Coefficient  Atom+Function  
  ----- ------------  ---------------      ----- ------------  ---------------
    56     15.819788   5 C  s               149     13.237529   9 C  pz        
   607     12.288358  36 C  s               401     11.236059  23 C  px        
   514     -9.119264  31 C  s               148     -8.799833   9 C  py        
   360     -8.482992  21 N  s               403     -7.765983  23 C  pz        
   318      7.435868  19 C  py              418      7.414406  24 H  s         

 Vector  199  Occ=0.000000D+00  E= 4.512900D-01
              MO Center=  4.1D-01,  1.3D-01, -8.4D-01, r^2= 2.3D+01
   Bfn.  Coefficient  Atom+Function         Bfn.  Coefficient  Atom+Function  
  ----- ------------  ---------------      ----- ------------  ---------------
   607     15.832246  36 C  s               318    -14.282916  19 C  py        
    13    -11.827127   2 C  s               384     10.915878  22 H  s         
   428     -9.648433  25 C  s               182     -7.649327  11 C  py        
   267     -7.474942  16 N  s               106      6.708780   7 N  s         
   360     -6.540497  21 N  s                45      6.126050   4 H  s         

 Vector  200  Occ=0.000000D+00  E= 4.518252D-01
              MO Center=  1.1D+00, -6.1D-02, -6.8D-01, r^2= 2.3D+01
   Bfn.  Coefficient  Atom+Function         Bfn.  Coefficient  Atom+Function  
  ----- ------------  ---------------      ----- ------------  ---------------
   514     16.869944  31 C  s               607    -16.932495  36 C  s         
   149     15.015137   9 C  pz              217    -10.167740  14 C  s         
   114     -9.073794   7 N  py              147     -8.511410   9 C  px        
    13      8.390607   2 C  s                65      8.093661   5 C  pz        
    45      7.546635   4 H  s               401     -6.798132  23 C  px        

 Vector  201  Occ=0.000000D+00  E= 4.555322D-01
              MO Center=  3.6D-01,  8.2D-01,  3.0D-01, r^2= 2.1D+01
   Bfn.  Coefficient  Atom+Function         Bfn.  Coefficient  Atom+Function  
  ----- ------------  ---------------      ----- ------------  ---------------
   428    -13.618320  25 C  s               384     13.340478  22 H  s         
   403     10.465504  23 C  pz              514      7.698384  31 C  s         
   360      6.668891  21 N  s               471     -6.662930  28 C  s         
   217      6.605445  14 C  s                12     -6.250775   2 C  s         
    13     -6.013107   2 C  s               267     -5.863894  16 N  s         

 Vector  202  Occ=0.000000D+00  E= 4.594274D-01
              MO Center=  5.9D-02,  6.2D-01, -5.1D-01, r^2= 2.0D+01
   Bfn.  Coefficient  Atom+Function         Bfn.  Coefficient  Atom+Function  
  ----- ------------  ---------------      ----- ------------  ---------------
   149     12.184178   9 C  pz               56     11.141130   5 C  s         
   514     -8.941536  31 C  s               539      8.136953  32 O  s         
   401      7.511033  23 C  px              521      7.014384  31 C  px        
   106     -6.663663   7 N  s                63     -6.393123   5 C  px        
   318      6.311787  19 C  py              607      5.968123  36 C  s         

 Vector  203  Occ=0.000000D+00  E= 4.629245D-01
              MO Center= -2.1D-01, -2.9D-01,  2.5D-01, r^2= 2.1D+01
   Bfn.  Coefficient  Atom+Function         Bfn.  Coefficient  Atom+Function  
  ----- ------------  ---------------      ----- ------------  ---------------
   217     18.645500  14 C  s               174    -12.674987  11 C  s         
   428    -11.946330  25 C  s               402      9.055432  23 C  py        
   319      8.588169  19 C  pz              106      8.119713   7 N  s         
   514      6.809219  31 C  s               182      6.662704  11 C  py        
    13     -6.280261   2 C  s               147     -6.073072   9 C  px        

 Vector  204  Occ=0.000000D+00  E= 4.664462D-01
              MO Center= -4.0D-01,  9.9D-02,  2.7D-01, r^2= 2.2D+01
   Bfn.  Coefficient  Atom+Function         Bfn.  Coefficient  Atom+Function  
  ----- ------------  ---------------      ----- ------------  ---------------
   149     18.691701   9 C  pz              514    -14.771010  31 C  s         
   147    -11.755593   9 C  px              657    -11.742394  38 N  s         
    13     11.047505   2 C  s               114    -10.180008   7 N  py        
    56      9.743393   5 C  s               402      9.637843  23 C  py        
   401     -8.686815  23 C  px              317      7.999894  19 C  px        

 Vector  205  Occ=0.000000D+00  E= 4.685843D-01
              MO Center=  4.4D-01, -1.5D-01, -1.2D-01, r^2= 2.1D+01
   Bfn.  Coefficient  Atom+Function         Bfn.  Coefficient  Atom+Function  
  ----- ------------  ---------------      ----- ------------  ---------------
   428     17.340873  25 C  s               384     16.232581  22 H  s         
   402    -15.323404  23 C  py              360    -14.258001  21 N  s         
   174     12.666658  11 C  s               607    -11.338259  36 C  s         
   217     -9.482363  14 C  s                56     -9.103473   5 C  s         
   319     -8.663523  19 C  pz              310     -8.608828  19 C  s         

 Vector  206  Occ=0.000000D+00  E= 4.759749D-01
              MO Center=  7.2D-01, -6.2D-01, -3.7D-01, r^2= 2.1D+01
   Bfn.  Coefficient  Atom+Function         Bfn.  Coefficient  Atom+Function  
  ----- ------------  ---------------      ----- ------------  ---------------
   514      9.689013  31 C  s               360     -8.345542  21 N  s         
   367      7.623979  21 N  px              471      7.660739  28 C  s         
   106     -7.439541   7 N  s               173      6.342244  11 C  s         
   217      6.069329  14 C  s                56     -5.850544   5 C  s         
   368     -5.836879  21 N  py              197     -5.498248  12 H  s         

 Vector  207  Occ=0.000000D+00  E= 4.801860D-01
              MO Center=  1.3D+00,  1.2D-01, -3.7D-01, r^2= 2.1D+01
   Bfn.  Coefficient  Atom+Function         Bfn.  Coefficient  Atom+Function  
  ----- ------------  ---------------      ----- ------------  ---------------
   217     22.214576  14 C  s               514     15.675766  31 C  s         
   384    -15.545492  22 H  s               607    -14.552489  36 C  s         
   318     12.589641  19 C  py              394    -10.197227  23 C  s         
   147     -9.849022   9 C  px              114     -8.974122   7 N  py        
   471      8.959527  28 C  s               401     -8.747521  23 C  px        

 Vector  208  Occ=0.000000D+00  E= 4.827936D-01
              MO Center=  5.7D-02, -2.5D-01, -4.2D-01, r^2= 2.1D+01
   Bfn.  Coefficient  Atom+Function         Bfn.  Coefficient  Atom+Function  
  ----- ------------  ---------------      ----- ------------  ---------------
   384     13.218811  22 H  s               148     10.308397   9 C  py        
   514     -8.238706  31 C  s                56     -7.972470   5 C  s         
   318     -7.529640  19 C  py              115      7.202919   7 N  pz        
   471     -7.147839  28 C  s                81      6.016304   6 O  s         
   368      5.191166  21 N  py              523      5.116938  31 C  pz        

 Vector  209  Occ=0.000000D+00  E= 4.855845D-01
              MO Center=  9.1D-02,  1.2D+00, -4.9D-02, r^2= 1.9D+01
   Bfn.  Coefficient  Atom+Function         Bfn.  Coefficient  Atom+Function  
  ----- ------------  ---------------      ----- ------------  ---------------
   514     19.773625  31 C  s               564    -18.104341  33 N  s         
   607    -13.343788  36 C  s               106     10.861305   7 N  s         
   384      8.771970  22 H  s                12     -7.728200   2 C  s         
   471      7.256318  28 C  s               394     -7.154008  23 C  s         
   523      6.917877  31 C  pz              318      6.761934  19 C  py        

 Vector  210  Occ=0.000000D+00  E= 4.921088D-01
              MO Center=  6.4D-01,  8.2D-01,  9.3D-02, r^2= 2.0D+01
   Bfn.  Coefficient  Atom+Function         Bfn.  Coefficient  Atom+Function  
  ----- ------------  ---------------      ----- ------------  ---------------
   514     17.948230  31 C  s                56     17.261071   5 C  s         
   428    -12.727420  25 C  s               384    -12.404283  22 H  s         
   318    -10.203194  19 C  py              460      9.342906  27 H  s         
   106      8.837579   7 N  s               539     -7.671610  32 O  s         
   427     -7.194393  25 C  s               360      6.862534  21 N  s         

 Vector  211  Occ=0.000000D+00  E= 4.951343D-01
              MO Center=  5.3D-01, -3.9D-01,  5.3D-02, r^2= 2.1D+01
   Bfn.  Coefficient  Atom+Function         Bfn.  Coefficient  Atom+Function  
  ----- ------------  ---------------      ----- ------------  ---------------
   318     21.325198  19 C  py              217     16.064543  14 C  s         
   607     14.549105  36 C  s               174    -14.113288  11 C  s         
   384    -11.298122  22 H  s                56     11.190020   5 C  s         
   147    -11.162859   9 C  px              402      7.916281  23 C  py        
   115      7.799893   7 N  pz              149      7.353479   9 C  pz        

 Vector  212  Occ=0.000000D+00  E= 4.995408D-01
              MO Center=  5.4D-01,  3.1D-02,  1.1D-01, r^2= 2.2D+01
   Bfn.  Coefficient  Atom+Function         Bfn.  Coefficient  Atom+Function  
  ----- ------------  ---------------      ----- ------------  ---------------
   217     20.190615  14 C  s               106     12.892710   7 N  s         
   174    -11.722353  11 C  s               428     -9.271308  25 C  s         
    56      8.544135   5 C  s               394     -8.190300  23 C  s         
   607      7.337716  36 C  s               242     -6.573394  15 O  s         
   115      5.752240   7 N  pz              310     -5.000126  19 C  s         

 Vector  213  Occ=0.000000D+00  E= 5.016861D-01
              MO Center=  1.3D-01,  9.1D-01, -1.2D-01, r^2= 2.0D+01
   Bfn.  Coefficient  Atom+Function         Bfn.  Coefficient  Atom+Function  
  ----- ------------  ---------------      ----- ------------  ---------------
   607     26.104477  36 C  s               360    -15.869904  21 N  s         
   514    -15.371089  31 C  s               657    -12.217366  38 N  s         
   148      9.805919   9 C  py              318     -9.822726  19 C  py        
   564      9.484797  33 N  s               471      9.027463  28 C  s         
   319     -8.518733  19 C  pz              384     -8.291536  22 H  s         


 center of mass
 --------------
 x =  -0.06106507 y =  -0.03466925 z =   0.01183745

 moments of inertia (a.u.)
 ------------------
        8129.771525915598           0.000000000000           0.000000000001
           0.000000000000        5493.426158898901           0.000000000001
           0.000000000001           0.000000000001        8939.138633908004

  Mulliken analysis of the total density
  --------------------------------------

    Atom       Charge   Shell Charges
 -----------   ------   -------------------------------------------------------
    1 H    1     0.81   0.77  0.08  0.00  0.03 -0.07
    2 C    6     6.24   2.01  0.66  0.26  0.13  2.07  0.97 -0.03  0.06  0.10
    3 H    1     0.95   0.76  0.22  0.01  0.03 -0.07
    4 H    1     0.87   0.76  0.13  0.02  0.03 -0.06
    5 C    6     5.23   2.01  0.68  0.15 -0.01  1.89  0.32 -0.06  0.24  0.02
    6 O    8     8.88   2.01  0.82  1.01  0.21  2.80  1.87  0.17  0.01 -0.01
    7 N    7     7.37   2.01  0.72  0.85 -0.20  2.45  1.45  0.00  0.05  0.04
    8 H    1     0.92   0.77  0.18 -0.04  0.05 -0.04
    9 C    6     6.01   2.01  0.66  0.04 -0.04  1.99  1.12  0.14  0.14 -0.04
   10 H    1     1.25   0.78  0.41 -0.01  0.03  0.05
   11 C    6     6.47   2.01  0.66  0.51  0.02  2.05  0.94  0.07  0.09  0.13
   12 H    1     1.07   0.77  0.30  0.03  0.03 -0.06
   13 H    1     0.81   0.78  0.07 -0.00  0.03 -0.06
   14 C    6     4.80   2.01  0.68  0.15 -0.04  1.91 -0.12  0.01  0.24 -0.03
   15 O    8     8.79   2.01  0.82  1.02  0.19  2.80  1.81  0.14  0.02 -0.01
   16 N    7     7.14   2.01  0.72  0.78 -0.16  2.48  1.21  0.10  0.04 -0.03
   17 H    1     0.90   0.72  0.21  0.00  0.06 -0.09
   18 H    1     0.99   0.76  0.22 -0.01  0.05 -0.03
   19 C    6     4.53   2.01  0.68  0.04 -0.07  1.89  0.07  0.01  0.24 -0.33
   20 O    8     9.04   2.01  0.82  1.06  0.26  2.80  1.90  0.18  0.01  0.01
   21 N    7     7.47   2.01  0.72  0.87 -0.13  2.46  1.43  0.03  0.06  0.04
   22 H    1     0.87   0.73  0.25  0.06  0.06 -0.24
   23 C    6     6.37   2.01  0.66  0.21  0.00  1.99  1.15  0.08  0.14  0.12
   24 H    1     1.08   0.78  0.26 -0.01  0.03  0.02
   25 C    6     5.94   2.01  0.66  0.41 -0.01  2.03  0.62  0.04  0.09  0.09
   26 H    1     0.98   0.78  0.27 -0.03  0.03 -0.07
   27 H    1     1.03   0.78  0.30 -0.00  0.03 -0.08
   28 C    6     6.12   2.01  0.66  0.45 -0.08  2.05  0.82  0.04  0.09  0.10
   29 H    1     0.90   0.78  0.19 -0.01  0.03 -0.09
   30 H    1     0.86   0.77  0.15 -0.02  0.03 -0.07
   31 C    6     4.84   2.01  0.68  0.11  0.13  1.89 -0.02 -0.11  0.24 -0.11
   32 O    8     8.78   2.01  0.81  1.00  0.12  2.81  1.87  0.15  0.02 -0.01
   33 N    7     7.37   2.01  0.72  0.87 -0.09  2.47  1.28  0.08  0.04 -0.01
   34 H    1     0.96   0.76  0.18 -0.00  0.05 -0.04
   35 H    1     0.97   0.75  0.21 -0.01  0.06 -0.03
   36 C    6     4.44   2.01  0.68  0.08 -0.05  1.89 -0.24 -0.02  0.24 -0.15
   37 O    8     8.86   2.01  0.82  1.04  0.21  2.79  1.84  0.15  0.01 -0.00
   38 N    7     7.15   2.01  0.72  0.81 -0.21  2.46  1.23  0.12  0.04 -0.02
   39 H    1     0.89   0.73  0.25 -0.01  0.06 -0.14
   40 H    1     1.03   0.76  0.25 -0.00  0.05 -0.03

       Multipole analysis of the density wrt the origin
       ------------------------------------------------

     L   x y z        total         open         nuclear
     -   - - -        -----         ----         -------
     0   0 0 0     -0.000000      0.000000    160.000000

     1   1 0 0      3.526078      0.000000     -0.000000
     1   0 1 0      1.381516      0.000000     -0.000000
     1   0 0 1      0.016575      0.000000      0.000000

     2   2 0 0    -88.017018      0.000000   1714.220163
     2   1 1 0     17.491392      0.000000     28.809907
     2   1 0 1      7.205914      0.000000      0.614685
     2   0 2 0   -117.366462      0.000000   3080.870357
     2   0 1 1      6.672765      0.000000     16.623511
     2   0 0 2    -86.928340      0.000000   1313.151604


 Task  times  cpu:     6096.1s     wall:     6117.0s


                                NWChem Input Module
                                -------------------


 Summary of allocated global arrays
-----------------------------------
  No active global arrays


MA_summarize_allocated_blocks: starting scan ...
MA_summarize_allocated_blocks: scan completed: 0 heap blocks, 0 stack blocks
MA usage statistics:

	allocation statistics:
					      heap	     stack
					      ----	     -----
	current number of blocks	         0	         0
	maximum number of blocks	        16	        14
	current total bytes		         0	         0
	maximum total bytes		    148488	  31456168
	maximum total K-bytes		       149	     31457
	maximum total M-bytes		         1	        32


                                     CITATION
                                     --------
                Please cite the following reference when publishing
                           results obtained with NWChem:

          E. Apra, E. J. Bylaska, W. A. de Jong, N. Govind, K. Kowalski,
       T. P. Straatsma, M. Valiev, H. J. J. van Dam, Y. Alexeev, J. Anchell,
       V. Anisimov, F. W. Aquino, R. Atta-Fynn, J. Autschbach, N. P. Bauman,
     J. C. Becca, D. E. Bernholdt, K. Bhaskaran-Nair, S. Bogatko, P. Borowski,
         J. Boschen, J. Brabec, A. Bruner, E. Cauet, Y. Chen, G. N. Chuev,
      C. J. Cramer, J. Daily, M. J. O. Deegan, T. H. Dunning Jr., M. Dupuis,
   K. G. Dyall, G. I. Fann, S. A. Fischer, A. Fonari, H. Fruchtl, L. Gagliardi,
      J. Garza, N. Gawande, S. Ghosh, K. Glaesemann, A. W. Gotz, J. Hammond,
       V. Helms, E. D. Hermes, K. Hirao, S. Hirata, M. Jacquelin, L. Jensen,
   B. G. Johnson, H. Jonsson, R. A. Kendall, M. Klemm, R. Kobayashi, V. Konkov,
      S. Krishnamoorthy, M. Krishnan, Z. Lin, R. D. Lins, R. J. Littlefield,
      A. J. Logsdail, K. Lopata, W. Ma, A. V. Marenich, J. Martin del Campo,
   D. Mejia-Rodriguez, J. E. Moore, J. M. Mullin, T. Nakajima, D. R. Nascimento,
    J. A. Nichols, P. J. Nichols, J. Nieplocha, A. Otero-de-la-Roza, B. Palmer,
    A. Panyala, T. Pirojsirikul, B. Peng, R. Peverati, J. Pittner, L. Pollack,
   R. M. Richard, P. Sadayappan, G. C. Schatz, W. A. Shelton, D. W. Silverstein,
   D. M. A. Smith, T. A. Soares, D. Song, M. Swart, H. L. Taylor, G. S. Thomas,
            V. Tipparaju, D. G. Truhlar, K. Tsemekhman, T. Van Voorhis,
      A. Vazquez-Mayagoitia, P. Verma, O. Villa, A. Vishnu, K. D. Vogiatzis,
        D. Wang, J. H. Weare, M. J. Williamson, T. L. Windus, K. Wolinski,
        A. T. Wong, Q. Wu, C. Yang, Q. Yu, M. Zacharias, Z. Zhang, Y. Zhao,
                                and R. J. Harrison
                        "NWChem: Past, present, and future
                         J. Chem. Phys. 152, 184102 (2020)
                               doi:10.1063/5.0004997

                                      AUTHORS
                                      -------
  E. Apra, E. J. Bylaska, N. Govind, K. Kowalski, M. Valiev, D. Mejia-Rodriguez,
       A. Kunitsa, N. P. Bauman, A. Panyala, W. A. de Jong, T. P. Straatsma,
   H. J. J. van Dam, D. Wang, T. L. Windus, J. Hammond, J. Autschbach, A. Woods,
    K. Bhaskaran-Nair, J. Brabec, K. Lopata, S. A. Fischer, S. Krishnamoorthy,
     M. Jacquelin, W. Ma, M. Klemm, O. Villa, Y. Chen, V. Anisimov, F. Aquino,
     S. Hirata, M. T. Hackler, E. Hermes, L. Jensen, J. E. Moore, J. C. Becca,
      V. Konjkov, T. Risthaus, M. Malagoli, A. Marenich, A. Otero-de-la-Roza,
        J. Mullin, P. Nichols, R. Peverati, J. Pittner, Y. Zhao, P.-D. Fan,
        A. Fonari, M. J. Williamson, R. J. Harrison, J. R. Rehr, M. Dupuis,
     D. Silverstein, D. M. A. Smith, J. Nieplocha, V. Tipparaju, M. Krishnan,
     B. E. Van Kuiken, A. Vazquez-Mayagoitia, M. Swart, Q. Wu, T. Van Voorhis,
     A. A. Auer, M. Nooijen, L. D. Crosby, E. Brown, G. Cisneros, G. I. Fann,
   H. Fruchtl, J. Garza, K. Hirao, R. A. Kendall, J. A. Nichols, K. Tsemekhman,
    K. Wolinski, J. Anchell, D. E. Bernholdt, P. Borowski, T. Clark, D. Clerc,
   H. Dachsel, M. J. O. Deegan, K. Dyall, D. Elwood, E. Glendening, M. Gutowski,
   A. C. Hess, J. Jaffe, B. G. Johnson, J. Ju, R. Kobayashi, R. Kutteh, Z. Lin,
   R. Littlefield, X. Long, B. Meng, T. Nakajima, S. Niu, L. Pollack, M. Rosing,
   K. Glaesemann, G. Sandrone, M. Stave, H. Taylor, G. Thomas, J. H. van Lenthe,
                               A. T. Wong, Z. Zhang.

 Total times  cpu:     6096.1s     wall:     6117.5s
