export TMOUT=5400
export TMPDIR=/tmp
export PTMPDIR=/tmp/ptmp
 argument  1 = inputs/ASN_ASN_2.nw



============================== echo of input deck ==============================
start ASN_ASN_2
geometry
H         12.96200       16.95100       -8.99700
C         11.95100       16.59800       -8.79300
H         11.25800       17.43700       -8.82800
H         11.91900       16.13000       -7.81200
C         11.56500       15.58500       -9.84400
O         12.35000       15.28600      -10.73500
N         10.34900       15.05300       -9.74600
H          9.73600       15.36700       -9.00700
C          9.79700       14.08700      -10.69700
H         10.17100       14.33600      -11.69200
C         10.30100       12.67800      -10.32200
H         11.39100       12.65400      -10.35200
H          9.97300       12.42700       -9.31300
C          9.76500       11.63100      -11.27500
O          8.85400       10.89200      -10.95700
N         10.19700       11.64800      -12.51300
H          9.68300       11.08400      -13.17700
H         10.95800       12.24200      -12.78900
C          8.25700       14.17300      -10.75700
O          7.62000       14.68400       -9.83900
N          7.66200       13.66100      -11.83800
H          8.24500       13.20700      -12.53100
C          6.21600       13.61200      -12.07600
H          5.79300       14.58900      -11.83800
C          6.00700       13.33300      -13.57500
H          4.94400       13.38400      -13.81000
H          6.51800       14.09200      -14.16600
C          6.54500       11.96900      -13.97000
O          7.72300       11.80100      -14.24200
N          5.71800       10.95100      -13.95900
H          4.77200       11.07600      -13.63900
H          6.10400       10.05000      -14.17700
C          5.44300       12.57700      -11.22200
O          4.23100       12.45800      -11.36500
N          6.09200       11.76900      -10.39500
H          5.56300       11.09800       -9.86600
H          7.10200       11.77800      -10.35700
end

basis
 * library aug-cc-pvdz
end

echo

scf
 direct
end

task scf energy
================================================================================


                                         
                                         


             Northwest Computational Chemistry Package (NWChem) 7.2.0
             --------------------------------------------------------


                    Environmental Molecular Sciences Laboratory
                       Pacific Northwest National Laboratory
                                Richland, WA 99352

                              Copyright (c) 1994-2022
                       Pacific Northwest National Laboratory
                            Battelle Memorial Institute

             NWChem is an open-source computational chemistry package
                        distributed under the terms of the
                      Educational Community License (ECL) 2.0
             A copy of the license is included with this distribution
                              in the LICENSE.TXT file

                                  ACKNOWLEDGMENT
                                  --------------

            This software and its documentation were developed at the
            EMSL at Pacific Northwest National Laboratory, a multiprogram
            national laboratory, operated for the U.S. Department of Energy
            by Battelle under Contract Number DE-AC05-76RL01830. Support
            for this work was provided by the Department of Energy Office
            of Biological and Environmental Research, Office of Basic
            Energy Sciences, and the Office of Advanced Scientific Computing.


           Job information
           ---------------

    hostname        = nova21-swift-3
    program         = /opt/rit/el9/20230413/app/linux-rhel9-x86_64_v3/gcc-11.2.1/nwchem-7.2.0-oxtctbuhfuzyfaoziquq6bki22grib3g/bin/nwchem
    date            = Thu Jul 10 02:32:24 2025

    compiled        = Wed_May_17_23:46:39_2023
    source          = /tmp/root/spack-stage/spack-stage-nwchem-7.2.0-oxtctbuhfuzyfaoziquq6bki22grib3g/spack-src
    nwchem branch   = 7.2.0
    nwchem revision = d0d141fd
    ga revision     = 5.8.0
    use scalapack   = T
    input           = inputs/ASN_ASN_2.nw
    prefix          = ASN_ASN_2.
    data base       = ./ASN_ASN_2.db
    status          = startup
    nproc           =        8
    time left       =     -1s



           Memory information
           ------------------

    heap     =   26214398 doubles =    200.0 Mbytes
    stack    =   26214395 doubles =    200.0 Mbytes
    global   =   52428800 doubles =    400.0 Mbytes (distinct from heap & stack)
    total    =  104857593 doubles =    800.0 Mbytes
    verify   = yes
    hardfail = no 


           Directory information
           ---------------------

  0 permanent = .
  0 scratch   = .




                                NWChem Input Module
                                -------------------



 Scaling coordinates for geometry "geometry" by  1.889725989
 (inverse scale =  0.529177249)

 C1  symmetry detected

          ------
          auto-z
          ------
  no constraints, skipping    0.0000000000000000     
  no constraints, skipping    0.0000000000000000     


                             Geometry "geometry" -> ""
                             -------------------------

 Output coordinates in angstroms (scale by  1.889725989 to convert to a.u.)

  No.       Tag          Charge          X              Y              Z
 ---- ---------------- ---------- -------------- -------------- --------------
    1 H                    1.0000    -0.56511519    -6.34475113     0.73371559
    2 C                    6.0000    -1.10193585    -5.47432042     0.35619743
    3 H                    1.0000    -1.98964411    -5.30231148     0.96264774
    4 H                    1.0000    -1.38623397    -5.64213272    -0.67986367
    5 C                    6.0000    -0.19748843    -4.26808515     0.43827867
    6 O                    8.0000     0.94108474    -4.37535697     0.87605818
    7 N                    7.0000    -0.70244154    -3.11040078     0.01866784
    8 H                    1.0000    -1.66066657    -3.08166923    -0.29986833
    9 C                    6.0000     0.01826225    -1.83721911     0.06174322
   10 H                    1.0000     0.64671887    -1.83103090     0.95443912
   11 C                    6.0000     0.92881418    -1.74021620    -1.17979116
   12 H                    1.0000     1.63479488    -2.57154391    -1.18763237
   13 H                    1.0000     0.32245837    -1.78738688    -2.08465224
   14 C                    6.0000     1.70655273    -0.44147927    -1.19070620
   15 O                    8.0000     1.38947252     0.48069566    -1.91611611
   16 N                    7.0000     2.63420338    -0.27289932    -0.27933246
   17 H                    1.0000     2.99486886     0.66606579    -0.17231408
   18 H                    1.0000     2.91792832    -1.02819212     0.31830116
   19 C                    6.0000    -0.95342365    -0.64404336     0.18320990
   20 O                    8.0000    -2.13526114    -0.76162959    -0.13150842
   21 N                    7.0000    -0.44709418     0.50805972     0.63156126
   22 H                    1.0000     0.54720717     0.54813240     0.82133222
   23 C                    6.0000    -1.18751940     1.76370944     0.78991295
   24 H                    1.0000    -2.13376853     1.54685386     1.28759584
   25 C                    6.0000    -0.34816130     2.67982669     1.69805951
   26 H                    1.0000    -0.90946072     3.58783804     1.91772599
   27 H                    1.0000    -0.14296308     2.17576957     2.64161826
   28 C                    6.0000     0.97422115     3.04990225     1.04974343
   29 O                    8.0000     1.94745759     2.31652971     1.11951117
   30 N                    7.0000     1.03377321     4.16233871     0.35741933
   31 H                    1.0000     0.20292851     4.71357052     0.22037347
   32 H                    1.0000     1.90307067     4.36491853    -0.10258540
   33 C                    6.0000    -1.54059150     2.49079371    -0.53098014
   34 O                    8.0000    -2.14745274     3.55559835    -0.49271098
   35 N                    7.0000    -1.12599877     2.00942871    -1.69476474
   36 H                    1.0000    -1.35884759     2.51291246    -2.53274359
   37 H                    1.0000    -0.52515940     1.19735916    -1.72882474

      Atomic Mass 
      ----------- 

      H                  1.007825
      C                 12.000000
      O                 15.994910
      N                 14.003070


 Effective nuclear repulsion energy (a.u.)    1712.8659734217

            Nuclear Dipole moment (a.u.) 
            ----------------------------
        X                 Y               Z
 ---------------- ---------------- ----------------
    -0.0000000000    -0.0000000000     0.0000000000



                                Z-matrix (autoz)
                                -------- 

 Units are Angstrom for bonds and degrees for angles

      Type          Name      I     J     K     L     M      Value
      ----------- --------  ----- ----- ----- ----- ----- ----------
    1 Stretch                  1     2                       1.09011
    2 Stretch                  2     3                       1.08876
    3 Stretch                  2     4                       1.08739
    4 Stretch                  2     5                       1.50989
    5 Stretch                  5     6                       1.22454
    6 Stretch                  5     7                       1.33090
    7 Stretch                  7     8                       1.01019
    8 Stretch                  7     9                       1.46365
    9 Stretch                  9    10                       1.09174
   10 Stretch                  9    11                       1.54270
   11 Stretch                  9    19                       1.54357
   12 Stretch                 11    12                       1.09068
   13 Stretch                 11    13                       1.09026
   14 Stretch                 11    14                       1.51384
   15 Stretch                 14    15                       1.21539
   16 Stretch                 14    16                       1.31132
   17 Stretch                 16    17                       1.01153
   18 Stretch                 16    18                       1.00406
   19 Stretch                 19    20                       1.22866
   20 Stretch                 19    21                       1.33594
   21 Stretch                 21    22                       1.01304
   22 Stretch                 21    23                       1.46627
   23 Stretch                 23    24                       1.09092
   24 Stretch                 23    25                       1.53900
   25 Stretch                 23    33                       1.54857
   26 Stretch                 25    26                       1.08986
   27 Stretch                 25    27                       1.08926
   28 Stretch                 25    28                       1.51854
   29 Stretch                 28    29                       1.22061
   30 Stretch                 28    30                       1.31163
   31 Stretch                 30    31                       1.00645
   32 Stretch                 30    32                       1.00415
   33 Stretch                 33    34                       1.22619
   34 Stretch                 33    35                       1.32589
   35 Stretch                 35    36                       1.00495
   36 Stretch                 35    37                       1.01075
   37 Bend                     1     2     3               109.55792
   38 Bend                     1     2     4               109.60228
   39 Bend                     1     2     5               108.91027
   40 Bend                     2     5     6               120.42513
   41 Bend                     2     5     7               116.77614
   42 Bend                     3     2     4               109.99449
   43 Bend                     3     2     5               109.38458
   44 Bend                     4     2     5               109.37195
   45 Bend                     5     7     8               118.95008
   46 Bend                     5     7     9               124.09442
   47 Bend                     6     5     7               122.79860
   48 Bend                     7     9    10               108.20661
   49 Bend                     7     9    11               108.76236
   50 Bend                     7     9    19               111.39242
   51 Bend                     8     7     9               116.84717
   52 Bend                     9    11    12               109.87132
   53 Bend                     9    11    13               109.69085
   54 Bend                     9    11    14               111.28332
   55 Bend                     9    19    20               120.75586
   56 Bend                     9    19    21               117.02964
   57 Bend                    10     9    11               108.53787
   58 Bend                    10     9    19               107.07638
   59 Bend                    11     9    19               112.72326
   60 Bend                    11    14    15               121.41343
   61 Bend                    11    14    16               117.95104
   62 Bend                    12    11    13               108.72637
   63 Bend                    12    11    14               108.74229
   64 Bend                    13    11    14               108.47318
   65 Bend                    14    16    17               116.42972
   66 Bend                    14    16    18               121.12284
   67 Bend                    15    14    16               120.12125
   68 Bend                    17    16    18               122.31337
   69 Bend                    19    21    22               117.96795
   70 Bend                    19    21    23               125.68795
   71 Bend                    20    19    21               122.21247
   72 Bend                    21    23    24               108.48433
   73 Bend                    21    23    25               107.34233
   74 Bend                    21    23    33               115.15634
   75 Bend                    22    21    23               116.20113
   76 Bend                    23    25    26               109.51125
   77 Bend                    23    25    27               109.78181
   78 Bend                    23    25    28               111.59734
   79 Bend                    23    33    34               119.59993
   80 Bend                    23    33    35               120.45995
   81 Bend                    24    23    25               108.79562
   82 Bend                    24    23    33               106.54100
   83 Bend                    25    23    33               110.37665
   84 Bend                    25    28    29               121.56818
   85 Bend                    25    28    30               118.13707
   86 Bend                    26    25    27               107.93673
   87 Bend                    26    25    28               109.35990
   88 Bend                    27    25    28               108.57544
   89 Bend                    28    30    31               119.92821
   90 Bend                    28    30    32               116.88571
   91 Bend                    29    28    30               120.23494
   92 Bend                    31    30    32               122.80508
   93 Bend                    33    35    36               118.52628
   94 Bend                    33    35    37               120.47345
   95 Bend                    34    33    35               119.82903
   96 Bend                    36    35    37               120.80760
   97 Torsion                  1     2     5     6           0.12559
   98 Torsion                  1     2     5     7        -179.74477
   99 Torsion                  2     5     7     8           2.10417
  100 Torsion                  2     5     7     9         178.19494
  101 Torsion                  3     2     5     6         119.83887
  102 Torsion                  3     2     5     7         -60.03149
  103 Torsion                  4     2     5     6        -119.63412
  104 Torsion                  4     2     5     7          60.49552
  105 Torsion                  5     7     9    10         -34.74160
  106 Torsion                  5     7     9    11          82.98156
  107 Torsion                  5     7     9    19        -152.18318
  108 Torsion                  6     5     7     8        -177.76284
  109 Torsion                  6     5     7     9          -1.67208
  110 Torsion                  7     9    11    12         -59.35902
  111 Torsion                  7     9    11    13          60.10796
  112 Torsion                  7     9    11    14        -179.85356
  113 Torsion                  7     9    19    20         -20.19614
  114 Torsion                  7     9    19    21         160.31043
  115 Torsion                  8     7     9    10         141.42452
  116 Torsion                  8     7     9    11        -100.85232
  117 Torsion                  8     7     9    19          23.98294
  118 Torsion                  9    11    14    15        -103.44310
  119 Torsion                  9    11    14    16          68.33763
  120 Torsion                  9    19    21    22           2.98547
  121 Torsion                  9    19    21    23         178.45880
  122 Torsion                 10     9    11    12          58.15385
  123 Torsion                 10     9    11    13         177.62084
  124 Torsion                 10     9    11    14         -62.34069
  125 Torsion                 10     9    19    20        -138.31996
  126 Torsion                 10     9    19    21          42.18661
  127 Torsion                 11     9    19    20         102.39015
  128 Torsion                 11     9    19    21         -77.10328
  129 Torsion                 11    14    16    17        -166.81151
  130 Torsion                 11    14    16    18           9.07365
  131 Torsion                 12    11     9    19         176.59207
  132 Torsion                 12    11    14    15         135.39952
  133 Torsion                 12    11    14    16         -52.81975
  134 Torsion                 13    11     9    19         -63.94094
  135 Torsion                 13    11    14    15          17.31343
  136 Torsion                 13    11    14    16        -170.90584
  137 Torsion                 14    11     9    19          56.09753
  138 Torsion                 15    14    16    17           5.07959
  139 Torsion                 15    14    16    18        -179.03525
  140 Torsion                 19    21    23    24          46.31716
  141 Torsion                 19    21    23    25         163.72294
  142 Torsion                 19    21    23    33         -72.93397
  143 Torsion                 20    19    21    22        -176.50001
  144 Torsion                 20    19    21    23          -1.02668
  145 Torsion                 21    23    25    26        -174.60879
  146 Torsion                 21    23    25    27         -56.27147
  147 Torsion                 21    23    25    28          64.15775
  148 Torsion                 21    23    33    34        -179.26331
  149 Torsion                 21    23    33    35          -3.10153
  150 Torsion                 22    21    23    24        -138.13853
  151 Torsion                 22    21    23    25         -20.73275
  152 Torsion                 22    21    23    33         102.61034
  153 Torsion                 23    25    28    29         -84.07631
  154 Torsion                 23    25    28    30          93.11669
  155 Torsion                 23    33    35    36        -178.99754
  156 Torsion                 23    33    35    37          -4.00081
  157 Torsion                 24    23    25    26         -57.40641
  158 Torsion                 24    23    25    27          60.93090
  159 Torsion                 24    23    25    28        -178.63988
  160 Torsion                 24    23    33    34          60.41420
  161 Torsion                 24    23    33    35        -123.42401
  162 Torsion                 25    23    33    34         -57.54554
  163 Torsion                 25    23    33    35         118.61625
  164 Torsion                 25    28    30    31          -3.80052
  165 Torsion                 25    28    30    32        -176.91365
  166 Torsion                 26    25    23    33          59.15957
  167 Torsion                 26    25    28    29         154.60232
  168 Torsion                 26    25    28    30         -28.20468
  169 Torsion                 27    25    23    33         177.49689
  170 Torsion                 27    25    28    29          37.05733
  171 Torsion                 27    25    28    30        -145.74967
  172 Torsion                 28    25    23    33         -62.07389
  173 Torsion                 29    28    30    31         173.43134
  174 Torsion                 29    28    30    32           0.31821
  175 Torsion                 34    33    35    36          -2.84454
  176 Torsion                 34    33    35    37         172.15219


            XYZ format geometry
            -------------------
    37
 geometry
 H                    -0.56511519    -6.34475113     0.73371559
 C                    -1.10193585    -5.47432042     0.35619743
 H                    -1.98964411    -5.30231148     0.96264774
 H                    -1.38623397    -5.64213272    -0.67986367
 C                    -0.19748843    -4.26808515     0.43827867
 O                     0.94108474    -4.37535697     0.87605818
 N                    -0.70244154    -3.11040078     0.01866784
 H                    -1.66066657    -3.08166923    -0.29986833
 C                     0.01826225    -1.83721911     0.06174322
 H                     0.64671887    -1.83103090     0.95443912
 C                     0.92881418    -1.74021620    -1.17979116
 H                     1.63479488    -2.57154391    -1.18763237
 H                     0.32245837    -1.78738688    -2.08465224
 C                     1.70655273    -0.44147927    -1.19070620
 O                     1.38947252     0.48069566    -1.91611611
 N                     2.63420338    -0.27289932    -0.27933246
 H                     2.99486886     0.66606579    -0.17231408
 H                     2.91792832    -1.02819212     0.31830116
 C                    -0.95342365    -0.64404336     0.18320990
 O                    -2.13526114    -0.76162959    -0.13150842
 N                    -0.44709418     0.50805972     0.63156126
 H                     0.54720717     0.54813240     0.82133222
 C                    -1.18751940     1.76370944     0.78991295
 H                    -2.13376853     1.54685386     1.28759584
 C                    -0.34816130     2.67982669     1.69805951
 H                    -0.90946072     3.58783804     1.91772599
 H                    -0.14296308     2.17576957     2.64161826
 C                     0.97422115     3.04990225     1.04974343
 O                     1.94745759     2.31652971     1.11951117
 N                     1.03377321     4.16233871     0.35741933
 H                     0.20292851     4.71357052     0.22037347
 H                     1.90307067     4.36491853    -0.10258540
 C                    -1.54059150     2.49079371    -0.53098014
 O                    -2.14745274     3.55559835    -0.49271098
 N                    -1.12599877     2.00942871    -1.69476474
 H                    -1.35884759     2.51291246    -2.53274359
 H                    -0.52515940     1.19735916    -1.72882474

 ==============================================================================
                                internuclear distances
 ------------------------------------------------------------------------------
       center one      |      center two      | atomic units |  angstroms
 ------------------------------------------------------------------------------
    2 C                |   1 H                |     2.06001  |     1.09011
    3 H                |   2 C                |     2.05746  |     1.08876
    4 H                |   2 C                |     2.05486  |     1.08739
    5 C                |   2 C                |     2.85328  |     1.50989
    6 O                |   5 C                |     2.31405  |     1.22454
    7 N                |   5 C                |     2.51503  |     1.33090
    8 H                |   7 N                |     1.90898  |     1.01019
    9 C                |   7 N                |     2.76589  |     1.46365
   10 H                |   9 C                |     2.06309  |     1.09174
   11 C                |   9 C                |     2.91528  |     1.54270
   12 H                |  11 C                |     2.06108  |     1.09068
   13 H                |  11 C                |     2.06029  |     1.09026
   14 C                |  11 C                |     2.86074  |     1.51384
   15 O                |  14 C                |     2.29675  |     1.21539
   16 N                |  14 C                |     2.47803  |     1.31132
   17 H                |  16 N                |     1.91151  |     1.01153
   18 H                |  16 N                |     1.89739  |     1.00406
   19 C                |   9 C                |     2.91692  |     1.54357
   20 O                |  19 C                |     2.32184  |     1.22866
   21 N                |  19 C                |     2.52456  |     1.33594
   22 H                |  21 N                |     1.91437  |     1.01304
   23 C                |  21 N                |     2.77086  |     1.46627
   24 H                |  23 C                |     2.06154  |     1.09092
   25 C                |  23 C                |     2.90829  |     1.53900
   26 H                |  25 C                |     2.05954  |     1.08986
   27 H                |  25 C                |     2.05840  |     1.08926
   28 C                |  25 C                |     2.86963  |     1.51854
   29 O                |  28 C                |     2.30662  |     1.22061
   30 N                |  28 C                |     2.47862  |     1.31163
   31 H                |  30 N                |     1.90191  |     1.00645
   32 H                |  30 N                |     1.89757  |     1.00415
   33 C                |  23 C                |     2.92637  |     1.54857
   34 O                |  33 C                |     2.31717  |     1.22619
   35 N                |  33 C                |     2.50558  |     1.32589
   36 H                |  35 N                |     1.89908  |     1.00495
   37 H                |  35 N                |     1.91005  |     1.01075
 ------------------------------------------------------------------------------
                         number of included internuclear distances:         36
 ==============================================================================



 ==============================================================================
                                 internuclear angles
 ------------------------------------------------------------------------------
        center 1       |       center 2       |       center 3       |  degrees
 ------------------------------------------------------------------------------
    1 H                |   2 C                |   3 H                |   109.56
    1 H                |   2 C                |   4 H                |   109.60
    1 H                |   2 C                |   5 C                |   108.91
    3 H                |   2 C                |   4 H                |   109.99
    3 H                |   2 C                |   5 C                |   109.38
    4 H                |   2 C                |   5 C                |   109.37
    2 C                |   5 C                |   6 O                |   120.43
    2 C                |   5 C                |   7 N                |   116.78
    6 O                |   5 C                |   7 N                |   122.80
    5 C                |   7 N                |   8 H                |   118.95
    5 C                |   7 N                |   9 C                |   124.09
    8 H                |   7 N                |   9 C                |   116.85
    7 N                |   9 C                |  10 H                |   108.21
    7 N                |   9 C                |  11 C                |   108.76
    7 N                |   9 C                |  19 C                |   111.39
   10 H                |   9 C                |  11 C                |   108.54
   10 H                |   9 C                |  19 C                |   107.08
   11 C                |   9 C                |  19 C                |   112.72
    9 C                |  11 C                |  12 H                |   109.87
    9 C                |  11 C                |  13 H                |   109.69
    9 C                |  11 C                |  14 C                |   111.28
   12 H                |  11 C                |  13 H                |   108.73
   12 H                |  11 C                |  14 C                |   108.74
   13 H                |  11 C                |  14 C                |   108.47
   11 C                |  14 C                |  15 O                |   121.41
   11 C                |  14 C                |  16 N                |   117.95
   15 O                |  14 C                |  16 N                |   120.12
   14 C                |  16 N                |  17 H                |   116.43
   14 C                |  16 N                |  18 H                |   121.12
   17 H                |  16 N                |  18 H                |   122.31
    9 C                |  19 C                |  20 O                |   120.76
    9 C                |  19 C                |  21 N                |   117.03
   20 O                |  19 C                |  21 N                |   122.21
   19 C                |  21 N                |  22 H                |   117.97
   19 C                |  21 N                |  23 C                |   125.69
   22 H                |  21 N                |  23 C                |   116.20
   21 N                |  23 C                |  24 H                |   108.48
   21 N                |  23 C                |  25 C                |   107.34
   21 N                |  23 C                |  33 C                |   115.16
   24 H                |  23 C                |  25 C                |   108.80
   24 H                |  23 C                |  33 C                |   106.54
   25 C                |  23 C                |  33 C                |   110.38
   23 C                |  25 C                |  26 H                |   109.51
   23 C                |  25 C                |  27 H                |   109.78
   23 C                |  25 C                |  28 C                |   111.60
   26 H                |  25 C                |  27 H                |   107.94
   26 H                |  25 C                |  28 C                |   109.36
   27 H                |  25 C                |  28 C                |   108.58
   25 C                |  28 C                |  29 O                |   121.57
   25 C                |  28 C                |  30 N                |   118.14
   29 O                |  28 C                |  30 N                |   120.23
   28 C                |  30 N                |  31 H                |   119.93
   28 C                |  30 N                |  32 H                |   116.89
   31 H                |  30 N                |  32 H                |   122.81
   23 C                |  33 C                |  34 O                |   119.60
   23 C                |  33 C                |  35 N                |   120.46
   34 O                |  33 C                |  35 N                |   119.83
   33 C                |  35 N                |  36 H                |   118.53
   33 C                |  35 N                |  37 H                |   120.47
   36 H                |  35 N                |  37 H                |   120.81
 ------------------------------------------------------------------------------
                            number of included internuclear angles:         60
 ==============================================================================



  library name resolved from: environment
  library file name is: </opt/rit/el9/20230413/app/linux-rhel9-x86_64_v3/gcc-11.2.1/nwchem-7.2.0-oxtctbuhfuzyfaoziquq6bki22grib3g/share/nwchem/libraries/>
  


 Summary of "ao basis" -> "" (cartesian)
 ------------------------------------------------------------------------------
       Tag                 Description            Shells   Functions and Types
 ---------------- ------------------------------  ------  ---------------------
 *                        aug-cc-pvdz                 on all atoms 


                      Basis "ao basis" -> "ao basis" (cartesian)
                      -----
  H (Hydrogen)
  ------------
            Exponent  Coefficients 
       -------------- ---------------------------------------------------------
  1 S  1.30100000E+01  0.019685
  1 S  1.96200000E+00  0.137977
  1 S  4.44600000E-01  0.478148

  2 S  1.22000000E-01  1.000000

  3 S  2.97400000E-02  1.000000

  4 P  7.27000000E-01  1.000000

  5 P  1.41000000E-01  1.000000

  C (Carbon)
  ----------
            Exponent  Coefficients 
       -------------- ---------------------------------------------------------
  1 S  6.66500000E+03  0.000692
  1 S  1.00000000E+03  0.005329
  1 S  2.28000000E+02  0.027077
  1 S  6.47100000E+01  0.101718
  1 S  2.10600000E+01  0.274740
  1 S  7.49500000E+00  0.448564
  1 S  2.79700000E+00  0.285074
  1 S  5.21500000E-01  0.015204

  2 S  6.66500000E+03 -0.000146
  2 S  1.00000000E+03 -0.001154
  2 S  2.28000000E+02 -0.005725
  2 S  6.47100000E+01 -0.023312
  2 S  2.10600000E+01 -0.063955
  2 S  7.49500000E+00 -0.149981
  2 S  2.79700000E+00 -0.127262
  2 S  5.21500000E-01  0.544529

  3 S  1.59600000E-01  1.000000

  4 S  4.69000000E-02  1.000000

  5 P  9.43900000E+00  0.038109
  5 P  2.00200000E+00  0.209480
  5 P  5.45600000E-01  0.508557

  6 P  1.51700000E-01  1.000000

  7 P  4.04100000E-02  1.000000

  8 D  5.50000000E-01  1.000000

  9 D  1.51000000E-01  1.000000

  O (Oxygen)
  ----------
            Exponent  Coefficients 
       -------------- ---------------------------------------------------------
  1 S  1.17200000E+04  0.000710
  1 S  1.75900000E+03  0.005470
  1 S  4.00800000E+02  0.027837
  1 S  1.13700000E+02  0.104800
  1 S  3.70300000E+01  0.283062
  1 S  1.32700000E+01  0.448719
  1 S  5.02500000E+00  0.270952
  1 S  1.01300000E+00  0.015458

  2 S  1.17200000E+04 -0.000160
  2 S  1.75900000E+03 -0.001263
  2 S  4.00800000E+02 -0.006267
  2 S  1.13700000E+02 -0.025716
  2 S  3.70300000E+01 -0.070924
  2 S  1.32700000E+01 -0.165411
  2 S  5.02500000E+00 -0.116955
  2 S  1.01300000E+00  0.557368

  3 S  3.02300000E-01  1.000000

  4 S  7.89600000E-02  1.000000

  5 P  1.77000000E+01  0.043018
  5 P  3.85400000E+00  0.228913
  5 P  1.04600000E+00  0.508728

  6 P  2.75300000E-01  1.000000

  7 P  6.85600000E-02  1.000000

  8 D  1.18500000E+00  1.000000

  9 D  3.32000000E-01  1.000000

  N (Nitrogen)
  ------------
            Exponent  Coefficients 
       -------------- ---------------------------------------------------------
  1 S  9.04600000E+03  0.000700
  1 S  1.35700000E+03  0.005389
  1 S  3.09300000E+02  0.027406
  1 S  8.77300000E+01  0.103207
  1 S  2.85600000E+01  0.278723
  1 S  1.02100000E+01  0.448540
  1 S  3.83800000E+00  0.278238
  1 S  7.46600000E-01  0.015440

  2 S  9.04600000E+03 -0.000153
  2 S  1.35700000E+03 -0.001208
  2 S  3.09300000E+02 -0.005992
  2 S  8.77300000E+01 -0.024544
  2 S  2.85600000E+01 -0.067459
  2 S  1.02100000E+01 -0.158078
  2 S  3.83800000E+00 -0.121831
  2 S  7.46600000E-01  0.549003

  3 S  2.24800000E-01  1.000000

  4 S  6.12400000E-02  1.000000

  5 P  1.35500000E+01  0.039919
  5 P  2.91700000E+00  0.217169
  5 P  7.97300000E-01  0.510319

  6 P  2.18500000E-01  1.000000

  7 P  5.61100000E-02  1.000000

  8 D  8.17000000E-01  1.000000

  9 D  2.30000000E-01  1.000000



 Summary of "ao basis" -> "ao basis" (cartesian)
 ------------------------------------------------------------------------------
       Tag                 Description            Shells   Functions and Types
 ---------------- ------------------------------  ------  ---------------------
 H                        aug-cc-pvdz                5        9   3s2p
 C                        aug-cc-pvdz                9       25   4s3p2d
 O                        aug-cc-pvdz                9       25   4s3p2d
 N                        aug-cc-pvdz                9       25   4s3p2d


                                 NWChem SCF Module
                                 -----------------



  ao basis        = "ao basis"
  functions       =   653
  atoms           =    37
  closed shells   =    76
  open shells     =     0
  charge          =   0.00
  wavefunction    = RHF 
  input vectors   = atomic
  output vectors  = ./ASN_ASN_2.movecs
  use symmetry    = F
  symmetry adapt  = F


 Summary of "ao basis" -> "ao basis" (cartesian)
 ------------------------------------------------------------------------------
       Tag                 Description            Shells   Functions and Types
 ---------------- ------------------------------  ------  ---------------------
 H                        aug-cc-pvdz                5        9   3s2p
 C                        aug-cc-pvdz                9       25   4s3p2d
 O                        aug-cc-pvdz                9       25   4s3p2d
 N                        aug-cc-pvdz                9       25   4s3p2d



 Forming initial guess at       0.8s


 !! The overlap matrix has   5 vectors deemed linearly dependent with
    eigenvalues:
 2.27D-06 3.91D-06 4.54D-06 7.10D-06 7.96D-06


      Superposition of Atomic Density Guess
      -------------------------------------

 Sum of atomic energies:       -1030.50653915

      Non-variational initial energy
      ------------------------------

 Total energy =   -1043.191163
 1-e energy   =   -4809.532137
 2-e energy   =    2053.475001
 HOMO         =      -0.307455
 LUMO         =       0.008202


 Starting SCF solution at     290.7s



 ----------------------------------------------
         Quadratically convergent ROHF

 Convergence threshold     :          1.000E-04
 Maximum no. of iterations :           30
 Final Fock-matrix accuracy:          1.000E-10
 ----------------------------------------------


              iter       energy          gnorm     gmax       time
             ----- ------------------- --------- --------- --------
                 1    -1034.8847793317  2.95D+00  1.99D-01    591.8
                 2    -1035.3341769968  9.23D-01  3.95D-02   1192.1
                 3    -1035.4095436885  7.68D-02  4.20D-03   2069.1
                 4    -1035.4104344930  4.97D-03  3.58D-04   3211.3
                 5    -1035.4104389265  9.51D-06  4.79D-07   5217.4


       Final RHF  results 
       ------------------ 

         Total SCF energy =  -1035.410438926538
      One-electron energy =  -4822.478130889838
      Two-electron energy =   2074.201718541578
 Nuclear repulsion energy =   1712.865973421722

        Time for solution =   4928.0s


             Final eigenvalues
             -----------------

              1      
    1  -20.5504
    2  -20.5437
    3  -20.5385
    4  -20.5318
    5  -20.5248
    6  -15.6164
    7  -15.6088
    8  -15.6083
    9  -15.6051
   10  -15.5839
   11  -11.3821
   12  -11.3742
   13  -11.3680
   14  -11.3634
   15  -11.3615
   16  -11.3222
   17  -11.3207
   18  -11.2740
   19  -11.2677
   20  -11.2484
   21   -1.4158
   22   -1.4119
   23   -1.4082
   24   -1.3935
   25   -1.3875
   26   -1.2681
   27   -1.2566
   28   -1.2444
   29   -1.2407
   30   -1.2108
   31   -1.0993
   32   -1.0713
   33   -1.0099
   34   -0.9614
   35   -0.9257
   36   -0.8424
   37   -0.8227
   38   -0.8196
   39   -0.8040
   40   -0.7971
   41   -0.7597
   42   -0.7561
   43   -0.7479
   44   -0.7298
   45   -0.7070
   46   -0.6831
   47   -0.6821
   48   -0.6772
   49   -0.6671
   50   -0.6557
   51   -0.6465
   52   -0.6288
   53   -0.6224
   54   -0.6167
   55   -0.6057
   56   -0.5997
   57   -0.5945
   58   -0.5820
   59   -0.5774
   60   -0.5676
   61   -0.5573
   62   -0.5569
   63   -0.5487
   64   -0.5443
   65   -0.5315
   66   -0.5152
   67   -0.4560
   68   -0.4504
   69   -0.4446
   70   -0.4386
   71   -0.4334
   72   -0.4296
   73   -0.4269
   74   -0.4080
   75   -0.4055
   76   -0.3985
   77    0.0297
   78    0.0342
   79    0.0381
   80    0.0427
   81    0.0483
   82    0.0515
   83    0.0574
   84    0.0605
   85    0.0648
   86    0.0668

                       ROHF Final Molecular Orbital Analysis
                       -------------------------------------

 Vector   21  Occ=2.000000D+00  E=-1.415754D+00
              MO Center=  7.6D-01,  1.1D+00,  3.1D-02, r^2= 6.3D+00
   Bfn.  Coefficient  Atom+Function         Bfn.  Coefficient  Atom+Function  
  ----- ------------  ---------------      ----- ------------  ---------------
   495      0.246833  29 O  s               494      0.231796  29 O  s         
   241      0.191639  15 O  s               240      0.185355  15 O  s         
   334      0.169353  20 O  s               469      0.165796  28 C  s         
   333      0.161053  20 O  s         

 Vector   22  Occ=2.000000D+00  E=-1.411904D+00
              MO Center=  1.3D+00,  1.4D+00, -7.8D-02, r^2= 5.1D+00
   Bfn.  Coefficient  Atom+Function         Bfn.  Coefficient  Atom+Function  
  ----- ------------  ---------------      ----- ------------  ---------------
   495      0.276758  29 O  s               494      0.253876  29 O  s         
   241     -0.242576  15 O  s               240     -0.222532  15 O  s         
   469      0.179571  28 C  s               215     -0.158957  14 C  s         

 Vector   23  Occ=2.000000D+00  E=-1.408207D+00
              MO Center= -4.4D-01, -3.7D-01, -4.1D-01, r^2= 4.8D+00
   Bfn.  Coefficient  Atom+Function         Bfn.  Coefficient  Atom+Function  
  ----- ------------  ---------------      ----- ------------  ---------------
   334      0.294835  20 O  s               333      0.275372  20 O  s         
   241     -0.208039  15 O  s               240     -0.197350  15 O  s         
   308      0.192118  19 C  s         

 Vector   24  Occ=2.000000D+00  E=-1.393550D+00
              MO Center=  2.8D-01, -3.8D+00,  6.0D-01, r^2= 3.0D+00
   Bfn.  Coefficient  Atom+Function         Bfn.  Coefficient  Atom+Function  
  ----- ------------  ---------------      ----- ------------  ---------------
    80      0.339783   6 O  s                79      0.337053   6 O  s         
    54      0.237901   5 C  s                12      0.162587   2 C  s         

 Vector   25  Occ=2.000000D+00  E=-1.387474D+00
              MO Center= -1.8D+00,  2.9D+00, -5.5D-01, r^2= 2.2D+00
   Bfn.  Coefficient  Atom+Function         Bfn.  Coefficient  Atom+Function  
  ----- ------------  ---------------      ----- ------------  ---------------
   588      0.379519  34 O  s               587      0.345744  34 O  s         
   562      0.240286  33 C  s               564     -0.170224  33 C  s         

 Vector   26  Occ=2.000000D+00  E=-1.268071D+00
              MO Center= -7.6D-01,  4.9D-01,  4.4D-01, r^2= 2.1D+00
   Bfn.  Coefficient  Atom+Function         Bfn.  Coefficient  Atom+Function  
  ----- ------------  ---------------      ----- ------------  ---------------
   359      0.398268  21 N  s               358      0.333920  21 N  s         
   334     -0.221815  20 O  s               393     -0.194241  23 C  s         
   333     -0.181967  20 O  s         

 Vector   27  Occ=2.000000D+00  E=-1.256624D+00
              MO Center= -2.6D-01, -3.0D+00,  1.2D-01, r^2= 2.5D+00
   Bfn.  Coefficient  Atom+Function         Bfn.  Coefficient  Atom+Function  
  ----- ------------  ---------------      ----- ------------  ---------------
   105      0.450377   7 N  s               104      0.331594   7 N  s         
    80     -0.211907   6 O  s                79     -0.184101   6 O  s         
   138      0.150817   9 C  s         

 Vector   28  Occ=2.000000D+00  E=-1.244393D+00
              MO Center=  1.2D+00,  3.3D+00,  4.4D-01, r^2= 3.5D+00
   Bfn.  Coefficient  Atom+Function         Bfn.  Coefficient  Atom+Function  
  ----- ------------  ---------------      ----- ------------  ---------------
   519      0.345002  30 N  s               520      0.329787  30 N  s         
   495     -0.212644  29 O  s               473      0.177117  28 C  py        
   494     -0.177306  29 O  s               471      0.160407  28 C  s         
   543      0.155399  31 H  s         

 Vector   29  Occ=2.000000D+00  E=-1.240718D+00
              MO Center=  2.0D+00,  1.1D-01, -4.4D-01, r^2= 4.0D+00
   Bfn.  Coefficient  Atom+Function         Bfn.  Coefficient  Atom+Function  
  ----- ------------  ---------------      ----- ------------  ---------------
   265      0.338124  16 N  s               266      0.336443  16 N  s         
   241     -0.215426  15 O  s               240     -0.172075  15 O  s         
   298      0.155950  18 H  s               220      0.154685  14 C  pz        

 Vector   30  Occ=2.000000D+00  E=-1.210822D+00
              MO Center= -1.2D+00,  2.1D+00, -1.3D+00, r^2= 1.7D+00
   Bfn.  Coefficient  Atom+Function         Bfn.  Coefficient  Atom+Function  
  ----- ------------  ---------------      ----- ------------  ---------------
   613      0.383914  35 N  s               612      0.368852  35 N  s         
   588     -0.204795  34 O  s               393     -0.197184  23 C  s         
   587     -0.169964  34 O  s               645      0.160858  37 H  s         
   636      0.158539  36 H  s         

 Vector   31  Occ=2.000000D+00  E=-1.099280D+00
              MO Center= -1.7D-01, -2.7D-01,  2.7D-01, r^2= 7.7D+00
   Bfn.  Coefficient  Atom+Function         Bfn.  Coefficient  Atom+Function  
  ----- ------------  ---------------      ----- ------------  ---------------
   173      0.201356  11 C  s               138      0.179141   9 C  s         
   427     -0.178229  25 C  s               392     -0.169806  23 C  s         
   426     -0.169572  25 C  s               172      0.167874  11 C  s         

 Vector   32  Occ=2.000000D+00  E=-1.071339D+00
              MO Center= -5.8D-02,  1.9D-01,  4.0D-01, r^2= 9.1D+00
   Bfn.  Coefficient  Atom+Function         Bfn.  Coefficient  Atom+Function  
  ----- ------------  ---------------      ----- ------------  ---------------
   427      0.345801  25 C  s               426      0.217466  25 C  s         
   173      0.213220  11 C  s               172      0.184960  11 C  s         

 Vector   33  Occ=2.000000D+00  E=-1.009867D+00
              MO Center= -5.1D-01, -4.4D+00,  6.1D-02, r^2= 5.0D+00
   Bfn.  Coefficient  Atom+Function         Bfn.  Coefficient  Atom+Function  
  ----- ------------  ---------------      ----- ------------  ---------------
    11      0.317191   2 C  s                56     -0.255976   5 C  s         
    13      0.187655   2 C  s               173      0.188012  11 C  s         
    12      0.180234   2 C  s               172      0.154781  11 C  s         

 Vector   34  Occ=2.000000D+00  E=-9.614274D-01
              MO Center= -1.7D-01,  6.8D-01,  4.3D-01, r^2= 8.6D+00
   Bfn.  Coefficient  Atom+Function         Bfn.  Coefficient  Atom+Function  
  ----- ------------  ---------------      ----- ------------  ---------------
   427      0.283649  25 C  s               426      0.182995  25 C  s         
   432      0.178508  25 C  px              564      0.177180  33 C  s         
   392     -0.162491  23 C  s         

 Vector   35  Occ=2.000000D+00  E=-9.256889D-01
              MO Center= -2.2D-01, -4.3D-01,  9.3D-02, r^2= 9.9D+00
   Bfn.  Coefficient  Atom+Function         Bfn.  Coefficient  Atom+Function  
  ----- ------------  ---------------      ----- ------------  ---------------
   427      0.211253  25 C  s               138     -0.188010   9 C  s         
   393     -0.177582  23 C  s               392     -0.158603  23 C  s         

 Vector   36  Occ=2.000000D+00  E=-8.424161D-01
              MO Center= -2.9D-01,  1.0D+00,  4.4D-02, r^2= 7.4D+00
   Bfn.  Coefficient  Atom+Function         Bfn.  Coefficient  Atom+Function  
  ----- ------------  ---------------      ----- ------------  ---------------
   393      0.366958  23 C  s               309      0.200843  19 C  s         
   362     -0.177690  21 N  py              570     -0.178296  33 C  pz        
   382     -0.157694  22 H  s               308      0.154244  19 C  s         
   562      0.151912  33 C  s         

 Vector   37  Occ=2.000000D+00  E=-8.227153D-01
              MO Center=  4.8D-01,  2.1D+00,  4.9D-01, r^2= 8.3D+00
   Bfn.  Coefficient  Atom+Function         Bfn.  Coefficient  Atom+Function  
  ----- ------------  ---------------      ----- ------------  ---------------
   523      0.233556  30 N  py              469     -0.193328  28 C  s         
   359     -0.182730  21 N  s               524     -0.152638  30 N  pz        
   552      0.153243  32 H  s         

 Vector   38  Occ=2.000000D+00  E=-8.196124D-01
              MO Center=  1.2D+00, -9.1D-01, -3.4D-01, r^2= 6.1D+00
   Bfn.  Coefficient  Atom+Function         Bfn.  Coefficient  Atom+Function  
  ----- ------------  ---------------      ----- ------------  ---------------
   270      0.218626  16 N  pz              268      0.212687  16 N  px        
   215     -0.196323  14 C  s               298      0.192984  18 H  s         
   216     -0.175357  14 C  s               217      0.160597  14 C  s         
   105     -0.151650   7 N  s         

 Vector   39  Occ=2.000000D+00  E=-8.040039D-01
              MO Center= -2.9D-01, -2.3D+00,  7.2D-02, r^2= 4.9D+00
   Bfn.  Coefficient  Atom+Function         Bfn.  Coefficient  Atom+Function  
  ----- ------------  ---------------      ----- ------------  ---------------
   105      0.279032   7 N  s               128      0.269689   8 H  s         
   107     -0.252141   7 N  px              163     -0.248875  10 H  s         
   309      0.231755  19 C  s               144      0.225004   9 C  px        
    55     -0.173165   5 C  s                12     -0.160614   2 C  s         
   162     -0.157967  10 H  s                61     -0.153083   5 C  py        

 Vector   40  Occ=2.000000D+00  E=-7.971347D-01
              MO Center= -4.2D-01,  2.0D+00, -3.1D-01, r^2= 6.1D+00
   Bfn.  Coefficient  Atom+Function         Bfn.  Coefficient  Atom+Function  
  ----- ------------  ---------------      ----- ------------  ---------------
   570      0.245068  33 C  pz              617     -0.241012  35 N  pz        
   562     -0.179623  33 C  s               399     -0.174027  23 C  py        
   393     -0.170921  23 C  s               309      0.161820  19 C  s         
   400      0.161713  23 C  pz              523     -0.158704  30 N  py        
   636      0.159392  36 H  s               361     -0.153784  21 N  px        

 Vector   41  Occ=2.000000D+00  E=-7.596887D-01
              MO Center=  8.7D-01, -3.1D-01, -2.3D-01, r^2= 7.5D+00
   Bfn.  Coefficient  Atom+Function         Bfn.  Coefficient  Atom+Function  
  ----- ------------  ---------------      ----- ------------  ---------------
   269      0.239010  16 N  py              298     -0.213237  18 H  s         
   289      0.163736  17 H  s               361     -0.156313  21 N  px        
   309      0.150568  19 C  s         

 Vector   42  Occ=2.000000D+00  E=-7.560621D-01
              MO Center=  1.0D-01,  3.1D+00, -6.4D-02, r^2= 5.0D+00
   Bfn.  Coefficient  Atom+Function         Bfn.  Coefficient  Atom+Function  
  ----- ------------  ---------------      ----- ------------  ---------------
   522      0.302177  30 N  px              543     -0.234504  31 H  s         
   552      0.215023  32 H  s               645     -0.195648  37 H  s         
   616      0.178401  35 N  py              563      0.173595  33 C  s         
   567     -0.167893  33 C  pz        

 Vector   43  Occ=2.000000D+00  E=-7.479285D-01
              MO Center=  1.0D+00, -2.0D-01, -1.1D-01, r^2= 8.6D+00
   Bfn.  Coefficient  Atom+Function         Bfn.  Coefficient  Atom+Function  
  ----- ------------  ---------------      ----- ------------  ---------------
   269      0.287368  16 N  py              289      0.218941  17 H  s         
   298     -0.201884  18 H  s         

 Vector   44  Occ=2.000000D+00  E=-7.298116D-01
              MO Center= -3.5D-01,  1.4D+00, -5.0D-01, r^2= 9.4D+00
   Bfn.  Coefficient  Atom+Function         Bfn.  Coefficient  Atom+Function  
  ----- ------------  ---------------      ----- ------------  ---------------
   616      0.215771  35 N  py              636      0.205013  36 H  s         
   645     -0.204289  37 H  s               522     -0.193209  30 N  px        
   552     -0.174597  32 H  s         

 Vector   45  Occ=2.000000D+00  E=-7.069724D-01
              MO Center= -3.9D-01,  6.7D-01,  5.3D-01, r^2= 9.6D+00
   Bfn.  Coefficient  Atom+Function         Bfn.  Coefficient  Atom+Function  
  ----- ------------  ---------------      ----- ------------  ---------------
   336      0.186986  20 O  px              399     -0.182008  23 C  py        
   497     -0.162922  29 O  px              362      0.161438  21 N  py        
   334     -0.160077  20 O  s               398      0.155379  23 C  px        
   473     -0.151388  28 C  py        

 Vector   46  Occ=2.000000D+00  E=-6.831314D-01
              MO Center=  7.1D-01, -3.8D-01, -8.3D-01, r^2= 9.0D+00
   Bfn.  Coefficient  Atom+Function         Bfn.  Coefficient  Atom+Function  
  ----- ------------  ---------------      ----- ------------  ---------------
   244      0.255134  15 O  py              241      0.214418  15 O  s         
   173     -0.208103  11 C  s               218      0.190060  14 C  px        
   144      0.170919   9 C  px              176     -0.166938  11 C  py        
    56      0.160618   5 C  s               220      0.155761  14 C  pz        

 Vector   47  Occ=2.000000D+00  E=-6.820515D-01
              MO Center= -1.3D-01,  6.1D-01,  1.7D-01, r^2= 1.4D+01
   Bfn.  Coefficient  Atom+Function         Bfn.  Coefficient  Atom+Function  
  ----- ------------  ---------------      ----- ------------  ---------------
   497      0.184372  29 O  px              617      0.181910  35 N  pz        
   473      0.176779  28 C  py              636     -0.162729  36 H  s         
   567     -0.156061  33 C  pz        

 Vector   48  Occ=2.000000D+00  E=-6.772410D-01
              MO Center= -2.5D-02, -8.0D-01,  3.1D-01, r^2= 9.3D+00
   Bfn.  Coefficient  Atom+Function         Bfn.  Coefficient  Atom+Function  
  ----- ------------  ---------------      ----- ------------  ---------------
   336      0.199088  20 O  px              107      0.174189   7 N  px        
   141     -0.169160   9 C  px              162     -0.161345  10 H  s         
   360      0.150489  21 N  s         

 Vector   49  Occ=2.000000D+00  E=-6.671365D-01
              MO Center= -4.7D-02, -1.9D+00,  5.6D-02, r^2= 1.1D+01
   Bfn.  Coefficient  Atom+Function         Bfn.  Coefficient  Atom+Function  
  ----- ------------  ---------------      ----- ------------  ---------------
    82      0.238873   6 O  px               80      0.198627   6 O  s         
   336      0.175812  20 O  px              108     -0.174436   7 N  py        
    58      0.153096   5 C  py              244      0.153182  15 O  py        

 Vector   50  Occ=2.000000D+00  E=-6.557096D-01
              MO Center=  3.0D-01, -1.6D+00, -4.2D-01, r^2= 6.1D+00
   Bfn.  Coefficient  Atom+Function         Bfn.  Coefficient  Atom+Function  
  ----- ------------  ---------------      ----- ------------  ---------------
   173      0.342731  11 C  s               143      0.198189   9 C  pz        
   196      0.182444  12 H  s               175      0.174833  11 C  px        

 Vector   51  Occ=2.000000D+00  E=-6.465341D-01
              MO Center= -2.1D-01,  8.3D-01,  4.5D-01, r^2= 9.4D+00
   Bfn.  Coefficient  Atom+Function         Bfn.  Coefficient  Atom+Function  
  ----- ------------  ---------------      ----- ------------  ---------------
   395      0.199750  23 C  px              416     -0.188756  24 H  s         

 Vector   52  Occ=2.000000D+00  E=-6.287687D-01
              MO Center= -4.4D-01, -6.5D-02,  1.1D-01, r^2= 1.5D+01
   Bfn.  Coefficient  Atom+Function         Bfn.  Coefficient  Atom+Function  
  ----- ------------  ---------------      ----- ------------  ---------------
   217      0.245659  14 C  s               591      0.207512  34 O  py        
    56      0.172108   5 C  s                16     -0.160168   2 C  pz        

 Vector   53  Occ=2.000000D+00  E=-6.223593D-01
              MO Center= -3.2D-01, -1.1D+00,  4.6D-02, r^2= 1.4D+01
   Bfn.  Coefficient  Atom+Function         Bfn.  Coefficient  Atom+Function  
  ----- ------------  ---------------      ----- ------------  ---------------
    56      0.197519   5 C  s                16     -0.171242   2 C  pz        
    35     -0.152562   3 H  s         

 Vector   54  Occ=2.000000D+00  E=-6.167003D-01
              MO Center= -2.2D-02,  4.6D-01, -2.1D-01, r^2= 1.1D+01
   Bfn.  Coefficient  Atom+Function         Bfn.  Coefficient  Atom+Function  
  ----- ------------  ---------------      ----- ------------  ---------------
   243      0.174049  15 O  px        

 Vector   55  Occ=2.000000D+00  E=-6.057113D-01
              MO Center=  1.4D-01, -4.1D-01,  6.6D-02, r^2= 1.2D+01
   Bfn.  Coefficient  Atom+Function         Bfn.  Coefficient  Atom+Function  
  ----- ------------  ---------------      ----- ------------  ---------------
   336      0.199805  20 O  px              311     -0.174995  19 C  px        
   472      0.172566  28 C  px              245      0.170098  15 O  pz        
   219      0.157909  14 C  py              498      0.151714  29 O  py        

 Vector   56  Occ=2.000000D+00  E=-5.996778D-01
              MO Center= -7.7D-01,  1.4D+00, -1.5D-01, r^2= 1.0D+01
   Bfn.  Coefficient  Atom+Function         Bfn.  Coefficient  Atom+Function  
  ----- ------------  ---------------      ----- ------------  ---------------
   566      0.235884  33 C  py              590      0.228682  34 O  px        
   591     -0.193693  34 O  py              588     -0.177261  34 O  s         

 Vector   57  Occ=2.000000D+00  E=-5.945007D-01
              MO Center=  5.4D-01,  1.1D+00,  3.8D-01, r^2= 1.1D+01
   Bfn.  Coefficient  Atom+Function         Bfn.  Coefficient  Atom+Function  
  ----- ------------  ---------------      ----- ------------  ---------------
   498      0.266509  29 O  py              472      0.235311  28 C  px        
   451      0.173889  26 H  s               475      0.162790  28 C  px        
   501      0.160483  29 O  py              450      0.153730  26 H  s         

 Vector   58  Occ=2.000000D+00  E=-5.819755D-01
              MO Center=  1.4D-01, -2.3D+00,  1.5D-01, r^2= 1.0D+01
   Bfn.  Coefficient  Atom+Function         Bfn.  Coefficient  Atom+Function  
  ----- ------------  ---------------      ----- ------------  ---------------
    82     -0.230338   6 O  px               57      0.223745   5 C  px        
    14     -0.159383   2 C  px              206     -0.152022  13 H  s         

 Vector   59  Occ=2.000000D+00  E=-5.773610D-01
              MO Center= -8.6D-02, -1.7D-01,  1.5D-02, r^2= 1.2D+01
   Bfn.  Coefficient  Atom+Function         Bfn.  Coefficient  Atom+Function  
  ----- ------------  ---------------      ----- ------------  ---------------
   338      0.172532  20 O  pz              245      0.157515  15 O  pz        

 Vector   60  Occ=2.000000D+00  E=-5.676173D-01
              MO Center= -4.8D-01, -1.8D+00,  4.7D-01, r^2= 2.0D+01
   Bfn.  Coefficient  Atom+Function         Bfn.  Coefficient  Atom+Function  
  ----- ------------  ---------------      ----- ------------  ---------------
     1      0.278249   1 H  s                 2      0.227321   1 H  s         
    15     -0.205763   2 C  py               14      0.167777   2 C  px        
   430     -0.160469  25 C  py              450     -0.153006  26 H  s         
    16      0.151340   2 C  pz        

 Vector   61  Occ=2.000000D+00  E=-5.572947D-01
              MO Center= -1.1D-02, -1.3D+00, -6.7D-02, r^2= 1.4D+01
   Bfn.  Coefficient  Atom+Function         Bfn.  Coefficient  Atom+Function  
  ----- ------------  ---------------      ----- ------------  ---------------
   173      0.189172  11 C  s                 1      0.178796   1 H  s         
    15     -0.176730   2 C  py              245      0.167648  15 O  pz        
   205      0.150637  13 H  s         

 Vector   62  Occ=2.000000D+00  E=-5.568767D-01
              MO Center= -3.7D-01,  5.5D-01,  4.5D-01, r^2= 1.3D+01
   Bfn.  Coefficient  Atom+Function         Bfn.  Coefficient  Atom+Function  
  ----- ------------  ---------------      ----- ------------  ---------------
   459      0.233512  27 H  s               173      0.228567  11 C  s         
   430     -0.203496  25 C  py              471     -0.181764  28 C  s         
   451     -0.179159  26 H  s               460      0.176529  27 H  s         
   393     -0.159039  23 C  s               431      0.158847  25 C  pz        
   427      0.153892  25 C  s               450     -0.150584  26 H  s         

 Vector   63  Occ=2.000000D+00  E=-5.487471D-01
              MO Center=  3.2D-01, -1.5D+00, -5.9D-01, r^2= 6.2D+00
   Bfn.  Coefficient  Atom+Function         Bfn.  Coefficient  Atom+Function  
  ----- ------------  ---------------      ----- ------------  ---------------
   206      0.263250  13 H  s               163      0.242802  10 H  s         
   175     -0.227614  11 C  px              196     -0.223864  12 H  s         
   197     -0.205775  12 H  s               141      0.189935   9 C  px        
   393     -0.187903  23 C  s               337      0.158393  20 O  py        
   245     -0.157194  15 O  pz              173     -0.151704  11 C  s         

 Vector   64  Occ=2.000000D+00  E=-5.443382D-01
              MO Center= -7.6D-01, -1.6D-01,  3.5D-01, r^2= 1.1D+01
   Bfn.  Coefficient  Atom+Function         Bfn.  Coefficient  Atom+Function  
  ----- ------------  ---------------      ----- ------------  ---------------
   427      0.370573  25 C  s               393     -0.255566  23 C  s         
   163     -0.195390  10 H  s               400     -0.195453  23 C  pz        
   338      0.172582  20 O  pz              397     -0.172601  23 C  pz        
   399     -0.166400  23 C  py              431      0.157610  25 C  pz        

 Vector   65  Occ=2.000000D+00  E=-5.315030D-01
              MO Center= -8.2D-01,  2.2D+00,  2.5D-01, r^2= 5.5D+00
   Bfn.  Coefficient  Atom+Function         Bfn.  Coefficient  Atom+Function  
  ----- ------------  ---------------      ----- ------------  ---------------
   395      0.235179  23 C  px              590     -0.195623  34 O  px        
   416     -0.181050  24 H  s               431     -0.174844  25 C  pz        
   615     -0.167436  35 N  px              432     -0.159151  25 C  px        
   565     -0.156916  33 C  px              593     -0.152483  34 O  px        

 Vector   66  Occ=2.000000D+00  E=-5.151980D-01
              MO Center=  3.1D-02, -3.1D+00,  1.2D-01, r^2= 6.4D+00
   Bfn.  Coefficient  Atom+Function         Bfn.  Coefficient  Atom+Function  
  ----- ------------  ---------------      ----- ------------  ---------------
    84      0.280700   6 O  pz              143     -0.222882   9 C  pz        
    87      0.204323   6 O  pz              177      0.204439  11 C  pz        
    59      0.175882   5 C  pz              162     -0.168533  10 H  s         
   393     -0.167432  23 C  s                16     -0.163658   2 C  pz        

 Vector   67  Occ=2.000000D+00  E=-4.560217D-01
              MO Center= -1.0D+00,  2.3D-01, -1.8D-01, r^2= 7.1D+00
   Bfn.  Coefficient  Atom+Function         Bfn.  Coefficient  Atom+Function  
  ----- ------------  ---------------      ----- ------------  ---------------
   338      0.272240  20 O  pz              592     -0.264252  34 O  pz        
   337      0.256286  20 O  py              341      0.213208  20 O  pz        
   595     -0.208508  34 O  pz              340      0.204818  20 O  py        
   428     -0.159362  25 C  s               363     -0.151994  21 N  pz        

 Vector   68  Occ=2.000000D+00  E=-4.503979D-01
              MO Center= -3.5D-01,  4.5D-01, -4.6D-01, r^2= 9.2D+00
   Bfn.  Coefficient  Atom+Function         Bfn.  Coefficient  Atom+Function  
  ----- ------------  ---------------      ----- ------------  ---------------
   592      0.281654  34 O  pz              337      0.243291  20 O  py        
   243      0.237702  15 O  px              595      0.221116  34 O  pz        
   340      0.197377  20 O  py              246      0.189332  15 O  px        
   244      0.165796  15 O  py              363      0.158980  21 N  pz        

 Vector   69  Occ=2.000000D+00  E=-4.445679D-01
              MO Center=  1.2D+00,  2.3D+00,  9.6D-01, r^2= 3.7D+00
   Bfn.  Coefficient  Atom+Function         Bfn.  Coefficient  Atom+Function  
  ----- ------------  ---------------      ----- ------------  ---------------
   498      0.332487  29 O  py              497      0.310798  29 O  px        
   501      0.274447  29 O  py              500      0.239866  29 O  px        
   499     -0.222872  29 O  pz              429      0.209461  25 C  px        
   470      0.202376  28 C  s               488      0.174724  28 C  dxy       
   502     -0.175138  29 O  pz              417      0.167544  24 H  s         

 Vector   70  Occ=2.000000D+00  E=-4.385934D-01
              MO Center= -1.3D-01, -4.5D-01, -6.5D-01, r^2= 6.4D+00
   Bfn.  Coefficient  Atom+Function         Bfn.  Coefficient  Atom+Function  
  ----- ------------  ---------------      ----- ------------  ---------------
   173      0.354171  11 C  s               337      0.354386  20 O  py        
   340      0.295515  20 O  py              243     -0.269478  15 O  px        
   216     -0.248634  14 C  s               246     -0.220413  15 O  px        
   244     -0.204456  15 O  py              222      0.171142  14 C  py        
   318     -0.169369  19 C  py              176     -0.160271  11 C  py        

 Vector   71  Occ=2.000000D+00  E=-4.334096D-01
              MO Center=  1.5D+00,  2.1D+00,  1.8D-01, r^2= 6.5D+00
   Bfn.  Coefficient  Atom+Function         Bfn.  Coefficient  Atom+Function  
  ----- ------------  ---------------      ----- ------------  ---------------
   499      0.331877  29 O  pz              502      0.268412  29 O  pz        
   524     -0.262453  30 N  pz              527     -0.218038  30 N  pz        
   523     -0.213629  30 N  py              526     -0.196406  30 N  py        
   268      0.182581  16 N  px              271      0.172736  16 N  px        
   471     -0.172459  28 C  s               245      0.166385  15 O  pz        

 Vector   72  Occ=2.000000D+00  E=-4.295836D-01
              MO Center=  6.1D-01, -3.2D+00,  3.9D-01, r^2= 8.5D+00
   Bfn.  Coefficient  Atom+Function         Bfn.  Coefficient  Atom+Function  
  ----- ------------  ---------------      ----- ------------  ---------------
    83      0.454411   6 O  py               13     -0.382769   2 C  s         
    86      0.364590   6 O  py               64     -0.235564   5 C  py        
    56      0.206180   5 C  s               105     -0.193161   7 N  s         
   145     -0.173703   9 C  py               18      0.167440   2 C  py        
    17      0.164730   2 C  px               14      0.155841   2 C  px        

 Vector   73  Occ=2.000000D+00  E=-4.269290D-01
              MO Center=  1.3D+00,  5.1D-01, -2.2D-01, r^2= 1.0D+01
   Bfn.  Coefficient  Atom+Function         Bfn.  Coefficient  Atom+Function  
  ----- ------------  ---------------      ----- ------------  ---------------
   243      0.236689  15 O  px              270      0.219318  16 N  pz        
   267     -0.211827  16 N  s                83      0.207442   6 O  py        
   268     -0.199610  16 N  px              271     -0.198135  16 N  px        
   246      0.194919  15 O  px              524     -0.193720  30 N  pz        
   499      0.181982  29 O  pz              273      0.175302  16 N  pz        

 Vector   74  Occ=2.000000D+00  E=-4.079771D-01
              MO Center= -1.8D-01, -1.7D+00, -3.2D-02, r^2= 8.9D+00
   Bfn.  Coefficient  Atom+Function         Bfn.  Coefficient  Atom+Function  
  ----- ------------  ---------------      ----- ------------  ---------------
   109      0.333593   7 N  pz              112      0.306746   7 N  pz        
    84     -0.248345   6 O  pz               87     -0.191275   6 O  pz        
   592      0.178410  34 O  pz              363     -0.158163  21 N  pz        
   173      0.156461  11 C  s               366     -0.150649  21 N  pz        

 Vector   75  Occ=2.000000D+00  E=-4.054952D-01
              MO Center= -1.3D+00,  2.3D+00, -1.0D+00, r^2= 4.4D+00
   Bfn.  Coefficient  Atom+Function         Bfn.  Coefficient  Atom+Function  
  ----- ------------  ---------------      ----- ------------  ---------------
   615     -0.327662  35 N  px              590      0.318526  34 O  px        
   618     -0.269797  35 N  px              593      0.255401  34 O  px        
   616     -0.249262  35 N  py              619     -0.235259  35 N  py        
   591      0.189124  34 O  py              564     -0.178006  33 C  s         
   360      0.175796  21 N  s               417     -0.168672  24 H  s         

 Vector   76  Occ=2.000000D+00  E=-3.985193D-01
              MO Center= -1.0D+00,  4.3D-01, -1.4D-02, r^2= 8.7D+00
   Bfn.  Coefficient  Atom+Function         Bfn.  Coefficient  Atom+Function  
  ----- ------------  ---------------      ----- ------------  ---------------
   363      0.279754  21 N  pz              366      0.271907  21 N  pz        
   592     -0.271492  34 O  pz              595     -0.216290  34 O  pz        
   109      0.205104   7 N  pz              338     -0.196873  20 O  pz        
   112      0.185585   7 N  pz              615      0.161447  35 N  px        
   341     -0.157310  20 O  pz               84     -0.150888   6 O  pz        

 Vector   77  Occ=0.000000D+00  E= 2.972600D-02
              MO Center=  3.5D-01,  5.1D-01,  1.4D+00, r^2= 4.0D+01
   Bfn.  Coefficient  Atom+Function         Bfn.  Coefficient  Atom+Function  
  ----- ------------  ---------------      ----- ------------  ---------------
   384      4.559800  22 H  s               471      4.227947  28 C  s         
    13      2.564025   2 C  s               461     -2.525940  27 H  s         
   521     -2.474383  30 N  s               217      2.359402  14 C  s         
   164     -2.211433  10 H  s               148     -2.090997   9 C  py        
   360      2.027479  21 N  s               267     -1.992445  16 N  s         

 Vector   78  Occ=0.000000D+00  E= 3.423104D-02
              MO Center= -7.6D-01, -2.4D+00, -2.7D-01, r^2= 4.8D+01
   Bfn.  Coefficient  Atom+Function         Bfn.  Coefficient  Atom+Function  
  ----- ------------  ---------------      ----- ------------  ---------------
    64      3.855032   5 C  py              384      2.488593  22 H  s         
   521     -2.460078  30 N  s                46      2.073943   4 H  s         
   471      2.040957  28 C  s               148      2.029602   9 C  py        
   564      2.022507  33 C  s                12     -1.847295   2 C  s         
   402      1.804064  23 C  py               63      1.713865   5 C  px        

 Vector   79  Occ=0.000000D+00  E= 3.805901D-02
              MO Center=  1.6D-01,  1.5D+00,  5.3D-01, r^2= 3.8D+01
   Bfn.  Coefficient  Atom+Function         Bfn.  Coefficient  Atom+Function  
  ----- ------------  ---------------      ----- ------------  ---------------
   428      3.701210  25 C  s               461      3.276702  27 H  s         
   521     -3.197418  30 N  s               614     -2.856800  35 N  s         
   164      2.725955  10 H  s               384     -2.548051  22 H  s         
   437     -2.151235  25 C  pz              573     -2.020503  33 C  pz        
   149     -2.003852   9 C  pz               13     -1.788259   2 C  s         

 Vector   80  Occ=0.000000D+00  E= 4.273589D-02
              MO Center=  2.6D+00, -1.6D-01,  3.7D-01, r^2= 3.3D+01
   Bfn.  Coefficient  Atom+Function         Bfn.  Coefficient  Atom+Function  
  ----- ------------  ---------------      ----- ------------  ---------------
   267      3.504316  16 N  s                56     -2.628543   5 C  s         
   148     -2.358849   9 C  py               64     -2.187735   5 C  py        
   198      2.154591  12 H  s               471      2.146933  28 C  s         
   181     -2.003479  11 C  px              226     -1.834163  14 C  pz        
   428      1.807746  25 C  s               291      1.793997  17 H  s         

 Vector   81  Occ=0.000000D+00  E= 4.832698D-02
              MO Center= -6.6D-01, -1.7D+00, -5.9D-01, r^2= 4.5D+01
   Bfn.  Coefficient  Atom+Function         Bfn.  Coefficient  Atom+Function  
  ----- ------------  ---------------      ----- ------------  ---------------
    64      3.340630   5 C  py              564      2.721437  33 C  s         
   207     -2.519901  13 H  s               428     -2.444791  25 C  s         
   149     -2.135078   9 C  pz                3      2.029987   1 H  s         
    37      1.915389   3 H  s               148      1.846500   9 C  py        
   174     -1.588300  11 C  s               452     -1.573925  26 H  s         

 Vector   82  Occ=0.000000D+00  E= 5.154978D-02
              MO Center= -1.4D+00, -9.6D-02, -3.2D-01, r^2= 4.6D+01
   Bfn.  Coefficient  Atom+Function         Bfn.  Coefficient  Atom+Function  
  ----- ------------  ---------------      ----- ------------  ---------------
   452      3.686805  26 H  s               573     -2.802327  33 C  pz        
   318     -2.663748  19 C  py              401     -2.533238  23 C  px        
    37     -2.335316   3 H  s               638     -2.305792  36 H  s         
   394      2.276562  23 C  s                46      2.206175   4 H  s         
    56      2.179989   5 C  s               106     -2.165448   7 N  s         

 Vector   83  Occ=0.000000D+00  E= 5.739972D-02
              MO Center= -4.9D-01, -2.4D+00, -8.1D-01, r^2= 5.0D+01
   Bfn.  Coefficient  Atom+Function         Bfn.  Coefficient  Atom+Function  
  ----- ------------  ---------------      ----- ------------  ---------------
     3      4.274067   1 H  s               614      2.858300  35 N  s         
   130     -2.610583   8 H  s               638      2.613459  36 H  s         
   471      2.599420  28 C  s               318     -2.456010  19 C  py        
   106     -2.368578   7 N  s                56      2.218236   5 C  s         
   164      2.187921  10 H  s               360      1.988223  21 N  s         

 Vector   84  Occ=0.000000D+00  E= 6.047160D-02
              MO Center= -5.6D-01,  1.6D-01,  1.5D+00, r^2= 4.0D+01
   Bfn.  Coefficient  Atom+Function         Bfn.  Coefficient  Atom+Function  
  ----- ------------  ---------------      ----- ------------  ---------------
   461      4.708998  27 H  s               418     -4.016991  24 H  s         
   452     -3.663171  26 H  s               164      3.306622  10 H  s         
   198     -3.209920  12 H  s               614      3.048578  35 N  s         
   181      2.530264  11 C  px              436      2.456167  25 C  py        
   401     -2.398356  23 C  px               46      2.250976   4 H  s         

 Vector   85  Occ=0.000000D+00  E= 6.480771D-02
              MO Center=  1.1D+00, -9.2D-02, -1.2D-01, r^2= 4.3D+01
   Bfn.  Coefficient  Atom+Function         Bfn.  Coefficient  Atom+Function  
  ----- ------------  ---------------      ----- ------------  ---------------
   564      6.637849  33 C  s               198      4.289218  12 H  s         
   471      4.251250  28 C  s               300     -3.721691  18 H  s         
   428     -3.661152  25 C  s               614     -3.142854  35 N  s         
   148     -3.069496   9 C  py               56     -2.494328   5 C  s         
   452     -2.494925  26 H  s               310     -2.332622  19 C  s         

 Vector   86  Occ=0.000000D+00  E= 6.675754D-02
              MO Center=  8.0D-01,  6.6D-01,  4.2D-01, r^2= 4.6D+01
   Bfn.  Coefficient  Atom+Function         Bfn.  Coefficient  Atom+Function  
  ----- ------------  ---------------      ----- ------------  ---------------
    56      5.622916   5 C  s               164     -3.839370  10 H  s         
   106     -3.646273   7 N  s               318     -3.484292  19 C  py        
   545     -3.411055  31 H  s               217     -3.090236  14 C  s         
    64      3.022494   5 C  py              291      2.523797  17 H  s         
   147      2.346652   9 C  px              267      2.149169  16 N  s         

 Vector   87  Occ=0.000000D+00  E= 6.989977D-02
              MO Center= -1.5D+00, -9.4D-01,  8.7D-01, r^2= 4.2D+01
   Bfn.  Coefficient  Atom+Function         Bfn.  Coefficient  Atom+Function  
  ----- ------------  ---------------      ----- ------------  ---------------
   418      5.423736  24 H  s                37     -3.545260   3 H  s         
   564      3.414908  33 C  s               401      3.337609  23 C  px        
    46      2.762340   4 H  s               452     -2.421755  26 H  s         
   207     -2.363957  13 H  s                56     -2.336067   5 C  s         
   471      2.185469  28 C  s               318     -2.149227  19 C  py        

 Vector   88  Occ=0.000000D+00  E= 7.786005D-02
              MO Center= -2.6D-01, -2.3D+00, -1.0D+00, r^2= 4.1D+01
   Bfn.  Coefficient  Atom+Function         Bfn.  Coefficient  Atom+Function  
  ----- ------------  ---------------      ----- ------------  ---------------
   471      9.589123  28 C  s               318     -6.465193  19 C  py        
   207     -5.636558  13 H  s               198      5.577970  12 H  s         
   402     -4.177558  23 C  py              461      3.940064  27 H  s         
   164     -3.716286  10 H  s               217     -3.581980  14 C  s         
     3     -3.504485   1 H  s               435     -3.139293  25 C  px        

 Vector   89  Occ=0.000000D+00  E= 8.465946D-02
              MO Center=  3.9D-01, -8.2D-01,  2.9D-01, r^2= 4.2D+01
   Bfn.  Coefficient  Atom+Function         Bfn.  Coefficient  Atom+Function  
  ----- ------------  ---------------      ----- ------------  ---------------
   471    -10.927124  28 C  s               217     10.171144  14 C  s         
   164     -5.816378  10 H  s               318      5.417886  19 C  py        
   130      4.542598   8 H  s               149      3.931125   9 C  pz        
   402      3.940437  23 C  py              267     -3.656565  16 N  s         
   198      3.503846  12 H  s               521      3.427041  30 N  s         

 Vector   90  Occ=0.000000D+00  E= 8.960115D-02
              MO Center= -2.9D-02,  1.3D+00,  7.8D-01, r^2= 4.5D+01
   Bfn.  Coefficient  Atom+Function         Bfn.  Coefficient  Atom+Function  
  ----- ------------  ---------------      ----- ------------  ---------------
[...]
   174     -6.875781  11 C  s               521     -6.720870  30 N  s         
   163     -5.789889  10 H  s               360     -5.613332  21 N  s         
   106      5.268287   7 N  s               113      5.202563   7 N  px        

 Vector  185  Occ=0.000000D+00  E= 4.371967D-01
              MO Center=  5.9D-02, -1.4D+00,  1.0D-01, r^2= 2.7D+01
   Bfn.  Coefficient  Atom+Function         Bfn.  Coefficient  Atom+Function  
  ----- ------------  ---------------      ----- ------------  ---------------
   148     17.998844   9 C  py              564      8.706921  33 C  s         
    56      8.103023   5 C  s               384     -7.817619  22 H  s         
   394      7.043351  23 C  s               360     -6.817871  21 N  s         
   310      6.516371  19 C  s                13     -5.470704   2 C  s         
   164      5.290084  10 H  s               106      5.254368   7 N  s         

 Vector  186  Occ=0.000000D+00  E= 4.420917D-01
              MO Center= -7.5D-01, -3.2D+00,  5.2D-01, r^2= 2.4D+01
   Bfn.  Coefficient  Atom+Function         Bfn.  Coefficient  Atom+Function  
  ----- ------------  ---------------      ----- ------------  ---------------
   471     16.818391  28 C  s                56     -7.584765   5 C  s         
   564     -6.311556  33 C  s               114     -6.162819   7 N  py        
   402     -5.843355  23 C  py               45     -5.187427   4 H  s         
   183      5.196950  11 C  pz               22     -5.161140   2 C  pz        
   394     -4.823470  23 C  s               174      4.558189  11 C  s         

 Vector  187  Occ=0.000000D+00  E= 4.440019D-01
              MO Center= -8.2D-02, -3.7D-01,  4.7D-01, r^2= 2.5D+01
   Bfn.  Coefficient  Atom+Function         Bfn.  Coefficient  Atom+Function  
  ----- ------------  ---------------      ----- ------------  ---------------
   217     20.722071  14 C  s                13    -17.522762   2 C  s         
   564     13.583258  33 C  s               384    -11.590900  22 H  s         
   471    -11.149415  28 C  s               147      9.490871   9 C  px        
   182     -8.278978  11 C  py               56      7.482728   5 C  s         
   394      7.064422  23 C  s                64     -6.690281   5 C  py        

 Vector  188  Occ=0.000000D+00  E= 4.460258D-01
              MO Center=  3.9D-01,  2.0D-01,  1.3D-01, r^2= 2.3D+01
   Bfn.  Coefficient  Atom+Function         Bfn.  Coefficient  Atom+Function  
  ----- ------------  ---------------      ----- ------------  ---------------
   471     30.225713  28 C  s                56    -15.788590   5 C  s         
   403    -13.955049  23 C  pz              394    -12.500158  23 C  s         
   148    -12.295412   9 C  py              521    -10.865359  30 N  s         
   564    -10.631377  33 C  s               197     -9.908430  12 H  s         
   435     -9.151405  25 C  px              174      8.637389  11 C  s         

 Vector  189  Occ=0.000000D+00  E= 4.494157D-01
              MO Center= -1.2D-01, -5.0D-01,  1.4D-02, r^2= 2.3D+01
   Bfn.  Coefficient  Atom+Function         Bfn.  Coefficient  Atom+Function  
  ----- ------------  ---------------      ----- ------------  ---------------
   564    -29.399735  33 C  s                56     27.236727   5 C  s         
   148     26.252557   9 C  py               13    -21.831650   2 C  s         
   368      9.123170  21 N  py              217     -9.017479  14 C  s         
   317      8.499978  19 C  px              401     -8.503116  23 C  px        
   310      8.319224  19 C  s                64     -8.009915   5 C  py        

 Vector  190  Occ=0.000000D+00  E= 4.543264D-01
              MO Center=  9.8D-04, -4.4D-01, -5.0D-01, r^2= 2.2D+01
   Bfn.  Coefficient  Atom+Function         Bfn.  Coefficient  Atom+Function  
  ----- ------------  ---------------      ----- ------------  ---------------
   174     14.984761  11 C  s               267    -13.308869  16 N  s         
   564    -13.303146  33 C  s               318      9.746340  19 C  py        
    13      8.193669   2 C  s               147     -7.227995   9 C  px        
   368      6.457930  21 N  py              428      6.354705  25 C  s         
   106     -6.174776   7 N  s               149      5.160147   9 C  pz        

 Vector  191  Occ=0.000000D+00  E= 4.581301D-01
              MO Center= -2.7D-02, -7.1D-01, -4.2D-01, r^2= 2.0D+01
   Bfn.  Coefficient  Atom+Function         Bfn.  Coefficient  Atom+Function  
  ----- ------------  ---------------      ----- ------------  ---------------
   428     12.643868  25 C  s               319    -10.598280  19 C  pz        
   148     -8.896491   9 C  py              149      8.680567   9 C  pz        
   402     -8.381912  23 C  py              147     -6.903387   9 C  px        
   318     -6.764961  19 C  py              106     -6.683265   7 N  s         
   225      6.692164  14 C  py              360     -6.610749  21 N  s         

 Vector  192  Occ=0.000000D+00  E= 4.629257D-01
              MO Center=  2.5D-01,  3.8D-01, -2.6D-01, r^2= 2.1D+01
   Bfn.  Coefficient  Atom+Function         Bfn.  Coefficient  Atom+Function  
  ----- ------------  ---------------      ----- ------------  ---------------
   614    -13.762011  35 N  s               564     13.464229  33 C  s         
   217    -11.590996  14 C  s               174     -9.934176  11 C  s         
    13      9.581062   2 C  s               368     -9.241011  21 N  py        
   360      9.019415  21 N  s               173     -8.563723  11 C  s         
   197      7.965693  12 H  s               206      7.657272  13 H  s         

 Vector  193  Occ=0.000000D+00  E= 4.693368D-01
              MO Center= -1.2D-01,  7.7D-02, -2.9D-01, r^2= 2.2D+01
   Bfn.  Coefficient  Atom+Function         Bfn.  Coefficient  Atom+Function  
  ----- ------------  ---------------      ----- ------------  ---------------
   471     30.376357  28 C  s               217    -22.189612  14 C  s         
    13    -15.428245   2 C  s                56     13.255049   5 C  s         
   402    -11.963474  23 C  py              318    -10.763821  19 C  py        
   521    -10.523427  30 N  s               428      9.403615  25 C  s         
   564     -8.525709  33 C  s               174     -7.610756  11 C  s         

 Vector  194  Occ=0.000000D+00  E= 4.742719D-01
              MO Center= -2.8D-01,  5.4D-01,  1.4D-01, r^2= 2.0D+01
   Bfn.  Coefficient  Atom+Function         Bfn.  Coefficient  Atom+Function  
  ----- ------------  ---------------      ----- ------------  ---------------
    56     20.210933   5 C  s               114     12.837662   7 N  py        
   564    -10.780084  33 C  s               614      8.871972  35 N  s         
   318      7.606428  19 C  py              267     -7.493936  16 N  s         
   384      7.415299  22 H  s               368     -7.357914  21 N  py        
   148     -6.693798   9 C  py               13     -6.526620   2 C  s         

 Vector  195  Occ=0.000000D+00  E= 4.764130D-01
              MO Center=  5.8D-02, -6.1D-01, -7.0D-01, r^2= 2.2D+01
   Bfn.  Coefficient  Atom+Function         Bfn.  Coefficient  Atom+Function  
  ----- ------------  ---------------      ----- ------------  ---------------
   217     34.542091  14 C  s                56     28.096654   5 C  s         
    13    -24.381152   2 C  s               564    -16.720448  33 C  s         
   318     14.222755  19 C  py              114     13.808157   7 N  py        
   310    -10.819554  19 C  s                12    -10.227909   2 C  s         
   148     -9.738523   9 C  py               64     -7.930506   5 C  py        

 Vector  196  Occ=0.000000D+00  E= 4.814425D-01
              MO Center=  5.9D-02,  1.1D+00,  8.4D-01, r^2= 2.0D+01
   Bfn.  Coefficient  Atom+Function         Bfn.  Coefficient  Atom+Function  
  ----- ------------  ---------------      ----- ------------  ---------------
   428     26.100127  25 C  s               360    -21.564210  21 N  s         
   471    -14.933548  28 C  s               427     12.281354  25 C  s         
   451    -11.767998  26 H  s               384    -10.955601  22 H  s         
   614    -10.229683  35 N  s               460     -9.337751  27 H  s         
    13     -8.034958   2 C  s               564      7.874316  33 C  s         

 Vector  197  Occ=0.000000D+00  E= 4.847027D-01
              MO Center= -8.2D-01, -1.6D+00, -7.4D-02, r^2= 2.4D+01
   Bfn.  Coefficient  Atom+Function         Bfn.  Coefficient  Atom+Function  
  ----- ------------  ---------------      ----- ------------  ---------------
    56     38.245931   5 C  s                13    -33.347685   2 C  s         
   174    -17.479418  11 C  s               402    -11.523815  23 C  py        
    64    -10.912728   5 C  py              173    -10.614248  11 C  s         
   564      9.825511  33 C  s               197      9.108346  12 H  s         
   310     -8.945281  19 C  s               148      8.654724   9 C  py        

 Vector  198  Occ=0.000000D+00  E= 4.887955D-01
              MO Center=  8.1D-01, -9.3D-02, -5.1D-01, r^2= 1.9D+01
   Bfn.  Coefficient  Atom+Function         Bfn.  Coefficient  Atom+Function  
  ----- ------------  ---------------      ----- ------------  ---------------
   267     13.549738  16 N  s               471     -7.575085  28 C  s         
    56     -7.270803   5 C  s               217     -7.091293  14 C  s         
   428      6.884941  25 C  s               242      5.790355  15 O  s         
   614     -5.365750  35 N  s               427      5.285524  25 C  s         
   226     -5.233675  14 C  pz              564      5.045523  33 C  s         

 Vector  199  Occ=0.000000D+00  E= 4.919908D-01
              MO Center= -3.2D-01,  7.8D-04,  2.0D-01, r^2= 2.1D+01
   Bfn.  Coefficient  Atom+Function         Bfn.  Coefficient  Atom+Function  
  ----- ------------  ---------------      ----- ------------  ---------------
   318     23.714125  19 C  py              564    -21.662101  33 C  s         
   428     16.981375  25 C  s               174     12.889688  11 C  s         
   403    -11.780230  23 C  pz              360    -10.251745  21 N  s         
   394     -8.237165  23 C  s               148     -7.872131   9 C  py        
   435     -6.859110  25 C  px              113     -6.297756   7 N  px        

 Vector  200  Occ=0.000000D+00  E= 4.954491D-01
              MO Center=  1.7D-01,  2.6D-01,  3.4D-02, r^2= 2.5D+01
   Bfn.  Coefficient  Atom+Function         Bfn.  Coefficient  Atom+Function  
  ----- ------------  ---------------      ----- ------------  ---------------
   471     26.662964  28 C  s               148    -20.036683   9 C  py        
   521    -17.186374  30 N  s               174     10.064399  11 C  s         
   564     -9.041288  33 C  s               394     -8.956730  23 C  s         
   428      8.614810  25 C  s               496     -7.581920  29 O  s         
    56     -7.249382   5 C  s               460     -6.712053  27 H  s         

 Vector  201  Occ=0.000000D+00  E= 5.008623D-01
              MO Center=  4.1D-01, -1.6D-01,  3.7D-01, r^2= 2.2D+01
   Bfn.  Coefficient  Atom+Function         Bfn.  Coefficient  Atom+Function  
  ----- ------------  ---------------      ----- ------------  ---------------
   217     18.328267  14 C  s               471     16.971640  28 C  s         
    13    -13.401894   2 C  s               564    -12.042344  33 C  s         
   521     -9.711697  30 N  s               318      8.969691  19 C  py        
   428     -8.864206  25 C  s                64     -8.735959   5 C  py        
   206      7.807724  13 H  s               182     -7.732337  11 C  py        


 center of mass
 --------------
 x =  -0.00322445 y =   0.04100610 z =  -0.00698368

 moments of inertia (a.u.)
 ------------------
        8876.269698108210          -0.000000000001           0.000000000001
          -0.000000000001        2981.930095522149           0.000000000002
           0.000000000001           0.000000000002        9914.871592046324

  Mulliken analysis of the total density
  --------------------------------------

    Atom       Charge   Shell Charges
 -----------   ------   -------------------------------------------------------
    1 H    1     0.95   0.76  0.21  0.01  0.03 -0.06
    2 C    6     6.53   2.01  0.66  0.30  0.31  2.07  1.05 -0.03  0.06  0.12
    3 H    1     0.80   0.76  0.07  0.01  0.03 -0.06
    4 H    1     0.82   0.76  0.09  0.00  0.03 -0.07
    5 C    6     4.93   2.01  0.68  0.09 -0.18  1.89  0.31 -0.10  0.24  0.00
    6 O    8     8.73   2.01  0.82  0.99  0.15  2.79  1.83  0.14  0.01 -0.02
    7 N    7     7.79   2.01  0.72  0.94 -0.01  2.46  1.46  0.10  0.05  0.06
    8 H    1     0.99   0.75  0.20  0.01  0.06 -0.03
    9 C    6     6.00   2.01  0.66  0.08  0.03  2.00  1.00  0.11  0.14 -0.01
   10 H    1     1.20   0.78  0.40 -0.03  0.03  0.01
   11 C    6     6.55   2.01  0.67  0.65  0.11  2.06  0.81 -0.00  0.09  0.16
   12 H    1     0.84   0.77  0.13 -0.01  0.03 -0.08
   13 H    1     0.81   0.78  0.07  0.01  0.03 -0.08
   14 C    6     4.63   2.01  0.68  0.07 -0.01  1.91 -0.22  0.03  0.24 -0.09
   15 O    8     8.88   2.01  0.82  1.04  0.19  2.81  1.86  0.14  0.02  0.00
   16 N    7     7.26   2.01  0.72  0.77 -0.10  2.47  1.27  0.09  0.04 -0.02
   17 H    1     0.87   0.73  0.15 -0.02  0.06 -0.05
   18 H    1     0.97   0.76  0.21 -0.00  0.05 -0.05
   19 C    6     4.84   2.01  0.68  0.18  0.05  1.89  0.14  0.01  0.23 -0.37
   20 O    8     8.86   2.01  0.82  1.04  0.18  2.78  1.87  0.15  0.01 -0.00
   21 N    7     7.39   2.01  0.72  0.86 -0.08  2.45  1.44 -0.08  0.05  0.03
   22 H    1     0.86   0.75  0.20 -0.01  0.06 -0.12
   23 C    6     6.10   2.01  0.66  0.01  0.02  1.99  1.17  0.04  0.14  0.06
   24 H    1     1.05   0.78  0.26 -0.01  0.03 -0.00
   25 C    6     6.66   2.01  0.66  0.87  0.01  2.06  0.82 -0.02  0.09  0.17
   26 H    1     0.89   0.77  0.16 -0.01  0.03 -0.07
   27 H    1     0.85   0.77  0.14 -0.01  0.03 -0.08
   28 C    6     4.48   2.01  0.68  0.01  0.04  1.91 -0.26 -0.01  0.24 -0.15
   29 O    8     8.92   2.01  0.81  1.03  0.20  2.81  1.87  0.18  0.02  0.00
   30 N    7     7.19   2.01  0.72  0.78 -0.15  2.47  1.26  0.08  0.04 -0.02
   31 H    1     0.94   0.75  0.19 -0.01  0.06 -0.04
   32 H    1     0.98   0.75  0.20 -0.01  0.05 -0.03
   33 C    6     4.44   2.01  0.68  0.09 -0.13  1.89 -0.19 -0.02  0.24 -0.11
   34 O    8     8.91   2.01  0.82  1.05  0.22  2.80  1.86  0.16  0.01 -0.00
   35 N    7     7.21   2.01  0.72  0.83 -0.18  2.46  1.23  0.11  0.04 -0.01
   36 H    1     1.03   0.76  0.25 -0.01  0.05 -0.02
   37 H    1     0.84   0.73  0.15 -0.01  0.06 -0.10

       Multipole analysis of the density wrt the origin
       ------------------------------------------------

     L   x y z        total         open         nuclear
     -   - - -        -----         ----         -------
     0   0 0 0      0.000000      0.000000    152.000000

     1   1 0 0      0.527147      0.000000     -0.000000
     1   0 1 0     -0.145216      0.000000     -0.000000
     1   0 0 1      0.270294      0.000000      0.000000

     2   2 0 0    -96.492498      0.000000   1078.071412
     2   1 1 0     13.474050      0.000000     33.133682
     2   1 0 1     -3.143567      0.000000     -4.760960
     2   0 2 0    -83.546737      0.000000   4295.833480
     2   0 1 1      6.557898      0.000000     12.010143
     2   0 0 2    -87.085432      0.000000    541.264395


 Task  times  cpu:     5219.7s     wall:     5237.1s


                                NWChem Input Module
                                -------------------


 Summary of allocated global arrays
-----------------------------------
  No active global arrays


MA_summarize_allocated_blocks: starting scan ...
MA_summarize_allocated_blocks: scan completed: 0 heap blocks, 0 stack blocks
MA usage statistics:

	allocation statistics:
					      heap	     stack
					      ----	     -----
	current number of blocks	         0	         0
	maximum number of blocks	        16	        14
	current total bytes		         0	         0
	maximum total bytes		    138320	  29746680
	maximum total K-bytes		       139	     29747
	maximum total M-bytes		         1	        30


                                     CITATION
                                     --------
                Please cite the following reference when publishing
                           results obtained with NWChem:

          E. Apra, E. J. Bylaska, W. A. de Jong, N. Govind, K. Kowalski,
       T. P. Straatsma, M. Valiev, H. J. J. van Dam, Y. Alexeev, J. Anchell,
       V. Anisimov, F. W. Aquino, R. Atta-Fynn, J. Autschbach, N. P. Bauman,
     J. C. Becca, D. E. Bernholdt, K. Bhaskaran-Nair, S. Bogatko, P. Borowski,
         J. Boschen, J. Brabec, A. Bruner, E. Cauet, Y. Chen, G. N. Chuev,
      C. J. Cramer, J. Daily, M. J. O. Deegan, T. H. Dunning Jr., M. Dupuis,
   K. G. Dyall, G. I. Fann, S. A. Fischer, A. Fonari, H. Fruchtl, L. Gagliardi,
      J. Garza, N. Gawande, S. Ghosh, K. Glaesemann, A. W. Gotz, J. Hammond,
       V. Helms, E. D. Hermes, K. Hirao, S. Hirata, M. Jacquelin, L. Jensen,
   B. G. Johnson, H. Jonsson, R. A. Kendall, M. Klemm, R. Kobayashi, V. Konkov,
      S. Krishnamoorthy, M. Krishnan, Z. Lin, R. D. Lins, R. J. Littlefield,
      A. J. Logsdail, K. Lopata, W. Ma, A. V. Marenich, J. Martin del Campo,
   D. Mejia-Rodriguez, J. E. Moore, J. M. Mullin, T. Nakajima, D. R. Nascimento,
    J. A. Nichols, P. J. Nichols, J. Nieplocha, A. Otero-de-la-Roza, B. Palmer,
    A. Panyala, T. Pirojsirikul, B. Peng, R. Peverati, J. Pittner, L. Pollack,
   R. M. Richard, P. Sadayappan, G. C. Schatz, W. A. Shelton, D. W. Silverstein,
   D. M. A. Smith, T. A. Soares, D. Song, M. Swart, H. L. Taylor, G. S. Thomas,
            V. Tipparaju, D. G. Truhlar, K. Tsemekhman, T. Van Voorhis,
      A. Vazquez-Mayagoitia, P. Verma, O. Villa, A. Vishnu, K. D. Vogiatzis,
        D. Wang, J. H. Weare, M. J. Williamson, T. L. Windus, K. Wolinski,
        A. T. Wong, Q. Wu, C. Yang, Q. Yu, M. Zacharias, Z. Zhang, Y. Zhao,
                                and R. J. Harrison
                        "NWChem: Past, present, and future
                         J. Chem. Phys. 152, 184102 (2020)
                               doi:10.1063/5.0004997

                                      AUTHORS
                                      -------
  E. Apra, E. J. Bylaska, N. Govind, K. Kowalski, M. Valiev, D. Mejia-Rodriguez,
       A. Kunitsa, N. P. Bauman, A. Panyala, W. A. de Jong, T. P. Straatsma,
   H. J. J. van Dam, D. Wang, T. L. Windus, J. Hammond, J. Autschbach, A. Woods,
    K. Bhaskaran-Nair, J. Brabec, K. Lopata, S. A. Fischer, S. Krishnamoorthy,
     M. Jacquelin, W. Ma, M. Klemm, O. Villa, Y. Chen, V. Anisimov, F. Aquino,
     S. Hirata, M. T. Hackler, E. Hermes, L. Jensen, J. E. Moore, J. C. Becca,
      V. Konjkov, T. Risthaus, M. Malagoli, A. Marenich, A. Otero-de-la-Roza,
        J. Mullin, P. Nichols, R. Peverati, J. Pittner, Y. Zhao, P.-D. Fan,
        A. Fonari, M. J. Williamson, R. J. Harrison, J. R. Rehr, M. Dupuis,
     D. Silverstein, D. M. A. Smith, J. Nieplocha, V. Tipparaju, M. Krishnan,
     B. E. Van Kuiken, A. Vazquez-Mayagoitia, M. Swart, Q. Wu, T. Van Voorhis,
     A. A. Auer, M. Nooijen, L. D. Crosby, E. Brown, G. Cisneros, G. I. Fann,
   H. Fruchtl, J. Garza, K. Hirao, R. A. Kendall, J. A. Nichols, K. Tsemekhman,
    K. Wolinski, J. Anchell, D. E. Bernholdt, P. Borowski, T. Clark, D. Clerc,
   H. Dachsel, M. J. O. Deegan, K. Dyall, D. Elwood, E. Glendening, M. Gutowski,
   A. C. Hess, J. Jaffe, B. G. Johnson, J. Ju, R. Kobayashi, R. Kutteh, Z. Lin,
   R. Littlefield, X. Long, B. Meng, T. Nakajima, S. Niu, L. Pollack, M. Rosing,
   K. Glaesemann, G. Sandrone, M. Stave, H. Taylor, G. Thomas, J. H. van Lenthe,
                               A. T. Wong, Z. Zhang.

 Total times  cpu:     5219.7s     wall:     5237.6s
