export TMOUT=5400
export TMPDIR=/tmp
export PTMPDIR=/tmp/ptmp
 argument  1 = inputs/ASN_CYS_0.nw



============================== echo of input deck ==============================
start ASN_CYS_0
geometry
H          7.50200        1.92600       -1.47700
C          7.04000        2.11600       -0.50900
H          7.69700        2.74300        0.09100
H          6.86400        1.17100        0.00200
C          5.72400        2.82600       -0.71800
O          5.36200        3.13200       -1.84800
N          5.01800        3.10900        0.37400
H          5.40800        2.82100        1.26300
C          3.70400        3.77100        0.41500
H          3.07200        3.30100       -0.34100
C          3.07100        3.48800        1.79300
H          2.12800        4.02500        1.89200
H          2.85600        2.42200        1.87200
C          3.98900        3.85700        2.94600
O          4.75900        3.04500        3.42400
N          3.98800        5.09300        3.37600
H          4.62500        5.31900        4.11800
H          3.47800        5.79100        2.85200
C          3.74200        5.28100        0.05700
O          3.27000        6.12700        0.81700
N          4.31600        5.62200       -1.09800
H          4.66800        4.86000       -1.66500
C          4.64300        6.98100       -1.55500
H          5.08600        7.51400       -0.71300
C          5.71400        6.88200       -2.65700
H          5.27900        6.44400       -3.55700
H          6.05700        7.88900       -2.90500
S          7.14000        5.88600       -2.12100
H          6.57500        4.67900       -2.28900
C          3.42900        7.83100       -2.00700
O          3.51900        8.60800       -2.95000
N          2.26600        7.68900       -1.38600
H          2.20900        7.09100       -0.57400
H          1.48600        8.24200       -1.69800
end

basis
 * library aug-cc-pvdz
end

echo

scf
 direct
end

task scf energy
================================================================================


                                         
                                         


             Northwest Computational Chemistry Package (NWChem) 7.2.0
             --------------------------------------------------------


                    Environmental Molecular Sciences Laboratory
                       Pacific Northwest National Laboratory
                                Richland, WA 99352

                              Copyright (c) 1994-2022
                       Pacific Northwest National Laboratory
                            Battelle Memorial Institute

             NWChem is an open-source computational chemistry package
                        distributed under the terms of the
                      Educational Community License (ECL) 2.0
             A copy of the license is included with this distribution
                              in the LICENSE.TXT file

                                  ACKNOWLEDGMENT
                                  --------------

            This software and its documentation were developed at the
            EMSL at Pacific Northwest National Laboratory, a multiprogram
            national laboratory, operated for the U.S. Department of Energy
            by Battelle under Contract Number DE-AC05-76RL01830. Support
            for this work was provided by the Department of Energy Office
            of Biological and Environmental Research, Office of Basic
            Energy Sciences, and the Office of Advanced Scientific Computing.


           Job information
           ---------------

    hostname        = nova21-swift-1
    program         = /opt/rit/el9/20230413/app/linux-rhel9-x86_64_v3/gcc-11.2.1/nwchem-7.2.0-oxtctbuhfuzyfaoziquq6bki22grib3g/bin/nwchem
    date            = Thu Jul 10 03:59:43 2025

    compiled        = Wed_May_17_23:46:39_2023
    source          = /tmp/root/spack-stage/spack-stage-nwchem-7.2.0-oxtctbuhfuzyfaoziquq6bki22grib3g/spack-src
    nwchem branch   = 7.2.0
    nwchem revision = d0d141fd
    ga revision     = 5.8.0
    use scalapack   = T
    input           = inputs/ASN_CYS_0.nw
    prefix          = ASN_CYS_0.
    data base       = ./ASN_CYS_0.db
    status          = startup
    nproc           =        8
    time left       =     -1s



           Memory information
           ------------------

    heap     =   26214396 doubles =    200.0 Mbytes
    stack    =   26214401 doubles =    200.0 Mbytes
    global   =   52428800 doubles =    400.0 Mbytes (distinct from heap & stack)
    total    =  104857597 doubles =    800.0 Mbytes
    verify   = yes
    hardfail = no 


           Directory information
           ---------------------

  0 permanent = .
  0 scratch   = .




                                NWChem Input Module
                                -------------------



 Scaling coordinates for geometry "geometry" by  1.889725989
 (inverse scale =  0.529177249)

 C1  symmetry detected

          ------
          auto-z
          ------
  no constraints, skipping    0.0000000000000000     
  no constraints, skipping    0.0000000000000000     


                             Geometry "geometry" -> ""
                             -------------------------

 Output coordinates in angstroms (scale by  1.889725989 to convert to a.u.)

  No.       Tag          Charge          X              Y              Z
 ---- ---------------- ---------- -------------- -------------- --------------
    1 H                    1.0000     4.20984846    -1.29656539    -0.44108932
    2 C                    6.0000     3.33648106    -1.88163160    -0.15561618
    3 H                    1.0000     3.24863708    -1.89871944     0.92917386
    4 H                    1.0000     3.43954974    -2.89738481    -0.53343129
    5 C                    6.0000     2.10013281    -1.24907142    -0.74802452
    6 O                    8.0000     2.18811057    -0.21020756    -1.39192031
    7 N                    7.0000     0.94330548    -1.86286892    -0.51139789
    8 H                    1.0000     0.97577906    -2.71200799     0.03930467
    9 C                    6.0000    -0.38042907    -1.44691688    -1.00255135
   10 H                    1.0000    -0.28088701    -1.20870555    -2.06330898
   11 C                    6.0000    -1.33342383    -2.65410043    -0.88350990
   12 H                    1.0000    -2.34511970    -2.36496490    -1.16686675
   13 H                    1.0000    -1.00568122    -3.43353426    -1.57190636
   14 C                    6.0000    -1.34860887    -3.25270071     0.51282141
   15 O                    8.0000    -0.59041583    -4.15304920     0.82143752
   16 N                    7.0000    -2.14993436    -2.73347058     1.40773735
   17 H                    1.0000    -2.11959055    -3.12639188     2.33083058
   18 H                    1.0000    -2.63750404    -1.87602826     1.18649433
   19 C                    6.0000    -0.93279630    -0.16189289    -0.32926701
   20 O                    8.0000    -2.04230191    -0.15007939     0.20454733
   21 N                    7.0000    -0.15261169     0.92018912    -0.34314069
   22 H                    1.0000     0.73930741     0.82288284    -0.81329898
   23 C                    6.0000    -0.37070854     2.17635618     0.38975568
   24 H                    1.0000    -0.68085634     1.91717989     1.40264165
   25 C                    6.0000     0.97248195     2.92240823     0.49218436
   26 H                    1.0000     1.26802053     3.28856884    -0.49252491
   27 H                    1.0000     0.84521651     3.78657513     1.14809677
   28 S                   16.0000     2.28427489     1.85568339     1.16604295
   29 H                    1.0000     2.53132571     1.16239805     0.04237959
   30 C                    6.0000    -1.49043927     3.08271787    -0.18060523
   31 O                    8.0000    -1.38080335     4.30294543    -0.17047340
   32 N                    7.0000    -2.56749955     2.52785234    -0.71952953
   33 H                    1.0000    -2.68152290     1.52522293    -0.67559849
   34 H                    1.0000    -3.28059567     3.13074244    -1.09312082

      Atomic Mass 
      ----------- 

      H                  1.007825
      C                 12.000000
      O                 15.994910
      N                 14.003070
      S                 31.972070


 Effective nuclear repulsion energy (a.u.)    1576.7963300767

            Nuclear Dipole moment (a.u.) 
            ----------------------------
        X                 Y               Z
 ---------------- ---------------- ----------------
    -0.0000000000     0.0000000000    -0.0000000000



                                Z-matrix (autoz)
                                -------- 

 Units are Angstrom for bonds and degrees for angles

      Type          Name      I     J     K     L     M      Value
      ----------- --------  ----- ----- ----- ----- ----- ----------
    1 Stretch                  1     2                       1.08930
    2 Stretch                  2     3                       1.08848
    3 Stretch                  2     4                       1.08863
    4 Stretch                  2     5                       1.50985
    5 Stretch                  5     6                       1.22539
    6 Stretch                  5     7                       1.33079
    7 Stretch                  7     8                       1.01260
    8 Stretch                  7     9                       1.47191
    9 Stretch                  9    10                       1.09172
   10 Stretch                  9    11                       1.54262
   11 Stretch                  9    19                       1.55232
   12 Stretch                 11    12                       1.08969
   13 Stretch                 11    13                       1.09033
   14 Stretch                 11    14                       1.51931
   15 Stretch                 14    15                       1.21685
   16 Stretch                 14    16                       1.30866
   17 Stretch                 16    17                       1.00370
   18 Stretch                 16    18                       1.01088
   19 Stretch                 19    20                       1.23130
   20 Stretch                 19    21                       1.33408
   21 Stretch                 21    22                       1.01293
   22 Stretch                 21    23                       1.47060
   23 Stretch                 23    24                       1.09055
   24 Stretch                 23    25                       1.53989
   25 Stretch                 23    30                       1.54939
   26 Stretch                 25    26                       1.09136
   27 Stretch                 25    27                       1.09234
   28 Stretch                 25    28                       1.82011
   29 Stretch                 28    29                       1.34324
   30 Stretch                 30    31                       1.22518
   31 Stretch                 30    32                       1.32604
   32 Stretch                 32    33                       1.01005
   33 Stretch                 32    34                       1.00576
   34 Bend                     1     2     3               109.53129
   35 Bend                     1     2     4               109.52906
   36 Bend                     1     2     5               109.18902
   37 Bend                     2     5     6               120.16988
   38 Bend                     2     5     7               116.66776
   39 Bend                     3     2     4               109.80820
   40 Bend                     3     2     5               109.36150
   41 Bend                     4     2     5               109.40628
   42 Bend                     5     7     8               117.10340
   43 Bend                     5     7     9               126.30612
   44 Bend                     6     5     7               123.15223
   45 Bend                     7     9    10               107.69085
   46 Bend                     7     9    11               107.98043
   47 Bend                     7     9    19               114.15559
   48 Bend                     8     7     9               116.56988
   49 Bend                     9    11    12               110.23394
   50 Bend                     9    11    13               108.96549
   51 Bend                     9    11    14               112.66986
   52 Bend                     9    19    20               121.10541
   53 Bend                     9    19    21               117.31185
   54 Bend                    10     9    11               107.58137
   55 Bend                    10     9    19               105.85737
   56 Bend                    11     9    19               113.23540
   57 Bend                    11    14    15               121.22364
   58 Bend                    11    14    16               118.57349
   59 Bend                    12    11    13               107.73281
   60 Bend                    12    11    14               109.52693
   61 Bend                    13    11    14               107.55453
   62 Bend                    14    16    17               117.07061
   63 Bend                    14    16    18               118.82992
   64 Bend                    15    14    16               120.10966
   65 Bend                    17    16    18               123.22444
   66 Bend                    19    21    22               116.22203
   67 Bend                    19    21    23               126.93602
   68 Bend                    20    19    21               121.58002
   69 Bend                    21    23    24               107.58068
   70 Bend                    21    23    25               108.51967
   71 Bend                    21    23    30               115.04966
   72 Bend                    22    21    23               116.35696
   73 Bend                    23    25    26               109.80015
   74 Bend                    23    25    27               108.75974
   75 Bend                    23    25    28               111.67511
   76 Bend                    23    30    31               120.99073
   77 Bend                    23    30    32               119.46104
   78 Bend                    24    23    25               107.54349
   79 Bend                    24    23    30               105.98573
   80 Bend                    25    23    30               111.80522
   81 Bend                    25    28    29                97.20033
   82 Bend                    26    25    27               107.93336
   83 Bend                    26    25    28               109.60377
   84 Bend                    27    25    28               108.98466
   85 Bend                    30    32    33               119.29996
   86 Bend                    30    32    34               118.42608
   87 Bend                    31    30    32               119.52414
   88 Bend                    33    32    34               122.08325
   89 Torsion                  1     2     5     6          -2.37073
   90 Torsion                  1     2     5     7         178.75100
   91 Torsion                  2     5     7     8          -0.58052
   92 Torsion                  2     5     7     9        -178.86507
   93 Torsion                  3     2     5     6         117.46430
   94 Torsion                  3     2     5     7         -61.41398
   95 Torsion                  4     2     5     6        -122.23004
   96 Torsion                  4     2     5     7          58.89168
   97 Torsion                  5     7     9    10          46.07618
   98 Torsion                  5     7     9    11         161.97926
   99 Torsion                  5     7     9    19         -71.14209
  100 Torsion                  6     5     7     8        -179.42219
  101 Torsion                  6     5     7     9           2.29327
  102 Torsion                  7     9    11    12         175.70107
  103 Torsion                  7     9    11    13         -66.27014
  104 Torsion                  7     9    11    14          53.01595
  105 Torsion                  7     9    19    20        -125.80158
  106 Torsion                  7     9    19    21          53.60715
  107 Torsion                  8     7     9    10        -132.21643
  108 Torsion                  8     7     9    11         -16.31335
  109 Torsion                  8     7     9    19         110.56530
  110 Torsion                  9    11    14    15         -91.00690
  111 Torsion                  9    11    14    16          85.48582
  112 Torsion                  9    19    21    22           1.24401
  113 Torsion                  9    19    21    23        -170.42377
  114 Torsion                 10     9    11    12         -68.32430
  115 Torsion                 10     9    11    13          49.70450
  116 Torsion                 10     9    11    14         168.99059
  117 Torsion                 10     9    19    20         115.92939
  118 Torsion                 10     9    19    21         -64.66188
  119 Torsion                 11     9    19    20          -1.69542
  120 Torsion                 11     9    19    21         177.71331
  121 Torsion                 11    14    16    17        -178.01662
  122 Torsion                 11    14    16    18          -8.37406
  123 Torsion                 12    11     9    19          48.28930
  124 Torsion                 12    11    14    15         145.91252
  125 Torsion                 12    11    14    16         -37.59476
  126 Torsion                 13    11     9    19         166.31810
  127 Torsion                 13    11    14    15          29.09557
  128 Torsion                 13    11    14    16        -154.41171
  129 Torsion                 14    11     9    19         -74.39581
  130 Torsion                 15    14    16    17          -1.48364
  131 Torsion                 15    14    16    18         168.15892
  132 Torsion                 19    21    23    24          43.76898
  133 Torsion                 19    21    23    25         159.84759
  134 Torsion                 19    21    23    30         -74.06869
  135 Torsion                 20    19    21    22        -179.35025
  136 Torsion                 20    19    21    23           8.98197
  137 Torsion                 21    23    25    26          69.61020
  138 Torsion                 21    23    25    27        -172.49178
  139 Torsion                 21    23    25    28         -52.18050
  140 Torsion                 21    23    30    31        -143.41096
  141 Torsion                 21    23    30    32          34.79535
  142 Torsion                 22    21    23    24        -127.88903
  143 Torsion                 22    21    23    25         -11.81042
  144 Torsion                 22    21    23    30         114.27329
  145 Torsion                 23    25    28    29          78.00776
  146 Torsion                 23    30    32    33           5.50168
  147 Torsion                 23    30    32    34        -179.41083
  148 Torsion                 24    23    25    26        -174.28715
  149 Torsion                 24    23    25    27         -56.38914
  150 Torsion                 24    23    25    28          63.92214
  151 Torsion                 24    23    30    31          97.85737
  152 Torsion                 24    23    30    32         -83.93631
  153 Torsion                 25    23    30    31         -19.03591
  154 Torsion                 25    23    30    32         159.17040
  155 Torsion                 26    25    23    30         -58.33837
  156 Torsion                 26    25    28    29         -43.89615
  157 Torsion                 27    25    23    30          59.55965
  158 Torsion                 27    25    28    29        -161.81282
  159 Torsion                 28    25    23    30         179.87093
  160 Torsion                 31    30    32    33        -176.26541
  161 Torsion                 31    30    32    34          -1.17792


            XYZ format geometry
            -------------------
    34
 geometry
 H                     4.20984846    -1.29656539    -0.44108932
 C                     3.33648106    -1.88163160    -0.15561618
 H                     3.24863708    -1.89871944     0.92917386
 H                     3.43954974    -2.89738481    -0.53343129
 C                     2.10013281    -1.24907142    -0.74802452
 O                     2.18811057    -0.21020756    -1.39192031
 N                     0.94330548    -1.86286892    -0.51139789
 H                     0.97577906    -2.71200799     0.03930467
 C                    -0.38042907    -1.44691688    -1.00255135
 H                    -0.28088701    -1.20870555    -2.06330898
 C                    -1.33342383    -2.65410043    -0.88350990
 H                    -2.34511970    -2.36496490    -1.16686675
 H                    -1.00568122    -3.43353426    -1.57190636
 C                    -1.34860887    -3.25270071     0.51282141
 O                    -0.59041583    -4.15304920     0.82143752
 N                    -2.14993436    -2.73347058     1.40773735
 H                    -2.11959055    -3.12639188     2.33083058
 H                    -2.63750404    -1.87602826     1.18649433
 C                    -0.93279630    -0.16189289    -0.32926701
 O                    -2.04230191    -0.15007939     0.20454733
 N                    -0.15261169     0.92018912    -0.34314069
 H                     0.73930741     0.82288284    -0.81329898
 C                    -0.37070854     2.17635618     0.38975568
 H                    -0.68085634     1.91717989     1.40264165
 C                     0.97248195     2.92240823     0.49218436
 H                     1.26802053     3.28856884    -0.49252491
 H                     0.84521651     3.78657513     1.14809677
 S                     2.28427489     1.85568339     1.16604295
 H                     2.53132571     1.16239805     0.04237959
 C                    -1.49043927     3.08271787    -0.18060523
 O                    -1.38080335     4.30294543    -0.17047340
 N                    -2.56749955     2.52785234    -0.71952953
 H                    -2.68152290     1.52522293    -0.67559849
 H                    -3.28059567     3.13074244    -1.09312082

 ==============================================================================
                                internuclear distances
 ------------------------------------------------------------------------------
       center one      |      center two      | atomic units |  angstroms
 ------------------------------------------------------------------------------
    2 C                |   1 H                |     2.05847  |     1.08930
    3 H                |   2 C                |     2.05692  |     1.08848
    4 H                |   2 C                |     2.05722  |     1.08863
    5 C                |   2 C                |     2.85320  |     1.50985
    6 O                |   5 C                |     2.31565  |     1.22539
    7 N                |   5 C                |     2.51482  |     1.33079
    8 H                |   7 N                |     1.91354  |     1.01260
    9 C                |   7 N                |     2.78151  |     1.47191
   10 H                |   9 C                |     2.06306  |     1.09172
   11 C                |   9 C                |     2.91512  |     1.54262
   12 H                |  11 C                |     2.05921  |     1.08969
   13 H                |  11 C                |     2.06043  |     1.09033
   14 C                |  11 C                |     2.87107  |     1.51931
   15 O                |  14 C                |     2.29952  |     1.21685
   16 N                |  14 C                |     2.47301  |     1.30866
   17 H                |  16 N                |     1.89671  |     1.00370
   18 H                |  16 N                |     1.91029  |     1.01088
   19 C                |   9 C                |     2.93347  |     1.55232
   20 O                |  19 C                |     2.32682  |     1.23130
   21 N                |  19 C                |     2.52105  |     1.33408
   22 H                |  21 N                |     1.91417  |     1.01293
   23 C                |  21 N                |     2.77903  |     1.47060
   24 H                |  23 C                |     2.06084  |     1.09055
   25 C                |  23 C                |     2.90996  |     1.53989
   26 H                |  25 C                |     2.06237  |     1.09136
   27 H                |  25 C                |     2.06422  |     1.09234
   28 S                |  25 C                |     3.43950  |     1.82011
   29 H                |  28 S                |     2.53836  |     1.34324
   30 C                |  23 C                |     2.92792  |     1.54939
   31 O                |  30 C                |     2.31526  |     1.22518
   32 N                |  30 C                |     2.50585  |     1.32604
   33 H                |  32 N                |     1.90871  |     1.01005
   34 H                |  32 N                |     1.90061  |     1.00576
 ------------------------------------------------------------------------------
                         number of included internuclear distances:         33
 ==============================================================================



 ==============================================================================
                                 internuclear angles
 ------------------------------------------------------------------------------
        center 1       |       center 2       |       center 3       |  degrees
 ------------------------------------------------------------------------------
    1 H                |   2 C                |   3 H                |   109.53
    1 H                |   2 C                |   4 H                |   109.53
    1 H                |   2 C                |   5 C                |   109.19
    3 H                |   2 C                |   4 H                |   109.81
    3 H                |   2 C                |   5 C                |   109.36
    4 H                |   2 C                |   5 C                |   109.41
    2 C                |   5 C                |   6 O                |   120.17
    2 C                |   5 C                |   7 N                |   116.67
    6 O                |   5 C                |   7 N                |   123.15
    5 C                |   7 N                |   8 H                |   117.10
    5 C                |   7 N                |   9 C                |   126.31
    8 H                |   7 N                |   9 C                |   116.57
    7 N                |   9 C                |  10 H                |   107.69
    7 N                |   9 C                |  11 C                |   107.98
    7 N                |   9 C                |  19 C                |   114.16
   10 H                |   9 C                |  11 C                |   107.58
   10 H                |   9 C                |  19 C                |   105.86
   11 C                |   9 C                |  19 C                |   113.24
    9 C                |  11 C                |  12 H                |   110.23
    9 C                |  11 C                |  13 H                |   108.97
    9 C                |  11 C                |  14 C                |   112.67
   12 H                |  11 C                |  13 H                |   107.73
   12 H                |  11 C                |  14 C                |   109.53
   13 H                |  11 C                |  14 C                |   107.55
   11 C                |  14 C                |  15 O                |   121.22
   11 C                |  14 C                |  16 N                |   118.57
   15 O                |  14 C                |  16 N                |   120.11
   14 C                |  16 N                |  17 H                |   117.07
   14 C                |  16 N                |  18 H                |   118.83
   17 H                |  16 N                |  18 H                |   123.22
    9 C                |  19 C                |  20 O                |   121.11
    9 C                |  19 C                |  21 N                |   117.31
   20 O                |  19 C                |  21 N                |   121.58
   19 C                |  21 N                |  22 H                |   116.22
   19 C                |  21 N                |  23 C                |   126.94
   22 H                |  21 N                |  23 C                |   116.36
   21 N                |  23 C                |  24 H                |   107.58
   21 N                |  23 C                |  25 C                |   108.52
   21 N                |  23 C                |  30 C                |   115.05
   24 H                |  23 C                |  25 C                |   107.54
   24 H                |  23 C                |  30 C                |   105.99
   25 C                |  23 C                |  30 C                |   111.81
   23 C                |  25 C                |  26 H                |   109.80
   23 C                |  25 C                |  27 H                |   108.76
   23 C                |  25 C                |  28 S                |   111.68
   26 H                |  25 C                |  27 H                |   107.93
   26 H                |  25 C                |  28 S                |   109.60
   27 H                |  25 C                |  28 S                |   108.98
   25 C                |  28 S                |  29 H                |    97.20
   23 C                |  30 C                |  31 O                |   120.99
   23 C                |  30 C                |  32 N                |   119.46
   31 O                |  30 C                |  32 N                |   119.52
   30 C                |  32 N                |  33 H                |   119.30
   30 C                |  32 N                |  34 H                |   118.43
   33 H                |  32 N                |  34 H                |   122.08
 ------------------------------------------------------------------------------
                            number of included internuclear angles:         55
 ==============================================================================



  library name resolved from: environment
  library file name is: </opt/rit/el9/20230413/app/linux-rhel9-x86_64_v3/gcc-11.2.1/nwchem-7.2.0-oxtctbuhfuzyfaoziquq6bki22grib3g/share/nwchem/libraries/>
  


 Summary of "ao basis" -> "" (cartesian)
 ------------------------------------------------------------------------------
       Tag                 Description            Shells   Functions and Types
 ---------------- ------------------------------  ------  ---------------------
 *                        aug-cc-pvdz                 on all atoms 


                      Basis "ao basis" -> "ao basis" (cartesian)
                      -----
  H (Hydrogen)
  ------------
            Exponent  Coefficients 
       -------------- ---------------------------------------------------------
  1 S  1.30100000E+01  0.019685
  1 S  1.96200000E+00  0.137977
  1 S  4.44600000E-01  0.478148

  2 S  1.22000000E-01  1.000000

  3 S  2.97400000E-02  1.000000

  4 P  7.27000000E-01  1.000000

  5 P  1.41000000E-01  1.000000

  C (Carbon)
  ----------
            Exponent  Coefficients 
       -------------- ---------------------------------------------------------
  1 S  6.66500000E+03  0.000692
  1 S  1.00000000E+03  0.005329
  1 S  2.28000000E+02  0.027077
  1 S  6.47100000E+01  0.101718
  1 S  2.10600000E+01  0.274740
  1 S  7.49500000E+00  0.448564
  1 S  2.79700000E+00  0.285074
  1 S  5.21500000E-01  0.015204

  2 S  6.66500000E+03 -0.000146
  2 S  1.00000000E+03 -0.001154
  2 S  2.28000000E+02 -0.005725
  2 S  6.47100000E+01 -0.023312
  2 S  2.10600000E+01 -0.063955
  2 S  7.49500000E+00 -0.149981
  2 S  2.79700000E+00 -0.127262
  2 S  5.21500000E-01  0.544529

  3 S  1.59600000E-01  1.000000

  4 S  4.69000000E-02  1.000000

  5 P  9.43900000E+00  0.038109
  5 P  2.00200000E+00  0.209480
  5 P  5.45600000E-01  0.508557

  6 P  1.51700000E-01  1.000000

  7 P  4.04100000E-02  1.000000

  8 D  5.50000000E-01  1.000000

  9 D  1.51000000E-01  1.000000

  O (Oxygen)
  ----------
            Exponent  Coefficients 
       -------------- ---------------------------------------------------------
  1 S  1.17200000E+04  0.000710
  1 S  1.75900000E+03  0.005470
  1 S  4.00800000E+02  0.027837
  1 S  1.13700000E+02  0.104800
  1 S  3.70300000E+01  0.283062
  1 S  1.32700000E+01  0.448719
  1 S  5.02500000E+00  0.270952
  1 S  1.01300000E+00  0.015458

  2 S  1.17200000E+04 -0.000160
  2 S  1.75900000E+03 -0.001263
  2 S  4.00800000E+02 -0.006267
  2 S  1.13700000E+02 -0.025716
  2 S  3.70300000E+01 -0.070924
  2 S  1.32700000E+01 -0.165411
  2 S  5.02500000E+00 -0.116955
  2 S  1.01300000E+00  0.557368

  3 S  3.02300000E-01  1.000000

  4 S  7.89600000E-02  1.000000

  5 P  1.77000000E+01  0.043018
  5 P  3.85400000E+00  0.228913
  5 P  1.04600000E+00  0.508728

  6 P  2.75300000E-01  1.000000

  7 P  6.85600000E-02  1.000000

  8 D  1.18500000E+00  1.000000

  9 D  3.32000000E-01  1.000000

  N (Nitrogen)
  ------------
            Exponent  Coefficients 
       -------------- ---------------------------------------------------------
  1 S  9.04600000E+03  0.000700
  1 S  1.35700000E+03  0.005389
  1 S  3.09300000E+02  0.027406
  1 S  8.77300000E+01  0.103207
  1 S  2.85600000E+01  0.278723
  1 S  1.02100000E+01  0.448540
  1 S  3.83800000E+00  0.278238
  1 S  7.46600000E-01  0.015440

  2 S  9.04600000E+03 -0.000153
  2 S  1.35700000E+03 -0.001208
  2 S  3.09300000E+02 -0.005992
  2 S  8.77300000E+01 -0.024544
  2 S  2.85600000E+01 -0.067459
  2 S  1.02100000E+01 -0.158078
  2 S  3.83800000E+00 -0.121831
  2 S  7.46600000E-01  0.549003

  3 S  2.24800000E-01  1.000000

  4 S  6.12400000E-02  1.000000

  5 P  1.35500000E+01  0.039919
  5 P  2.91700000E+00  0.217169
  5 P  7.97300000E-01  0.510319

  6 P  2.18500000E-01  1.000000

  7 P  5.61100000E-02  1.000000

  8 D  8.17000000E-01  1.000000

  9 D  2.30000000E-01  1.000000

  S (Sulphur)
  -----------
            Exponent  Coefficients 
       -------------- ---------------------------------------------------------
  1 S  1.10800000E+05  0.000248
  1 S  1.66100000E+04  0.001920
  1 S  3.78100000E+03  0.009962
  1 S  1.07100000E+03  0.040298
  1 S  3.49800000E+02  0.128604
  1 S  1.26300000E+02  0.303480
  1 S  4.92600000E+01  0.421432
  1 S  2.01600000E+01  0.230781
  1 S  5.72000000E+00  0.017897
  1 S  2.18200000E+00 -0.002975
  1 S  4.32700000E-01  0.000850

  2 S  1.10800000E+05 -0.000069
  2 S  1.66100000E+04 -0.000528
  2 S  3.78100000E+03 -0.002797
  2 S  1.07100000E+03 -0.011265
  2 S  3.49800000E+02 -0.038883
  2 S  1.26300000E+02 -0.099503
  2 S  4.92600000E+01 -0.199740
  2 S  2.01600000E+01 -0.123360
  2 S  5.72000000E+00  0.513194
  2 S  2.18200000E+00  0.607120
  2 S  4.32700000E-01  0.039675

  3 S  1.10800000E+05  0.000020
  3 S  1.66100000E+04  0.000153
  3 S  3.78100000E+03  0.000810
  3 S  1.07100000E+03  0.003290
  3 S  3.49800000E+02  0.011297
  3 S  1.26300000E+02  0.029639
  3 S  4.92600000E+01  0.059985
  3 S  2.01600000E+01  0.041325
  3 S  5.72000000E+00 -0.207474
  3 S  2.18200000E+00 -0.392889
  3 S  4.32700000E-01  0.632840

  4 S  1.57000000E-01  1.000000

  5 S  5.07000000E-02  1.000000

  6 P  3.99700000E+02  0.004475
  6 P  9.41900000E+01  0.034171
  6 P  2.97500000E+01  0.144250
  6 P  1.07700000E+01  0.353928
  6 P  4.11900000E+00  0.459085
  6 P  1.62500000E+00  0.206383
  6 P  4.72600000E-01  0.010214

  7 P  3.99700000E+02 -0.001163
  7 P  9.41900000E+01 -0.008657
  7 P  2.97500000E+01 -0.039089
  7 P  1.07700000E+01 -0.093463
  7 P  4.11900000E+00 -0.147994
  7 P  1.62500000E+00  0.030190
  7 P  4.72600000E-01  0.561573

  8 P  1.40700000E-01  1.000000

  9 P  3.99000000E-02  1.000000

 10 D  4.79000000E-01  1.000000

 11 D  1.52000000E-01  1.000000



 Summary of "ao basis" -> "ao basis" (cartesian)
 ------------------------------------------------------------------------------
       Tag                 Description            Shells   Functions and Types
 ---------------- ------------------------------  ------  ---------------------
 H                        aug-cc-pvdz                5        9   3s2p
 C                        aug-cc-pvdz                9       25   4s3p2d
 O                        aug-cc-pvdz                9       25   4s3p2d
 N                        aug-cc-pvdz                9       25   4s3p2d
 S                        aug-cc-pvdz               11       29   5s4p2d


                                 NWChem SCF Module
                                 -----------------



  ao basis        = "ao basis"
  functions       =   598
  atoms           =    34
  closed shells   =    73
  open shells     =     0
  charge          =   0.00
  wavefunction    = RHF 
  input vectors   = atomic
  output vectors  = ./ASN_CYS_0.movecs
  use symmetry    = F
  symmetry adapt  = F


 Summary of "ao basis" -> "ao basis" (cartesian)
 ------------------------------------------------------------------------------
       Tag                 Description            Shells   Functions and Types
 ---------------- ------------------------------  ------  ---------------------
 H                        aug-cc-pvdz                5        9   3s2p
 C                        aug-cc-pvdz                9       25   4s3p2d
 O                        aug-cc-pvdz                9       25   4s3p2d
 N                        aug-cc-pvdz                9       25   4s3p2d
 S                        aug-cc-pvdz               11       29   5s4p2d



 Forming initial guess at       0.6s


 !! The overlap matrix has   4 vectors deemed linearly dependent with
    eigenvalues:
 2.30D-06 4.73D-06 7.33D-06 9.98D-06


      Superposition of Atomic Density Guess
      -------------------------------------

 Sum of atomic energies:       -1260.74949013

      Non-variational initial energy
      ------------------------------

 Total energy =   -1271.976631
 1-e energy   =   -4860.604696
 2-e energy   =    2011.831736
 HOMO         =      -0.290601
 LUMO         =       0.002082


 Starting SCF solution at     219.9s



 ----------------------------------------------
         Quadratically convergent ROHF

 Convergence threshold     :          1.000E-04
 Maximum no. of iterations :           30
 Final Fock-matrix accuracy:          1.000E-10
 ----------------------------------------------


              iter       energy          gnorm     gmax       time
             ----- ------------------- --------- --------- --------
                 1    -1264.6927136108  2.63D+00  1.31D-01    454.2
                 2    -1265.0562579302  8.54D-01  4.37D-02    934.2
                 3    -1265.1213976678  6.77D-02  3.78D-03   1609.8
                 4    -1265.1221231873  4.24D-03  3.31D-04   2502.5
                 5    -1265.1221266650  9.67D-06  5.96D-07   4047.6


       Final RHF  results 
       ------------------ 

         Total SCF energy =  -1265.122126664970
      One-electron energy =  -4871.626631505265
      Two-electron energy =   2029.708174763573
 Nuclear repulsion energy =   1576.796330076723

        Time for solution =   3828.7s


             Final eigenvalues
             -----------------

              1      
    1  -91.9537
    2  -20.5654
    3  -20.5603
    4  -20.5375
    5  -20.5246
    6  -15.6287
    7  -15.6148
    8  -15.5975
    9  -15.5873
   10  -11.3936
   11  -11.3885
   12  -11.3681
   13  -11.3602
   14  -11.3381
   15  -11.3113
   16  -11.2809
   17  -11.2788
   18  -11.2620
   19   -8.9554
   20   -6.6377
   21   -6.6366
   22   -6.6345
   23   -1.4312
   24   -1.4227
   25   -1.4090
   26   -1.3870
   27   -1.2805
   28   -1.2657
   29   -1.2358
   30   -1.2157
   31   -1.1027
   32   -1.0793
   33   -1.0227
   34   -0.9869
   35   -0.9419
   36   -0.8591
   37   -0.8489
   38   -0.8266
   39   -0.8071
   40   -0.7935
   41   -0.7609
   42   -0.7491
   43   -0.7418
   44   -0.7180
   45   -0.7034
   46   -0.6900
   47   -0.6767
   48   -0.6689
   49   -0.6444
   50   -0.6306
   51   -0.6263
   52   -0.6187
   53   -0.6018
   54   -0.5993
   55   -0.5945
   56   -0.5860
   57   -0.5792
   58   -0.5675
   59   -0.5608
   60   -0.5561
   61   -0.5449
   62   -0.5288
   63   -0.5233
   64   -0.4824
   65   -0.4587
   66   -0.4546
   67   -0.4526
   68   -0.4382
   69   -0.4247
   70   -0.4214
   71   -0.4081
   72   -0.4018
   73   -0.3601
   74    0.0255
   75    0.0341
   76    0.0358
   77    0.0429
   78    0.0510
   79    0.0547
   80    0.0570
   81    0.0593
   82    0.0639
   83    0.0686

                       ROHF Final Molecular Orbital Analysis
                       -------------------------------------

 Vector   23  Occ=2.000000D+00  E=-1.431160D+00
              MO Center=  1.9D-01, -4.2D-01, -5.3D-01, r^2= 4.6D+00
   Bfn.  Coefficient  Atom+Function         Bfn.  Coefficient  Atom+Function  
  ----- ------------  ---------------      ----- ------------  ---------------
   334      0.258656  20 O  s                80      0.245755   6 O  s         
   333      0.244103  20 O  s                79      0.240267   6 O  s         
   308      0.172059  19 C  s                54      0.167684   5 C  s         

 Vector   24  Occ=2.000000D+00  E=-1.422676D+00
              MO Center=  2.8D-01, -3.5D-01, -5.7D-01, r^2= 4.7D+00
   Bfn.  Coefficient  Atom+Function         Bfn.  Coefficient  Atom+Function  
  ----- ------------  ---------------      ----- ------------  ---------------
   334     -0.276479  20 O  s                80      0.267110   6 O  s         
    79      0.260633   6 O  s               333     -0.255494  20 O  s         
    54      0.174024   5 C  s               308     -0.162020  19 C  s         

 Vector   25  Occ=2.000000D+00  E=-1.409038D+00
              MO Center= -9.6D-01, -3.7D+00,  7.6D-01, r^2= 1.2D+00
   Bfn.  Coefficient  Atom+Function         Bfn.  Coefficient  Atom+Function  
  ----- ------------  ---------------      ----- ------------  ---------------
   241      0.369035  15 O  s               240      0.347748  15 O  s         
   215      0.246999  14 C  s         

 Vector   26  Occ=2.000000D+00  E=-1.386998D+00
              MO Center= -1.5D+00,  3.7D+00, -2.2D-01, r^2= 1.0D+00
   Bfn.  Coefficient  Atom+Function         Bfn.  Coefficient  Atom+Function  
  ----- ------------  ---------------      ----- ------------  ---------------
   533      0.372419  31 O  s               532      0.350891  31 O  s         
   507      0.245536  30 C  s         

 Vector   27  Occ=2.000000D+00  E=-1.280457D+00
              MO Center=  7.9D-01, -1.3D+00, -6.1D-01, r^2= 2.6D+00
   Bfn.  Coefficient  Atom+Function         Bfn.  Coefficient  Atom+Function  
  ----- ------------  ---------------      ----- ------------  ---------------
   105      0.390867   7 N  s               104      0.318645   7 N  s         
    80     -0.207753   6 O  s                79     -0.169040   6 O  s         
   359      0.155674  21 N  s         

 Vector   28  Occ=2.000000D+00  E=-1.265745D+00
              MO Center= -2.2D-01,  5.8D-01, -2.5D-01, r^2= 3.0D+00
   Bfn.  Coefficient  Atom+Function         Bfn.  Coefficient  Atom+Function  
  ----- ------------  ---------------      ----- ------------  ---------------
   359      0.361014  21 N  s               358      0.324609  21 N  s         
   105     -0.186571   7 N  s               334     -0.176711  20 O  s         

 Vector   29  Occ=2.000000D+00  E=-1.235841D+00
              MO Center= -1.8D+00, -2.9D+00,  1.1D+00, r^2= 1.4D+00
   Bfn.  Coefficient  Atom+Function         Bfn.  Coefficient  Atom+Function  
  ----- ------------  ---------------      ----- ------------  ---------------
   265      0.364924  16 N  s               266      0.331863  16 N  s         
   241     -0.217678  15 O  s               240     -0.187289  15 O  s         
   298      0.160225  18 H  s               218     -0.159173  14 C  px        
   289      0.153392  17 H  s               173     -0.152621  11 C  s         

 Vector   30  Occ=2.000000D+00  E=-1.215694D+00
              MO Center= -2.2D+00,  2.7D+00, -5.6D-01, r^2= 1.5D+00
   Bfn.  Coefficient  Atom+Function         Bfn.  Coefficient  Atom+Function  
  ----- ------------  ---------------      ----- ------------  ---------------
   558      0.392819  32 N  s               557      0.369606  32 N  s         
   533     -0.214483  31 O  s               532     -0.177048  31 O  s         
   581      0.166021  33 H  s               511     -0.162665  30 C  py        
   590      0.158032  34 H  s         

 Vector   31  Occ=2.000000D+00  E=-1.102731D+00
              MO Center= -7.8D-03, -1.0D+00, -4.7D-01, r^2= 6.4D+00
   Bfn.  Coefficient  Atom+Function         Bfn.  Coefficient  Atom+Function  
  ----- ------------  ---------------      ----- ------------  ---------------
   138      0.217000   9 C  s               172      0.199755  11 C  s         

 Vector   32  Occ=2.000000D+00  E=-1.079327D+00
              MO Center=  4.0D-01,  1.2D+00,  1.9D-01, r^2= 6.9D+00
   Bfn.  Coefficient  Atom+Function         Bfn.  Coefficient  Atom+Function  
  ----- ------------  ---------------      ----- ------------  ---------------
   426      0.236574  25 C  s               399      0.181615  23 C  py        
   470      0.181348  28 S  s               392      0.169708  23 C  s         
   393      0.166102  23 C  s               432      0.160742  25 C  px        

 Vector   33  Occ=2.000000D+00  E=-1.022720D+00
              MO Center=  2.1D+00, -1.9D+00, -3.3D-01, r^2= 4.9D+00
   Bfn.  Coefficient  Atom+Function         Bfn.  Coefficient  Atom+Function  
  ----- ------------  ---------------      ----- ------------  ---------------
    11      0.318496   2 C  s               173      0.260523  11 C  s         
   172      0.159892  11 C  s         

 Vector   34  Occ=2.000000D+00  E=-9.868765D-01
              MO Center=  6.1D-01,  1.3D+00,  3.2D-01, r^2= 6.5D+00
   Bfn.  Coefficient  Atom+Function         Bfn.  Coefficient  Atom+Function  
  ----- ------------  ---------------      ----- ------------  ---------------
   470      0.286279  28 S  s               392     -0.202561  23 C  s         
   432      0.162560  25 C  px        

 Vector   35  Occ=2.000000D+00  E=-9.419054D-01
              MO Center= -2.4D-01, -9.8D-01, -3.1D-01, r^2= 7.7D+00
   Bfn.  Coefficient  Atom+Function         Bfn.  Coefficient  Atom+Function  
  ----- ------------  ---------------      ----- ------------  ---------------
   173      0.293573  11 C  s               138     -0.210135   9 C  s         
   172      0.161143  11 C  s               180      0.157998  11 C  pz        
   393     -0.154326  23 C  s         

 Vector   36  Occ=2.000000D+00  E=-8.590914D-01
              MO Center=  7.7D-01,  1.5D+00,  2.3D-01, r^2= 7.4D+00
   Bfn.  Coefficient  Atom+Function         Bfn.  Coefficient  Atom+Function  
  ----- ------------  ---------------      ----- ------------  ---------------
   471      0.308792  28 S  s               470      0.229149  28 S  s         
   426     -0.223925  25 C  s               398     -0.206509  23 C  px        
   509     -0.189373  30 C  s               459     -0.155569  27 H  s         

 Vector   37  Occ=2.000000D+00  E=-8.488892D-01
              MO Center= -1.6D-01,  3.4D-01, -2.2D-01, r^2= 8.1D+00
   Bfn.  Coefficient  Atom+Function         Bfn.  Coefficient  Atom+Function  
  ----- ------------  ---------------      ----- ------------  ---------------
   393      0.292308  23 C  s               139      0.235733   9 C  s         
   361     -0.158112  21 N  px              107      0.153711   7 N  px        
   308      0.151301  19 C  s         

 Vector   38  Occ=2.000000D+00  E=-8.266396D-01
              MO Center=  4.0D-02, -1.4D+00, -2.5D-01, r^2= 6.2D+00
   Bfn.  Coefficient  Atom+Function         Bfn.  Coefficient  Atom+Function  
  ----- ------------  ---------------      ----- ------------  ---------------
   128      0.201267   8 H  s               108     -0.175762   7 N  py        
   217     -0.174930  14 C  s               105      0.172113   7 N  s         
   145      0.170898   9 C  py               60      0.161869   5 C  px        
   393      0.159074  23 C  s               107     -0.158270   7 N  px        

 Vector   39  Occ=2.000000D+00  E=-8.070936D-01
              MO Center= -1.1D+00, -1.8D+00,  4.3D-01, r^2= 6.5D+00
   Bfn.  Coefficient  Atom+Function         Bfn.  Coefficient  Atom+Function  
  ----- ------------  ---------------      ----- ------------  ---------------
   270      0.218582  16 N  pz              215     -0.184652  14 C  s         
   309      0.177551  19 C  s               289      0.172335  17 H  s         
   268     -0.164969  16 N  px              361     -0.163475  21 N  px        

 Vector   40  Occ=2.000000D+00  E=-7.935163D-01
              MO Center= -1.2D+00,  1.8D+00, -2.6D-01, r^2= 5.7D+00
   Bfn.  Coefficient  Atom+Function         Bfn.  Coefficient  Atom+Function  
  ----- ------------  ---------------      ----- ------------  ---------------
   560      0.227476  32 N  px              507      0.190233  30 C  s         
   513     -0.189298  30 C  px              309     -0.185267  19 C  s         
   382      0.175438  22 H  s               398     -0.170622  23 C  px        
   533     -0.166564  31 O  s               399      0.162853  23 C  py        
   581     -0.162179  33 H  s               361      0.150899  21 N  px        

 Vector   41  Occ=2.000000D+00  E=-7.608630D-01
              MO Center= -1.2D+00, -1.0D+00,  1.6D-01, r^2= 7.6D+00
   Bfn.  Coefficient  Atom+Function         Bfn.  Coefficient  Atom+Function  
  ----- ------------  ---------------      ----- ------------  ---------------
   269      0.209385  16 N  py              298      0.205238  18 H  s         
   145      0.202274   9 C  py              312     -0.176295  19 C  py        

 Vector   42  Occ=2.000000D+00  E=-7.491144D-01
              MO Center= -1.6D+00, -1.6D-01,  1.2D-01, r^2= 9.1D+00
   Bfn.  Coefficient  Atom+Function         Bfn.  Coefficient  Atom+Function  
  ----- ------------  ---------------      ----- ------------  ---------------
   561      0.242064  32 N  py              581     -0.201402  33 H  s         
   298     -0.189238  18 H  s               269     -0.182458  16 N  py        
   428     -0.168924  25 C  s         

 Vector   43  Occ=2.000000D+00  E=-7.418128D-01
              MO Center= -7.7D-01,  3.4D-01, -3.7D-01, r^2= 8.4D+00
   Bfn.  Coefficient  Atom+Function         Bfn.  Coefficient  Atom+Function  
  ----- ------------  ---------------      ----- ------------  ---------------
   309      0.270019  19 C  s               561      0.244141  32 N  py        
   144      0.226002   9 C  px              581     -0.205623  33 H  s         
   145     -0.194832   9 C  py              141      0.150151   9 C  px        
   508      0.150607  30 C  s         

 Vector   44  Occ=2.000000D+00  E=-7.179917D-01
              MO Center=  1.0D+00, -5.2D-01, -4.5D-01, r^2= 8.7D+00
   Bfn.  Coefficient  Atom+Function         Bfn.  Coefficient  Atom+Function  
  ----- ------------  ---------------      ----- ------------  ---------------
    57      0.207682   5 C  px               83     -0.203942   6 O  py        
    80     -0.171921   6 O  s                17     -0.153991   2 C  px        

 Vector   45  Occ=2.000000D+00  E=-7.033944D-01
              MO Center= -1.8D-01, -1.7D+00, -2.2D-01, r^2= 7.3D+00
   Bfn.  Coefficient  Atom+Function         Bfn.  Coefficient  Atom+Function  
  ----- ------------  ---------------      ----- ------------  ---------------
   173      0.258443  11 C  s               270      0.215406  16 N  pz        
   143      0.193289   9 C  pz              289      0.189245  17 H  s         
   144      0.182956   9 C  px               80     -0.161892   6 O  s         
   162     -0.161497  10 H  s                84      0.151554   6 O  pz        

 Vector   46  Occ=2.000000D+00  E=-6.899798D-01
              MO Center= -5.7D-01,  5.9D-01, -4.1D-02, r^2= 7.4D+00
   Bfn.  Coefficient  Atom+Function         Bfn.  Coefficient  Atom+Function  
  ----- ------------  ---------------      ----- ------------  ---------------
   336      0.247253  20 O  px              334     -0.223915  20 O  s         
   311     -0.194209  19 C  px              362      0.186292  21 N  py        
   399     -0.157412  23 C  py              397     -0.155164  23 C  pz        

 Vector   47  Occ=2.000000D+00  E=-6.766982D-01
              MO Center= -1.1D+00,  1.7D+00, -1.6D-01, r^2= 8.4D+00
   Bfn.  Coefficient  Atom+Function         Bfn.  Coefficient  Atom+Function  
  ----- ------------  ---------------      ----- ------------  ---------------
   510      0.216224  30 C  px              590      0.212875  34 H  s         
   309      0.189901  19 C  s               560     -0.187131  32 N  px        
   536     -0.175434  31 O  py              139     -0.173536   9 C  s         
   173     -0.163638  11 C  s               533     -0.163043  31 O  s         
   397     -0.155383  23 C  pz        

 Vector   48  Occ=2.000000D+00  E=-6.688660D-01
              MO Center= -3.0D-01, -1.8D+00, -7.1D-02, r^2= 9.9D+00
   Bfn.  Coefficient  Atom+Function         Bfn.  Coefficient  Atom+Function  
  ----- ------------  ---------------      ----- ------------  ---------------
   244     -0.200866  15 O  py              241      0.194127  15 O  s         
   245      0.174072  15 O  pz              218     -0.168937  14 C  px        
   173      0.156645  11 C  s         

 Vector   49  Occ=2.000000D+00  E=-6.444417D-01
              MO Center=  1.7D+00, -7.6D-01, -3.8D-01, r^2= 6.9D+00
   Bfn.  Coefficient  Atom+Function         Bfn.  Coefficient  Atom+Function  
  ----- ------------  ---------------      ----- ------------  ---------------
    59      0.229342   5 C  pz               83      0.209257   6 O  py        
    16      0.181240   2 C  pz               44     -0.175303   4 H  s         
    35      0.153609   3 H  s         

 Vector   50  Occ=2.000000D+00  E=-6.305706D-01
              MO Center= -5.6D-01, -5.9D-01, -1.9D-01, r^2= 7.6D+00
   Bfn.  Coefficient  Atom+Function         Bfn.  Coefficient  Atom+Function  
  ----- ------------  ---------------      ----- ------------  ---------------
   336      0.255594  20 O  px              311     -0.209252  19 C  px        
   383      0.168908  22 H  s               361      0.154224  21 N  px        
   145     -0.153186   9 C  py              382      0.150551  22 H  s         

 Vector   51  Occ=2.000000D+00  E=-6.262684D-01
              MO Center= -6.4D-01, -1.7D+00, -1.0D-01, r^2= 8.1D+00
   Bfn.  Coefficient  Atom+Function         Bfn.  Coefficient  Atom+Function  
  ----- ------------  ---------------      ----- ------------  ---------------
   175     -0.200865  11 C  px              142      0.190468   9 C  py        
   219     -0.162068  14 C  py              179     -0.159651  11 C  py        
   243     -0.150422  15 O  px        

 Vector   52  Occ=2.000000D+00  E=-6.186602D-01
              MO Center=  1.3D+00, -5.6D-01, -3.6D-01, r^2= 7.0D+00
   Bfn.  Coefficient  Atom+Function         Bfn.  Coefficient  Atom+Function  
  ----- ------------  ---------------      ----- ------------  ---------------
    58      0.222223   5 C  py               83     -0.188566   6 O  py        
    16      0.185913   2 C  pz              393      0.170246  23 C  s         
    35      0.165798   3 H  s         

 Vector   53  Occ=2.000000D+00  E=-6.017914D-01
              MO Center= -1.1D+00,  2.9D+00, -1.3D-01, r^2= 6.8D+00
   Bfn.  Coefficient  Atom+Function         Bfn.  Coefficient  Atom+Function  
  ----- ------------  ---------------      ----- ------------  ---------------
   536      0.394166  31 O  py              511     -0.310027  30 C  py        
   533      0.238901  31 O  s               508     -0.209653  30 C  s         
   539      0.194990  31 O  py              561      0.173267  32 N  py        
   581     -0.159261  33 H  s         

 Vector   54  Occ=2.000000D+00  E=-5.992866D-01
              MO Center= -4.0D-01, -1.7D+00,  1.3D-01, r^2= 9.3D+00
   Bfn.  Coefficient  Atom+Function         Bfn.  Coefficient  Atom+Function  
  ----- ------------  ---------------      ----- ------------  ---------------
   244     -0.211027  15 O  py              177      0.204831  11 C  pz        
   220     -0.189636  14 C  pz              243      0.187435  15 O  px        
   173     -0.172130  11 C  s               393      0.163624  23 C  s         
   241      0.162598  15 O  s               219      0.157344  14 C  py        
   428     -0.153181  25 C  s         

 Vector   55  Occ=2.000000D+00  E=-5.944754D-01
              MO Center=  6.1D-01,  6.7D-02,  1.4D-01, r^2= 1.2D+01
   Bfn.  Coefficient  Atom+Function         Bfn.  Coefficient  Atom+Function  
  ----- ------------  ---------------      ----- ------------  ---------------
   460      0.220954  27 H  s               428     -0.200239  25 C  s         
   431      0.198021  25 C  pz              459      0.195661  27 H  s         
   243     -0.162465  15 O  px        

 Vector   56  Occ=2.000000D+00  E=-5.859927D-01
              MO Center=  1.5D+00, -1.0D+00, -4.3D-02, r^2= 1.1D+01
   Bfn.  Coefficient  Atom+Function         Bfn.  Coefficient  Atom+Function  
  ----- ------------  ---------------      ----- ------------  ---------------
     2      0.291999   1 H  s                 1      0.282091   1 H  s         
    14      0.217097   2 C  px               15      0.183326   2 C  py        

 Vector   57  Occ=2.000000D+00  E=-5.792460D-01
              MO Center= -5.7D-01,  1.6D+00, -6.2D-02, r^2= 1.0D+01
   Bfn.  Coefficient  Atom+Function         Bfn.  Coefficient  Atom+Function  
  ----- ------------  ---------------      ----- ------------  ---------------
   512      0.214036  30 C  pz              537      0.203283  31 O  pz        
   432      0.181574  25 C  px              173     -0.170649  11 C  s         
   395     -0.167073  23 C  px              562      0.160702  32 N  pz        
   429      0.158336  25 C  px              540      0.151896  31 O  pz        

 Vector   58  Occ=2.000000D+00  E=-5.674932D-01
              MO Center=  4.7D-01, -1.0D+00, -2.5D-01, r^2= 9.4D+00
   Bfn.  Coefficient  Atom+Function         Bfn.  Coefficient  Atom+Function  
  ----- ------------  ---------------      ----- ------------  ---------------
   197      0.206392  12 H  s                15     -0.168937   2 C  py        
    44      0.162333   4 H  s                 1     -0.160403   1 H  s         
   338     -0.158634  20 O  pz              217      0.151493  14 C  s         
   337      0.151425  20 O  py        

 Vector   59  Occ=2.000000D+00  E=-5.608124D-01
              MO Center= -8.1D-01, -1.2D+00, -5.5D-01, r^2= 8.0D+00
   Bfn.  Coefficient  Atom+Function         Bfn.  Coefficient  Atom+Function  
  ----- ------------  ---------------      ----- ------------  ---------------
   173      0.298128  11 C  s               205      0.262370  13 H  s         
   176     -0.170000  11 C  py              197     -0.165143  12 H  s         
   163     -0.163729  10 H  s               313     -0.161690  19 C  pz        
   175      0.158399  11 C  px              177     -0.158280  11 C  pz        
   338     -0.150490  20 O  pz        

 Vector   60  Occ=2.000000D+00  E=-5.561436D-01
              MO Center=  1.4D+00, -4.5D-01, -2.9D-01, r^2= 9.5D+00
   Bfn.  Coefficient  Atom+Function         Bfn.  Coefficient  Atom+Function  
  ----- ------------  ---------------      ----- ------------  ---------------
    84     -0.217264   6 O  pz              173      0.213034  11 C  s         
   174     -0.213419  11 C  s               498     -0.209670  29 H  s         
   139     -0.201008   9 C  s                16      0.199028   2 C  pz        
    35      0.199023   3 H  s               471      0.181717  28 S  s         
    45     -0.173009   4 H  s                44     -0.159578   4 H  s         

 Vector   61  Occ=2.000000D+00  E=-5.448572D-01
              MO Center= -6.5D-01, -2.2D+00, -2.3D-01, r^2= 5.7D+00
   Bfn.  Coefficient  Atom+Function         Bfn.  Coefficient  Atom+Function  
  ----- ------------  ---------------      ----- ------------  ---------------
   175      0.231588  11 C  px              179      0.220948  11 C  py        
   141     -0.196221   9 C  px              142     -0.195999   9 C  py        
   243     -0.188091  15 O  px              139     -0.156594   9 C  s         
   196     -0.157090  12 H  s               176      0.155935  11 C  py        
   268     -0.150670  16 N  px        

 Vector   62  Occ=2.000000D+00  E=-5.287871D-01
              MO Center= -2.9D-01,  1.9D+00,  1.9D-01, r^2= 6.6D+00
   Bfn.  Coefficient  Atom+Function         Bfn.  Coefficient  Atom+Function  
  ----- ------------  ---------------      ----- ------------  ---------------
   427      0.278206  25 C  s               416     -0.240480  24 H  s         
   432     -0.230289  25 C  px              397     -0.199256  23 C  pz        
   537      0.191140  31 O  pz              173     -0.173961  11 C  s         
   430     -0.173608  25 C  py              433     -0.172718  25 C  py        
   509      0.151262  30 C  s               562      0.151702  32 N  pz        

 Vector   63  Occ=2.000000D+00  E=-5.232764D-01
              MO Center=  8.8D-01,  1.9D+00,  3.9D-01, r^2= 5.9D+00
   Bfn.  Coefficient  Atom+Function         Bfn.  Coefficient  Atom+Function  
  ----- ------------  ---------------      ----- ------------  ---------------
   429      0.230286  25 C  px              477      0.211846  28 S  py        
   451      0.210248  26 H  s               497     -0.207063  29 H  s         
   459     -0.201308  27 H  s               432      0.187571  25 C  px        
   428     -0.175865  25 C  s               318      0.165613  19 C  py        
   427     -0.160154  25 C  s               498     -0.157148  29 H  s         

 Vector   64  Occ=2.000000D+00  E=-4.823837D-01
              MO Center=  4.6D-03,  2.0D-01, -9.3D-02, r^2= 7.2D+00
   Bfn.  Coefficient  Atom+Function         Bfn.  Coefficient  Atom+Function  
  ----- ------------  ---------------      ----- ------------  ---------------
   337      0.374806  20 O  py              340      0.306527  20 O  py        
    84     -0.208234   6 O  pz              471      0.184163  28 S  s         
    87     -0.164708   6 O  pz              109      0.162856   7 N  pz        

 Vector   65  Occ=2.000000D+00  E=-4.586959D-01
              MO Center=  1.1D+00,  5.1D-01, -3.6D-01, r^2= 8.3D+00
   Bfn.  Coefficient  Atom+Function         Bfn.  Coefficient  Atom+Function  
  ----- ------------  ---------------      ----- ------------  ---------------
    82      0.373060   6 O  px               85      0.312418   6 O  px        
   337      0.205946  20 O  py              535      0.198295  31 O  px        
   471     -0.188539  28 S  s               340      0.170433  20 O  py        
   309     -0.163394  19 C  s               538      0.154915  31 O  px        
   478     -0.154025  28 S  pz        

 Vector   66  Occ=2.000000D+00  E=-4.546212D-01
              MO Center= -9.3D-02,  9.3D-01, -3.3D-01, r^2= 9.3D+00
   Bfn.  Coefficient  Atom+Function         Bfn.  Coefficient  Atom+Function  
  ----- ------------  ---------------      ----- ------------  ---------------
   535     -0.285252  31 O  px               82      0.281906   6 O  px        
   363     -0.253450  21 N  pz              427     -0.236433  25 C  s         
    85      0.228559   6 O  px              360      0.227544  21 N  s         
   538     -0.221116  31 O  px              366     -0.211595  21 N  pz        
   338      0.206998  20 O  pz              310     -0.193011  19 C  s         

 Vector   67  Occ=2.000000D+00  E=-4.525678D-01
              MO Center=  1.4D+00,  1.1D+00,  4.3D-01, r^2= 6.9D+00
   Bfn.  Coefficient  Atom+Function         Bfn.  Coefficient  Atom+Function  
  ----- ------------  ---------------      ----- ------------  ---------------
   471      0.314805  28 S  s               478      0.305647  28 S  pz        
   481      0.224559  28 S  pz               82      0.216408   6 O  px        
    85      0.182205   6 O  px              432     -0.178155  25 C  px        
   431     -0.164148  25 C  pz              497     -0.160901  29 H  s         
   460     -0.154105  27 H  s         

 Vector   68  Occ=2.000000D+00  E=-4.381796D-01
              MO Center= -8.5D-01, -3.2D+00,  5.1D-01, r^2= 5.3D+00
   Bfn.  Coefficient  Atom+Function         Bfn.  Coefficient  Atom+Function  
  ----- ------------  ---------------      ----- ------------  ---------------
   245      0.484721  15 O  pz              248      0.380156  15 O  pz        
   173     -0.217313  11 C  s               243     -0.202337  15 O  px        
   223     -0.190198  14 C  pz              177      0.181099  11 C  pz        
   246     -0.170165  15 O  px        

 Vector   69  Occ=2.000000D+00  E=-4.247196D-01
              MO Center= -3.4D-03, -1.3D+00, -1.0D-01, r^2= 8.2D+00
   Bfn.  Coefficient  Atom+Function         Bfn.  Coefficient  Atom+Function  
  ----- ------------  ---------------      ----- ------------  ---------------
   109      0.279440   7 N  pz              112      0.251442   7 N  pz        
    84     -0.203353   6 O  pz              268      0.181926  16 N  px        
    87     -0.164768   6 O  pz              111      0.164389   7 N  py        
   271      0.164051  16 N  px              244     -0.162436  15 O  py        
   108      0.161079   7 N  py              337     -0.160975  20 O  py        

 Vector   70  Occ=2.000000D+00  E=-4.213540D-01
              MO Center= -1.0D+00, -2.3D+00,  6.0D-01, r^2= 7.0D+00
   Bfn.  Coefficient  Atom+Function         Bfn.  Coefficient  Atom+Function  
  ----- ------------  ---------------      ----- ------------  ---------------
   268      0.295069  16 N  px              271      0.285465  16 N  px        
   269      0.222763  16 N  py              244     -0.209930  15 O  py        
   243     -0.185076  15 O  px              272      0.176265  16 N  py        
   247     -0.174006  15 O  py              267     -0.167501  16 N  s         
   337      0.163766  20 O  py              360     -0.156438  21 N  s         

 Vector   71  Occ=2.000000D+00  E=-4.081009D-01
              MO Center= -1.5D+00,  2.7D+00, -3.6D-01, r^2= 5.1D+00
   Bfn.  Coefficient  Atom+Function         Bfn.  Coefficient  Atom+Function  
  ----- ------------  ---------------      ----- ------------  ---------------
   537      0.383516  31 O  pz              540      0.297518  31 O  pz        
   562     -0.296270  32 N  pz              565     -0.257395  32 N  pz        
   560      0.214098  32 N  px              563      0.168760  32 N  px        

 Vector   72  Occ=2.000000D+00  E=-4.018112D-01
              MO Center= -1.3D+00,  2.3D+00, -1.8D-01, r^2= 5.1D+00
   Bfn.  Coefficient  Atom+Function         Bfn.  Coefficient  Atom+Function  
  ----- ------------  ---------------      ----- ------------  ---------------
   535      0.361960  31 O  px              538      0.284854  31 O  px        
   562      0.243905  32 N  pz              363     -0.238785  21 N  pz        
   366     -0.220337  21 N  pz              565      0.194612  32 N  pz        
   338      0.161948  20 O  pz        

 Vector   73  Occ=2.000000D+00  E=-3.601016D-01
              MO Center=  2.1D+00,  1.9D+00,  1.1D+00, r^2= 2.2D+00
   Bfn.  Coefficient  Atom+Function         Bfn.  Coefficient  Atom+Function  
  ----- ------------  ---------------      ----- ------------  ---------------
   477      0.361020  28 S  py              476      0.358584  28 S  px        
   480      0.349158  28 S  py              479      0.325564  28 S  px        
   398      0.210954  23 C  px              427     -0.201197  25 C  s         
   360      0.162663  21 N  s               481     -0.158746  28 S  pz        

 Vector   74  Occ=0.000000D+00  E= 2.546924D-02
              MO Center= -1.7D+00, -1.9D+00, -2.0D+00, r^2= 2.6D+01
   Bfn.  Coefficient  Atom+Function         Bfn.  Coefficient  Atom+Function  
  ----- ------------  ---------------      ----- ------------  ---------------
   509      3.401071  30 C  s               164     -2.157219  10 H  s         
   318     -2.050600  19 C  py               13      1.894357   2 C  s         
   394      1.823306  23 C  s               149     -1.750176   9 C  pz        
   317     -1.730729  19 C  px              360      1.597041  21 N  s         
   384      1.590975  22 H  s               207     -1.562579  13 H  s         

 Vector   75  Occ=0.000000D+00  E= 3.413306D-02
              MO Center=  1.6D+00, -2.0D+00, -8.0D-01, r^2= 3.8D+01
   Bfn.  Coefficient  Atom+Function         Bfn.  Coefficient  Atom+Function  
  ----- ------------  ---------------      ----- ------------  ---------------
   147      4.067692   9 C  px               63      3.988347   5 C  px        
    46     -2.444318   4 H  s                12      2.140813   2 C  s         
   148      2.042319   9 C  py              198      2.037586  12 H  s         
    56     -1.954160   5 C  s               174      1.887890  11 C  s         
   207     -1.889456  13 H  s               318     -1.774745  19 C  py        

 Vector   76  Occ=0.000000D+00  E= 3.582015D-02
              MO Center= -1.2D+00, -2.0D+00,  2.0D+00, r^2= 2.8D+01
   Bfn.  Coefficient  Atom+Function         Bfn.  Coefficient  Atom+Function  
  ----- ------------  ---------------      ----- ------------  ---------------
   267      3.358443  16 N  s                63     -2.719140   5 C  px        
   174     -2.518686  11 C  s               164     -2.344543  10 H  s         
   291      2.295559  17 H  s               226     -2.274574  14 C  pz        
   217     -1.997459  14 C  s                37      1.843649   3 H  s         
   418      1.454293  24 H  s               207     -1.357227  13 H  s         

 Vector   77  Occ=0.000000D+00  E= 4.289960D-02
              MO Center= -1.3D+00, -2.1D-01, -1.2D+00, r^2= 4.3D+01
   Bfn.  Coefficient  Atom+Function         Bfn.  Coefficient  Atom+Function  
  ----- ------------  ---------------      ----- ------------  ---------------
   318      3.641912  19 C  py              402      3.591669  23 C  py        
   310      3.235192  19 C  s                63      3.047488   5 C  px        
   207      2.874045  13 H  s               147      2.733850   9 C  px        
   182      2.618662  11 C  py              428     -2.526712  25 C  s         
   516     -2.255261  30 C  px              592     -2.225511  34 H  s         

 Vector   78  Occ=0.000000D+00  E= 5.100180D-02
              MO Center= -2.1D-01,  7.2D-01, -7.4D-01, r^2= 3.8D+01
   Bfn.  Coefficient  Atom+Function         Bfn.  Coefficient  Atom+Function  
  ----- ------------  ---------------      ----- ------------  ---------------
   164      4.932649  10 H  s               318     -4.411890  19 C  py        
   149      3.610134   9 C  pz              198     -3.163072  12 H  s         
   428      2.897762  25 C  s                56     -2.795367   5 C  s         
   147      2.597256   9 C  px              360      2.567528  21 N  s         
   310     -2.477212  19 C  s               402     -2.467855  23 C  py        

 Vector   79  Occ=0.000000D+00  E= 5.474574D-02
              MO Center=  7.3D-01, -7.9D-01, -1.0D+00, r^2= 4.3D+01
   Bfn.  Coefficient  Atom+Function         Bfn.  Coefficient  Atom+Function  
  ----- ------------  ---------------      ----- ------------  ---------------
   198      4.039852  12 H  s                 3      3.376727   1 H  s         
    46     -2.854847   4 H  s               147     -2.720785   9 C  px        
    63     -2.615521   5 C  px               56      2.565524   5 C  s         
   207     -2.542115  13 H  s               181      2.043490  11 C  px        
   592     -1.805142  34 H  s               174     -1.758120  11 C  s         

 Vector   80  Occ=0.000000D+00  E= 5.703376D-02
              MO Center= -4.9D-01,  7.3D-01,  1.2D+00, r^2= 3.9D+01
   Bfn.  Coefficient  Atom+Function         Bfn.  Coefficient  Atom+Function  
  ----- ------------  ---------------      ----- ------------  ---------------
   164      3.354933  10 H  s               461     -3.306291  27 H  s         
   207     -2.663787  13 H  s               384      2.676593  22 H  s         
   174     -2.360339  11 C  s               217     -2.219342  14 C  s         
   428     -2.090974  25 C  s               291      2.017066  17 H  s         
   148     -1.987631   9 C  py              198     -1.947420  12 H  s         

 Vector   81  Occ=0.000000D+00  E= 5.926436D-02
              MO Center=  1.7D+00, -1.5D+00,  1.3D+00, r^2= 3.1D+01
   Bfn.  Coefficient  Atom+Function         Bfn.  Coefficient  Atom+Function  
  ----- ------------  ---------------      ----- ------------  ---------------
    37      4.608057   3 H  s                 3     -3.314937   1 H  s         
   300     -2.848319  18 H  s               106      2.018690   7 N  s         
    46     -1.956283   4 H  s               130      1.910294   8 H  s         
    22     -1.757501   2 C  pz               20      1.572900   2 C  px        
   368     -1.546666  21 N  py              164      1.529898  10 H  s         

 Vector   82  Occ=0.000000D+00  E= 6.387593D-02
              MO Center= -4.5D-01,  1.0D+00, -4.8D-01, r^2= 4.0D+01
   Bfn.  Coefficient  Atom+Function         Bfn.  Coefficient  Atom+Function  
  ----- ------------  ---------------      ----- ------------  ---------------
   217      5.312638  14 C  s               452     -3.714062  26 H  s         
   401      3.387639  23 C  px              418      3.330999  24 H  s         
   509      3.047710  30 C  s               164      3.026873  10 H  s         
   174     -2.196980  11 C  s               402      2.166385  23 C  py        
   428     -2.174574  25 C  s               130     -1.902309   8 H  s         

 Vector   83  Occ=0.000000D+00  E= 6.859826D-02
              MO Center=  8.7D-01, -1.0D+00, -1.1D+00, r^2= 4.5D+01
   Bfn.  Coefficient  Atom+Function         Bfn.  Coefficient  Atom+Function  
  ----- ------------  ---------------      ----- ------------  ---------------
   207      5.182827  13 H  s                 3      3.889970   1 H  s         
   217      3.724055  14 C  s               198     -3.469503  12 H  s         
    46     -3.434061   4 H  s               318      3.221758  19 C  py        
    56      3.101395   5 C  s               174     -2.899786  11 C  s         
   113     -2.855000   7 N  px               13      2.613607   2 C  s         

 Vector   84  Occ=0.000000D+00  E= 7.547567D-02
              MO Center= -2.3D-01,  5.3D-01,  8.6D-01, r^2= 4.2D+01
   Bfn.  Coefficient  Atom+Function         Bfn.  Coefficient  Atom+Function  
  ----- ------------  ---------------      ----- ------------  ---------------
   461      4.922033  27 H  s               217      4.106022  14 C  s         
   300     -3.803698  18 H  s               452     -3.652742  26 H  s         
   291      2.941745  17 H  s               509      2.771793  30 C  s         
   437     -2.738089  25 C  pz              198      2.723058  12 H  s         
   207     -2.675064  13 H  s               174     -2.334189  11 C  s         

 Vector   85  Occ=0.000000D+00  E= 8.223483D-02
              MO Center= -7.4D-01,  6.3D-01,  1.1D+00, r^2= 3.7D+01
   Bfn.  Coefficient  Atom+Function         Bfn.  Coefficient  Atom+Function  
  ----- ------------  ---------------      ----- ------------  ---------------
   418      5.674473  24 H  s               198      5.211991  12 H  s         
   509     -4.871367  30 C  s               300     -4.752972  18 H  s         
   384      4.555566  22 H  s               461     -3.892935  27 H  s         
   360      3.640302  21 N  s               402      3.281133  23 C  py        
   394     -2.974388  23 C  s               164     -2.948475  10 H  s         

 Vector   86  Occ=0.000000D+00  E= 8.784404D-02
              MO Center=  1.3D+00, -2.4D-01,  1.2D-01, r^2= 3.8D+01
   Bfn.  Coefficient  Atom+Function         Bfn.  Coefficient  Atom+Function  
  ----- ------------  ---------------      ----- ------------  ---------------
   217     -5.250738  14 C  s               130      4.901895   8 H  s         
   499      4.717887  29 H  s               583      3.924180  33 H  s         
   509      3.453763  30 C  s                37     -3.320068   3 H  s         
   472     -2.995205  28 S  s               300     -2.936984  18 H  s         
   428     -2.711576  25 C  s               401      2.532443  23 C  px        

 Vector   87  Occ=0.000000D+00  E= 9.239369D-02
              MO Center= -7.3D-01, -9.7D-01, -1.1D+00, r^2= 3.7D+01
   Bfn.  Coefficient  Atom+Function         Bfn.  Coefficient  Atom+Function  
  ----- ------------  ---------------      ----- ------------  ---------------
   217     22.709831  14 C  s               174     -8.486467  11 C  s         
   384     -8.519275  22 H  s               318      5.511128  19 C  py        
   452      4.815278  26 H  s               267     -4.748777  16 N  s         
   225      4.426359  14 C  py               56      3.949879   5 C  s         
   226     -3.927022  14 C  pz              183     -3.722889  11 C  pz        

 Vector   88  Occ=0.000000D+00  E= 9.589269D-02
              MO Center= -1.5D+00, -9.8D-01, -5.2D-01, r^2= 4.0D+01
   Bfn.  Coefficient  Atom+Function         Bfn.  Coefficient  Atom+Function  
  ----- ------------  ---------------      ----- ------------  ---------------
   217     15.462307  14 C  s               583     -7.977941  33 H  s         
   267     -5.938343  16 N  s               198      5.002902  12 H  s         
   317     -4.461760  19 C  px              509      4.437982  30 C  s         
   174     -4.204145  11 C  s               147      4.070370   9 C  px        
   225      4.051290  14 C  py              181      3.721697  11 C  px        

 Vector   89  Occ=0.000000D+00  E= 1.026516D-01
              MO Center=  2.0D+00, -8.7D-02,  3.2D-01, r^2= 3.2D+01
   Bfn.  Coefficient  Atom+Function         Bfn.  Coefficient  Atom+Function  
  ----- ------------  ---------------      ----- ------------  ---------------
   130      4.541278   8 H  s                63      4.212758   5 C  px        
    46     -4.011353   4 H  s               472      3.909709  28 S  s         
    56     -3.773676   5 C  s               384     -3.456033  22 H  s         
   499     -3.363607  29 H  s                 3      2.993829   1 H  s         
   147      2.857130   9 C  px              428     -2.838499  25 C  s         

 Vector   90  Occ=0.000000D+00  E= 1.099517D-01
              MO Center= -7.1D-02, -4.4D-02, -8.5D-01, r^2= 3.5D+01
   Bfn.  Coefficient  Atom+Function         Bfn.  Coefficient  Atom+Function  
  ----- ------------  ---------------      ----- ------------  ---------------
   217     18.087864  14 C  s               384     13.332535  22 H  s         
   174    -11.712049  11 C  s               164     -9.438775  10 H  s         
   267     -7.097343  16 N  s               310     -6.957997  19 C  s         
   360      6.500471  21 N  s               149     -5.846304   9 C  pz        
   225      5.600321  14 C  py              509      5.286613  30 C  s         

 Vector   91  Occ=0.000000D+00  E= 1.126210D-01
              MO Center=  1.3D-01, -9.5D-01, -2.1D-01, r^2= 3.3D+01
[...]
   509     16.802866  30 C  s               310    -14.336070  19 C  s         
   318    -11.721998  19 C  py              140    -11.558677   9 C  s         
   559    -10.848792  32 N  s               217     10.686954  14 C  s         
   174     -9.681437  11 C  s                13      8.147634   2 C  s         
    63     -7.838814   5 C  px              173     -7.732258  11 C  s         

 Vector  175  Occ=0.000000D+00  E= 4.306403D-01
              MO Center=  9.7D-01, -6.3D-01, -1.1D-01, r^2= 2.2D+01
   Bfn.  Coefficient  Atom+Function         Bfn.  Coefficient  Atom+Function  
  ----- ------------  ---------------      ----- ------------  ---------------
   217     17.869777  14 C  s                56    -15.622466   5 C  s         
   148     13.186525   9 C  py              147     10.807108   9 C  px        
   509    -10.555789  30 C  s                12     -9.640686   2 C  s         
   174      8.687874  11 C  s               368      7.659169  21 N  py        
    45      7.264735   4 H  s               183     -6.644294  11 C  pz        

 Vector  176  Occ=0.000000D+00  E= 4.362687D-01
              MO Center=  2.0D-01,  2.9D-01,  7.1D-02, r^2= 2.1D+01
   Bfn.  Coefficient  Atom+Function         Bfn.  Coefficient  Atom+Function  
  ----- ------------  ---------------      ----- ------------  ---------------
   509    -14.569438  30 C  s               318     14.297893  19 C  py        
   217    -12.954207  14 C  s               106     12.376524   7 N  s         
   267     11.468532  16 N  s               174      9.448597  11 C  s         
   428      8.675245  25 C  s               401     -7.109900  23 C  px        
    13     -5.977530   2 C  s               427     -5.935149  25 C  s         

 Vector  177  Occ=0.000000D+00  E= 4.410503D-01
              MO Center=  5.6D-01, -7.7D-01, -3.8D-01, r^2= 2.0D+01
   Bfn.  Coefficient  Atom+Function         Bfn.  Coefficient  Atom+Function  
  ----- ------------  ---------------      ----- ------------  ---------------
   360    -18.478366  21 N  s               318     17.668703  19 C  py        
    56      8.386248   5 C  s               384     -7.687310  22 H  s         
   310      7.308297  19 C  s               267      6.868412  16 N  s         
   559     -5.426892  32 N  s               140      5.128736   9 C  s         
   163      5.127755  10 H  s                13     -4.547067   2 C  s         

 Vector  178  Occ=0.000000D+00  E= 4.412890D-01
              MO Center=  2.1D-01,  2.6D-01, -2.9D-01, r^2= 1.8D+01
   Bfn.  Coefficient  Atom+Function         Bfn.  Coefficient  Atom+Function  
  ----- ------------  ---------------      ----- ------------  ---------------
   217     15.588445  14 C  s               428     15.508882  25 C  s         
   318    -15.049825  19 C  py              310    -14.267207  19 C  s         
   174    -13.202815  11 C  s                13     11.584679   2 C  s         
   509     11.476649  30 C  s               140    -11.107944   9 C  s         
   402     -9.948227  23 C  py               63     -8.617995   5 C  px        

 Vector  179  Occ=0.000000D+00  E= 4.448510D-01
              MO Center=  3.3D-01, -1.2D-01,  1.3D-02, r^2= 2.0D+01
   Bfn.  Coefficient  Atom+Function         Bfn.  Coefficient  Atom+Function  
  ----- ------------  ---------------      ----- ------------  ---------------
    12     10.685425   2 C  s               317     -8.496260  19 C  px        
   106     -7.072891   7 N  s               147      6.973058   9 C  px        
   367      6.642492  21 N  px              360      6.514517  21 N  s         
    36     -6.032959   3 H  s               113      5.899851   7 N  px        
   163      5.856773  10 H  s               318     -5.527535  19 C  py        

 Vector  180  Occ=0.000000D+00  E= 4.531391D-01
              MO Center= -2.4D-01, -6.7D-01,  2.9D-01, r^2= 2.1D+01
   Bfn.  Coefficient  Atom+Function         Bfn.  Coefficient  Atom+Function  
  ----- ------------  ---------------      ----- ------------  ---------------
   217     18.376540  14 C  s               428    -17.227875  25 C  s         
   147     11.929819   9 C  px               56    -10.783451   5 C  s         
   509     10.389341  30 C  s               360    -10.268820  21 N  s         
   310      9.336493  19 C  s               401      9.144647  23 C  px        
    13     -8.882510   2 C  s               267     -7.497966  16 N  s         

 Vector  181  Occ=0.000000D+00  E= 4.560811D-01
              MO Center= -3.1D-01, -2.9D-02,  3.2D-01, r^2= 2.2D+01
   Bfn.  Coefficient  Atom+Function         Bfn.  Coefficient  Atom+Function  
  ----- ------------  ---------------      ----- ------------  ---------------
   318     12.015095  19 C  py              559     10.995427  32 N  s         
   148     -9.178243   9 C  py              509     -9.093177  30 C  s         
   174     -9.029123  11 C  s               516      7.182761  30 C  px        
   394     -6.558865  23 C  s               106      6.075095   7 N  s         
   335      6.059276  20 O  s               401     -6.074640  23 C  px        

 Vector  182  Occ=0.000000D+00  E= 4.628733D-01
              MO Center=  3.3D-01,  2.6D-01,  3.1D-02, r^2= 2.2D+01
   Bfn.  Coefficient  Atom+Function         Bfn.  Coefficient  Atom+Function  
  ----- ------------  ---------------      ----- ------------  ---------------
    56     17.691189   5 C  s               174    -14.210508  11 C  s         
   147    -13.084766   9 C  px               12      7.983864   2 C  s         
    13      7.859841   2 C  s               319      7.270929  19 C  pz        
   114     -6.550781   7 N  py               36     -6.465051   3 H  s         
     2     -5.770520   1 H  s               402      5.780564  23 C  py        

 Vector  183  Occ=0.000000D+00  E= 4.730825D-01
              MO Center=  4.2D-01,  4.2D-03, -1.2D-01, r^2= 1.9D+01
   Bfn.  Coefficient  Atom+Function         Bfn.  Coefficient  Atom+Function  
  ----- ------------  ---------------      ----- ------------  ---------------
   368      8.788833  21 N  py              367     -7.652378  21 N  px        
   428      7.049667  25 C  s                56      5.979522   5 C  s         
    12      5.668231   2 C  s               369      4.973640  21 N  pz        
   509     -4.958042  30 C  s               174     -4.737843  11 C  s         
   310     -4.521768  19 C  s               401     -3.988877  23 C  px        

 Vector  184  Occ=0.000000D+00  E= 4.760410D-01
              MO Center= -3.0D-01, -3.6D-01, -3.3D-01, r^2= 1.9D+01
   Bfn.  Coefficient  Atom+Function         Bfn.  Coefficient  Atom+Function  
  ----- ------------  ---------------      ----- ------------  ---------------
   428     18.904479  25 C  s               509    -16.532855  30 C  s         
   267    -14.638233  16 N  s               174     11.380483  11 C  s         
   217      9.856870  14 C  s               401     -8.732629  23 C  px        
   368      7.325404  21 N  py              384     -7.091481  22 H  s         
   148      6.791148   9 C  py              559      6.701369  32 N  s         

 Vector  185  Occ=0.000000D+00  E= 4.767312D-01
              MO Center= -6.7D-01,  2.4D-01, -9.7D-02, r^2= 2.1D+01
   Bfn.  Coefficient  Atom+Function         Bfn.  Coefficient  Atom+Function  
  ----- ------------  ---------------      ----- ------------  ---------------
   217     14.886150  14 C  s               267     -9.563349  16 N  s         
    12     -7.366107   2 C  s               147     -7.130894   9 C  px        
   343     -6.044712  20 O  py              317      5.614274  19 C  px        
   318      5.492941  19 C  py              472      5.517357  28 S  s         
    36      4.727490   3 H  s               242     -4.708818  15 O  s         

 Vector  186  Occ=0.000000D+00  E= 4.795239D-01
              MO Center= -4.7D-01,  4.8D-01,  3.0D-01, r^2= 1.7D+01
   Bfn.  Coefficient  Atom+Function         Bfn.  Coefficient  Atom+Function  
  ----- ------------  ---------------      ----- ------------  ---------------
   318     19.529785  19 C  py              360    -15.307831  21 N  s         
   310     12.775108  19 C  s               319      9.846328  19 C  pz        
   140      9.627629   9 C  s               509     -9.170109  30 C  s         
   113     -7.885086   7 N  px              402      7.711496  23 C  py        
   403     -6.976647  23 C  pz              437      6.338188  25 C  pz        

 Vector  187  Occ=0.000000D+00  E= 4.877274D-01
              MO Center= -6.1D-01,  3.1D-01,  8.1D-02, r^2= 1.9D+01
   Bfn.  Coefficient  Atom+Function         Bfn.  Coefficient  Atom+Function  
  ----- ------------  ---------------      ----- ------------  ---------------
   428     18.245408  25 C  s               174    -15.586953  11 C  s         
   310    -15.318213  19 C  s                13     13.226480   2 C  s         
   360     10.712501  21 N  s                63    -10.292936   5 C  px        
   140     -9.645544   9 C  s               147     -9.661583   9 C  px        
    56      8.471663   5 C  s               113     -7.989392   7 N  px        

 Vector  188  Occ=0.000000D+00  E= 4.909887D-01
              MO Center=  5.4D-01,  1.8D-01, -5.3D-02, r^2= 2.0D+01
   Bfn.  Coefficient  Atom+Function         Bfn.  Coefficient  Atom+Function  
  ----- ------------  ---------------      ----- ------------  ---------------
   217     13.244878  14 C  s                12     -8.120396   2 C  s         
    56     -7.591594   5 C  s               360      7.583691  21 N  s         
   174     -6.483185  11 C  s               197      6.439772  12 H  s         
   106      6.000521   7 N  s               173     -5.953229  11 C  s         
    45      4.999986   4 H  s               403      4.957936  23 C  pz        

 Vector  189  Occ=0.000000D+00  E= 4.923772D-01
              MO Center= -2.8D-01, -8.6D-01, -3.8D-01, r^2= 2.0D+01
   Bfn.  Coefficient  Atom+Function         Bfn.  Coefficient  Atom+Function  
  ----- ------------  ---------------      ----- ------------  ---------------
   360    -15.553208  21 N  s               217     14.710204  14 C  s         
   174     14.513010  11 C  s               106    -11.976352   7 N  s         
   147      7.760738   9 C  px              149      7.709665   9 C  pz        
   242     -7.497898  15 O  s               310      6.443322  19 C  s         
   384     -6.072984  22 H  s               182      5.586410  11 C  py        

 Vector  190  Occ=0.000000D+00  E= 4.979387D-01
              MO Center=  3.3D-01,  2.7D-01,  1.7D-01, r^2= 2.0D+01
   Bfn.  Coefficient  Atom+Function         Bfn.  Coefficient  Atom+Function  
  ----- ------------  ---------------      ----- ------------  ---------------
    56     15.903275   5 C  s               318     15.146641  19 C  py        
   428    -11.437886  25 C  s               148     -9.086836   9 C  py        
   310      8.071591  19 C  s               147     -7.941251   9 C  px        
   267      7.447145  16 N  s               317      7.211222  19 C  px        
   217     -6.215412  14 C  s               360     -5.406757  21 N  s         

 Vector  191  Occ=0.000000D+00  E= 5.030109D-01
              MO Center= -3.2D-01, -9.4D-01,  2.0D-01, r^2= 1.8D+01
   Bfn.  Coefficient  Atom+Function         Bfn.  Coefficient  Atom+Function  
  ----- ------------  ---------------      ----- ------------  ---------------
   174     20.254831  11 C  s                56    -17.004554   5 C  s         
   310     12.060587  19 C  s               113     11.734013   7 N  px        
   217    -11.310643  14 C  s               147     10.357034   9 C  px        
    13    -10.305405   2 C  s                63     10.297847   5 C  px        
   318     -9.346156  19 C  py              394      8.795291  23 C  s         


 center of mass
 --------------
 x =  -0.01557201 y =   0.03481113 z =   0.01182757

 moments of inertia (a.u.)
 ------------------
        6403.127532242280           0.000000000001           0.000000000001
           0.000000000001        3828.043414671887          -0.000000000002
           0.000000000001          -0.000000000002        8895.673321351123

  Mulliken analysis of the total density
  --------------------------------------

    Atom       Charge   Shell Charges
 -----------   ------   -------------------------------------------------------
    1 H    1     1.02   0.76  0.27  0.01  0.03 -0.06
    2 C    6     6.19   2.01  0.66  0.27  0.07  2.07  0.96 -0.01  0.06  0.10
    3 H    1     0.82   0.76  0.10  0.00  0.03 -0.06
    4 H    1     0.86   0.76  0.14  0.01  0.03 -0.07
    5 C    6     5.23   2.01  0.68  0.06  0.04  1.89  0.35  0.01  0.24 -0.04
    6 O    8     8.91   2.01  0.81  1.01  0.19  2.81  1.90  0.18  0.02 -0.01
    7 N    7     7.53   2.01  0.72  0.84 -0.13  2.45  1.42  0.12  0.05  0.04
    8 H    1     0.96   0.74  0.24 -0.01  0.06 -0.06
    9 C    6     6.71   2.01  0.66  0.16 -0.04  1.99  1.42  0.19  0.14  0.19
   10 H    1     1.00   0.78  0.18  0.00  0.03  0.01
   11 C    6     6.08   2.01  0.66  0.57 -0.10  2.06  0.73 -0.01  0.09  0.08
   12 H    1     0.97   0.77  0.23 -0.01  0.03 -0.05
   13 H    1     0.90   0.77  0.16 -0.01  0.03 -0.05
   14 C    6     4.64   2.01  0.68  0.03 -0.03  1.91 -0.12  0.02  0.24 -0.11
   15 O    8     8.83   2.01  0.82  1.02  0.20  2.80  1.83  0.14  0.02 -0.00
   16 N    7     7.17   2.01  0.72  0.75 -0.15  2.47  1.25  0.10  0.04 -0.02
   17 H    1     1.00   0.76  0.22 -0.01  0.05 -0.02
   18 H    1     0.87   0.73  0.17 -0.01  0.06 -0.07
   19 C    6     4.33   2.01  0.68 -0.07 -0.08  1.88  0.15 -0.01  0.24 -0.46
   20 O    8     8.99   2.01  0.82  1.03  0.20  2.80  1.90  0.21  0.01  0.00
   21 N    7     7.48   2.01  0.72  0.84 -0.11  2.45  1.44  0.04  0.05  0.04
   22 H    1     0.92   0.73  0.31 -0.05  0.06 -0.14
   23 C    6     6.47   2.01  0.67  0.17 -0.02  1.99  1.32  0.06  0.14  0.14
   24 H    1     0.98   0.78  0.15 -0.01  0.03  0.03
   25 C    6     5.99   2.01  0.66  0.12 -0.04  1.99  1.11 -0.02  0.10  0.05
   26 H    1     1.04   0.77  0.26  0.01  0.03 -0.02
   27 H    1     1.08   0.76  0.34 -0.01  0.03 -0.05
   28 S   16    15.46   2.00  2.03  0.86  0.70  0.04  6.00  2.32  1.54  0.05  0.10 -0.18
   29 H    1     1.05   0.69  0.26  0.02  0.04  0.05
   30 C    6     4.63   2.01  0.68  0.10  0.09  1.89 -0.12 -0.02  0.24 -0.22
   31 O    8     8.74   2.01  0.82  1.02  0.14  2.79  1.82  0.13  0.01 -0.01
   32 N    7     7.23   2.01  0.72  0.82 -0.15  2.47  1.25  0.10  0.04 -0.02
   33 H    1     0.91   0.74  0.18 -0.02  0.06 -0.05
   34 H    1     1.02   0.76  0.24  0.00  0.05 -0.03

       Multipole analysis of the density wrt the origin
       ------------------------------------------------

     L   x y z        total         open         nuclear
     -   - - -        -----         ----         -------
     0   0 0 0      0.000000      0.000000    146.000000

     1   1 0 0     -0.463115      0.000000     -0.000000
     1   0 1 0     -1.530547      0.000000      0.000000
     1   0 0 1     -0.506264      0.000000     -0.000000

     2   2 0 0    -79.862732      0.000000   1734.231883
     2   1 1 0     -1.262748      0.000000    -14.179201
     2   1 0 1      1.396033      0.000000      0.944956
     2   0 2 0   -109.262319      0.000000   3038.603372
     2   0 1 1      3.040184      0.000000      3.219035
     2   0 0 2    -83.329068      0.000000    373.151689


 Task  times  cpu:     4049.1s     wall:     4061.4s


                                NWChem Input Module
                                -------------------


 Summary of allocated global arrays
-----------------------------------
  No active global arrays


MA_summarize_allocated_blocks: starting scan ...
MA_summarize_allocated_blocks: scan completed: 0 heap blocks, 0 stack blocks
MA usage statistics:

	allocation statistics:
					      heap	     stack
					      ----	     -----
	current number of blocks	         0	         0
	maximum number of blocks	        16	        14
	current total bytes		         0	         0
	maximum total bytes		    136720	  33860776
	maximum total K-bytes		       137	     33861
	maximum total M-bytes		         1	        34


                                     CITATION
                                     --------
                Please cite the following reference when publishing
                           results obtained with NWChem:

          E. Apra, E. J. Bylaska, W. A. de Jong, N. Govind, K. Kowalski,
       T. P. Straatsma, M. Valiev, H. J. J. van Dam, Y. Alexeev, J. Anchell,
       V. Anisimov, F. W. Aquino, R. Atta-Fynn, J. Autschbach, N. P. Bauman,
     J. C. Becca, D. E. Bernholdt, K. Bhaskaran-Nair, S. Bogatko, P. Borowski,
         J. Boschen, J. Brabec, A. Bruner, E. Cauet, Y. Chen, G. N. Chuev,
      C. J. Cramer, J. Daily, M. J. O. Deegan, T. H. Dunning Jr., M. Dupuis,
   K. G. Dyall, G. I. Fann, S. A. Fischer, A. Fonari, H. Fruchtl, L. Gagliardi,
      J. Garza, N. Gawande, S. Ghosh, K. Glaesemann, A. W. Gotz, J. Hammond,
       V. Helms, E. D. Hermes, K. Hirao, S. Hirata, M. Jacquelin, L. Jensen,
   B. G. Johnson, H. Jonsson, R. A. Kendall, M. Klemm, R. Kobayashi, V. Konkov,
      S. Krishnamoorthy, M. Krishnan, Z. Lin, R. D. Lins, R. J. Littlefield,
      A. J. Logsdail, K. Lopata, W. Ma, A. V. Marenich, J. Martin del Campo,
   D. Mejia-Rodriguez, J. E. Moore, J. M. Mullin, T. Nakajima, D. R. Nascimento,
    J. A. Nichols, P. J. Nichols, J. Nieplocha, A. Otero-de-la-Roza, B. Palmer,
    A. Panyala, T. Pirojsirikul, B. Peng, R. Peverati, J. Pittner, L. Pollack,
   R. M. Richard, P. Sadayappan, G. C. Schatz, W. A. Shelton, D. W. Silverstein,
   D. M. A. Smith, T. A. Soares, D. Song, M. Swart, H. L. Taylor, G. S. Thomas,
            V. Tipparaju, D. G. Truhlar, K. Tsemekhman, T. Van Voorhis,
      A. Vazquez-Mayagoitia, P. Verma, O. Villa, A. Vishnu, K. D. Vogiatzis,
        D. Wang, J. H. Weare, M. J. Williamson, T. L. Windus, K. Wolinski,
        A. T. Wong, Q. Wu, C. Yang, Q. Yu, M. Zacharias, Z. Zhang, Y. Zhao,
                                and R. J. Harrison
                        "NWChem: Past, present, and future
                         J. Chem. Phys. 152, 184102 (2020)
                               doi:10.1063/5.0004997

                                      AUTHORS
                                      -------
  E. Apra, E. J. Bylaska, N. Govind, K. Kowalski, M. Valiev, D. Mejia-Rodriguez,
       A. Kunitsa, N. P. Bauman, A. Panyala, W. A. de Jong, T. P. Straatsma,
   H. J. J. van Dam, D. Wang, T. L. Windus, J. Hammond, J. Autschbach, A. Woods,
    K. Bhaskaran-Nair, J. Brabec, K. Lopata, S. A. Fischer, S. Krishnamoorthy,
     M. Jacquelin, W. Ma, M. Klemm, O. Villa, Y. Chen, V. Anisimov, F. Aquino,
     S. Hirata, M. T. Hackler, E. Hermes, L. Jensen, J. E. Moore, J. C. Becca,
      V. Konjkov, T. Risthaus, M. Malagoli, A. Marenich, A. Otero-de-la-Roza,
        J. Mullin, P. Nichols, R. Peverati, J. Pittner, Y. Zhao, P.-D. Fan,
        A. Fonari, M. J. Williamson, R. J. Harrison, J. R. Rehr, M. Dupuis,
     D. Silverstein, D. M. A. Smith, J. Nieplocha, V. Tipparaju, M. Krishnan,
     B. E. Van Kuiken, A. Vazquez-Mayagoitia, M. Swart, Q. Wu, T. Van Voorhis,
     A. A. Auer, M. Nooijen, L. D. Crosby, E. Brown, G. Cisneros, G. I. Fann,
   H. Fruchtl, J. Garza, K. Hirao, R. A. Kendall, J. A. Nichols, K. Tsemekhman,
    K. Wolinski, J. Anchell, D. E. Bernholdt, P. Borowski, T. Clark, D. Clerc,
   H. Dachsel, M. J. O. Deegan, K. Dyall, D. Elwood, E. Glendening, M. Gutowski,
   A. C. Hess, J. Jaffe, B. G. Johnson, J. Ju, R. Kobayashi, R. Kutteh, Z. Lin,
   R. Littlefield, X. Long, B. Meng, T. Nakajima, S. Niu, L. Pollack, M. Rosing,
   K. Glaesemann, G. Sandrone, M. Stave, H. Taylor, G. Thomas, J. H. van Lenthe,
                               A. T. Wong, Z. Zhang.

 Total times  cpu:     4049.2s     wall:     4061.9s
