export TMOUT=5400
export TMPDIR=/tmp
export PTMPDIR=/tmp/ptmp
 argument  1 = inputs/ASN_MET_5.nw



============================== echo of input deck ==============================
start ASN_MET_5
geometry
H          7.17700       17.85400       -4.61700
C          6.84900       18.47300       -5.45000
H          6.90600       19.52400       -5.17500
H          5.82200       18.21800       -5.71100
C          7.73800       18.21800       -6.64400
O          7.26300       17.79700       -7.69200
N          9.03400       18.48000       -6.49400
H          9.37000       18.81000       -5.60000
C         10.04400       18.22000       -7.52200
H          9.80200       17.26700       -7.99800
C          9.98400       19.33900       -8.58000
H          8.95700       19.68000       -8.71300
H         10.58200       20.19200       -8.25900
C         10.49300       18.84400       -9.91600
O         11.68500       18.76300      -10.15500
N          9.61400       18.43100      -10.79600
H          8.63300       18.43700      -10.57000
H          9.96900       18.09800      -11.67500
C         11.45000       18.09600       -6.90200
O         11.66900       18.53500       -5.77600
N         12.40200       17.52600       -7.64800
H         12.16600       17.26300       -8.59500
C         13.82200       17.47600       -7.27000
H         13.88600       17.29700       -6.19700
C         14.46900       16.28700       -8.00100
H         13.88100       15.38800       -7.80700
H         14.43400       16.48300       -9.07400
C         15.92700       15.98800       -7.62100
H         16.29700       15.25600       -8.33900
H         16.53900       16.88200       -7.73600
S         16.18800       15.27800       -5.96900
C         16.50600       16.76500       -4.97900
H         17.31100       17.34500       -5.43300
H         15.61100       17.38200       -4.92000
H         16.79900       16.47200       -3.97100
C         14.56000       18.79800       -7.56800
O         15.56500       19.11300       -6.94400
N         14.08700       19.60200       -8.51400
H         13.27300       19.33500       -9.05100
H         14.57300       20.46400       -8.69000
end

basis
 * library aug-cc-pvdz
end

echo

scf
 direct
end

task scf energy
================================================================================


                                         
                                         


             Northwest Computational Chemistry Package (NWChem) 7.2.0
             --------------------------------------------------------


                    Environmental Molecular Sciences Laboratory
                       Pacific Northwest National Laboratory
                                Richland, WA 99352

                              Copyright (c) 1994-2022
                       Pacific Northwest National Laboratory
                            Battelle Memorial Institute

             NWChem is an open-source computational chemistry package
                        distributed under the terms of the
                      Educational Community License (ECL) 2.0
             A copy of the license is included with this distribution
                              in the LICENSE.TXT file

                                  ACKNOWLEDGMENT
                                  --------------

            This software and its documentation were developed at the
            EMSL at Pacific Northwest National Laboratory, a multiprogram
            national laboratory, operated for the U.S. Department of Energy
            by Battelle under Contract Number DE-AC05-76RL01830. Support
            for this work was provided by the Department of Energy Office
            of Biological and Environmental Research, Office of Basic
            Energy Sciences, and the Office of Advanced Scientific Computing.


           Job information
           ---------------

    hostname        = nova21-swift-2
    program         = /opt/rit/el9/20230413/app/linux-rhel9-x86_64_v3/gcc-11.2.1/nwchem-7.2.0-oxtctbuhfuzyfaoziquq6bki22grib3g/bin/nwchem
    date            = Thu Jul 10 09:26:33 2025

    compiled        = Wed_May_17_23:46:39_2023
    source          = /tmp/root/spack-stage/spack-stage-nwchem-7.2.0-oxtctbuhfuzyfaoziquq6bki22grib3g/spack-src
    nwchem branch   = 7.2.0
    nwchem revision = d0d141fd
    ga revision     = 5.8.0
    use scalapack   = T
    input           = inputs/ASN_MET_5.nw
    prefix          = ASN_MET_5.
    data base       = ./ASN_MET_5.db
    status          = startup
    nproc           =        8
    time left       =     -1s



           Memory information
           ------------------

    heap     =   26214396 doubles =    200.0 Mbytes
    stack    =   26214401 doubles =    200.0 Mbytes
    global   =   52428800 doubles =    400.0 Mbytes (distinct from heap & stack)
    total    =  104857597 doubles =    800.0 Mbytes
    verify   = yes
    hardfail = no 


           Directory information
           ---------------------

  0 permanent = .
  0 scratch   = .




                                NWChem Input Module
                                -------------------



 Scaling coordinates for geometry "geometry" by  1.889725989
 (inverse scale =  0.529177249)

 C1  symmetry detected

          ------
          auto-z
          ------
  no constraints, skipping    0.0000000000000000     
  no constraints, skipping    0.0000000000000000     


                             Geometry "geometry" -> ""
                             -------------------------

 Output coordinates in angstroms (scale by  1.889725989 to convert to a.u.)

  No.       Tag          Charge          X              Y              Z
 ---- ---------------- ---------- -------------- -------------- --------------
    1 H                    1.0000    -3.72161745     4.40274449     0.15275587
    2 C                    6.0000    -2.82924254     4.99007716     0.36094176
    3 H                    1.0000    -2.73074703     5.14621949     1.43303933
    4 H                    1.0000    -2.90100618     5.95314300    -0.14426035
    5 C                    6.0000    -1.61431140     4.25435122    -0.15250899
    6 O                    8.0000    -0.89220474     4.76556059    -1.00009200
    7 N                    7.0000    -1.37803215     3.05147449     0.36519719
    8 H                    1.0000    -2.01889242     2.67478844     1.04962230
    9 C                    6.0000    -0.29034910     2.17369559    -0.07176253
   10 H                    1.0000    -0.21374248     2.24851395    -1.15890679
   11 C                    6.0000     1.03006150     2.65733895     0.55889581
   12 H                    1.0000     1.03263104     3.74412967     0.64594934
   13 H                    1.0000     1.14341652     2.24017422     1.55958469
   14 C                    6.0000     2.21328781     2.24983314    -0.29134916
   15 O                    8.0000     2.67359335     1.12258862    -0.24680045
   16 N                    7.0000     2.69309151     3.12544811    -1.14028782
   17 H                    1.0000     2.26775913     4.03424344    -1.22187470
   18 H                    1.0000     3.47371411     2.83628795    -1.70293314
   19 C                    6.0000    -0.58619925     0.70263713     0.28189223
   20 O                    8.0000    -1.43150236     0.42968434     1.13013596
   21 N                    7.0000     0.12921012    -0.23588386    -0.34666787
   22 H                    1.0000     0.86277771     0.06883770    -0.97172576
   23 C                    6.0000     0.08294354    -1.66651766    -0.01061678
   24 H                    1.0000    -0.94743412    -1.93096796     0.22571755
   25 C                    6.0000     0.51686182    -2.46302793    -1.25318562
   26 H                    1.0000    -0.08280612    -2.14334956    -2.10746022
   27 H                    1.0000     1.55920333    -2.22232382    -1.46895335
   28 C                    6.0000     0.39700752    -3.99008670    -1.13789702
   29 H                    1.0000     0.90430133    -4.41328724    -2.00496235
   30 H                    1.0000     0.92776274    -4.34577854    -0.25540780
   31 S                   16.0000    -1.29303748    -4.65719777    -1.14387303
   32 C                    6.0000    -1.65335963    -4.75367226     0.63186727
   33 H                    1.0000    -0.86880739    -5.31916243     1.13707975
   34 H                    1.0000    -1.70893587    -3.75602666     1.06408194
   35 H                    1.0000    -2.60947506    -5.25542419     0.77968571
   36 C                    6.0000     0.94814178    -2.01319935     1.21917011
   37 O                    8.0000     0.70041506    -2.99496303     1.90720902
   38 N                    7.0000     1.97165453    -1.22556427     1.53080071
   39 H                    1.0000     2.19753601    -0.42851281     0.95119695
   40 H                    1.0000     2.52003097    -1.45894594     2.34014135

      Atomic Mass 
      ----------- 

      H                  1.007825
      C                 12.000000
      O                 15.994910
      N                 14.003070
      S                 31.972070


 Effective nuclear repulsion energy (a.u.)    1791.7530971789

            Nuclear Dipole moment (a.u.) 
            ----------------------------
        X                 Y               Z
 ---------------- ---------------- ----------------
    -0.0000000000     0.0000000000     0.0000000000



                                Z-matrix (autoz)
                                -------- 

 Units are Angstrom for bonds and degrees for angles

      Type          Name      I     J     K     L     M      Value
      ----------- --------  ----- ----- ----- ----- ----- ----------
    1 Stretch                  1     2                       1.08841
    2 Stretch                  2     3                       1.08788
    3 Stretch                  2     4                       1.08990
    4 Stretch                  2     5                       1.51029
    5 Stretch                  5     6                       1.22522
    6 Stretch                  5     7                       1.33070
    7 Stretch                  7     8                       1.01046
    8 Stretch                  7     9                       1.46441
    9 Stretch                  9    10                       1.09241
   10 Stretch                  9    11                       1.54114
   11 Stretch                  9    19                       1.54163
   12 Stretch                 11    12                       1.09027
   13 Stretch                 11    13                       1.09007
   14 Stretch                 11    14                       1.51294
   15 Stretch                 14    15                       1.21842
   16 Stretch                 14    16                       1.31058
   17 Stretch                 16    17                       1.00671
   18 Stretch                 16    18                       1.00477
   19 Stretch                 19    20                       1.22823
   20 Stretch                 19    21                       1.33706
   21 Stretch                 21    22                       1.01078
   22 Stretch                 21    23                       1.47030
   23 Stretch                 23    24                       1.08971
   24 Stretch                 23    25                       1.53841
   25 Stretch                 23    36                       1.54309
   26 Stretch                 25    26                       1.09160
   27 Stretch                 25    27                       1.09132
   28 Stretch                 25    28                       1.53609
   29 Stretch                 28    29                       1.09007
   30 Stretch                 28    30                       1.08950
   31 Stretch                 28    31                       1.81695
   32 Stretch                 31    32                       1.81450
   33 Stretch                 32    33                       1.09112
   34 Stretch                 32    34                       1.08867
   35 Stretch                 32    35                       1.08984
   36 Stretch                 36    37                       1.22418
   37 Stretch                 36    38                       1.32856
   38 Stretch                 38    39                       1.01107
   39 Stretch                 38    40                       1.00510
   40 Bend                     1     2     3               109.88817
   41 Bend                     1     2     4               109.52278
   42 Bend                     1     2     5               109.36872
   43 Bend                     2     5     6               120.40018
   44 Bend                     2     5     7               116.80273
   45 Bend                     3     2     4               109.62992
   46 Bend                     3     2     5               109.39769
   47 Bend                     4     2     5               109.01614
   48 Bend                     5     7     8               119.20147
   49 Bend                     5     7     9               123.89190
   50 Bend                     6     5     7               122.79581
   51 Bend                     7     9    10               107.93772
   52 Bend                     7     9    11               109.03551
   53 Bend                     7     9    19               111.16049
   54 Bend                     8     7     9               116.72615
   55 Bend                     9    11    12               110.33517
   56 Bend                     9    11    13               110.16088
   57 Bend                     9    11    14               110.82766
   58 Bend                     9    19    20               120.16993
   59 Bend                     9    19    21               117.34019
   60 Bend                    10     9    11               109.00603
   61 Bend                    10     9    19               107.88522
   62 Bend                    11     9    19               111.71574
   63 Bend                    11    14    15               121.60769
   64 Bend                    11    14    16               118.05964
   65 Bend                    12    11    13               107.93445
   66 Bend                    12    11    14               108.15048
   67 Bend                    13    11    14               109.35961
   68 Bend                    14    16    17               120.06287
   69 Bend                    14    16    18               117.05759
   70 Bend                    15    14    16               120.23143
   71 Bend                    17    16    18               122.86489
   72 Bend                    19    21    22               117.86679
   73 Bend                    19    21    23               123.96656
   74 Bend                    20    19    21               122.47415
   75 Bend                    21    23    24               108.38836
   76 Bend                    21    23    25               108.07728
   77 Bend                    21    23    36               112.52680
   78 Bend                    22    21    23               117.22690
   79 Bend                    23    25    26               108.99744
   80 Bend                    23    25    27               108.35452
   81 Bend                    23    25    28               115.59958
   82 Bend                    23    36    37               120.97335
   83 Bend                    23    36    38               119.05823
   84 Bend                    24    23    25               108.43478
   85 Bend                    24    23    36               107.62569
   86 Bend                    25    23    36               111.66862
   87 Bend                    25    28    29               106.85440
   88 Bend                    25    28    30               110.32450
   89 Bend                    25    28    31               115.93363
   90 Bend                    26    25    27               107.78074
   91 Bend                    26    25    28               107.87887
   92 Bend                    27    25    28               107.97669
   93 Bend                    28    31    32               101.59615
   94 Bend                    29    28    30               106.90769
   95 Bend                    29    28    31               106.72110
   96 Bend                    30    28    31               109.62885
   97 Bend                    31    32    33               109.74914
   98 Bend                    31    32    34               110.48409
   99 Bend                    31    32    35               109.35541
  100 Bend                    33    32    34               109.13626
  101 Bend                    33    32    35               109.23240
  102 Bend                    34    32    35               108.86035
  103 Bend                    36    38    39               120.33189
  104 Bend                    36    38    40               118.13464
  105 Bend                    37    36    38               119.96790
  106 Bend                    39    38    40               121.51812
  107 Torsion                  1     2     5     6         120.11182
  108 Torsion                  1     2     5     7         -60.28896
  109 Torsion                  2     5     7     8           1.49503
  110 Torsion                  2     5     7     9         176.44651
  111 Torsion                  3     2     5     6        -119.48539
  112 Torsion                  3     2     5     7          60.11383
  113 Torsion                  4     2     5     6           0.38710
  114 Torsion                  4     2     5     7         179.98633
  115 Torsion                  5     7     9    10         -39.61513
  116 Torsion                  5     7     9    11          78.66595
  117 Torsion                  5     7     9    19        -157.74338
  118 Torsion                  6     5     7     8        -178.91620
  119 Torsion                  6     5     7     9          -3.96472
  120 Torsion                  7     9    11    12         -34.22459
  121 Torsion                  7     9    11    13          84.84691
  122 Torsion                  7     9    11    14        -153.98881
  123 Torsion                  7     9    19    20         -18.30227
  124 Torsion                  7     9    19    21         163.10497
  125 Torsion                  8     7     9    10         135.45113
  126 Torsion                  8     7     9    11        -106.26779
  127 Torsion                  8     7     9    19          17.32289
  128 Torsion                  9    11    14    15         -80.01319
  129 Torsion                  9    11    14    16          96.33509
  130 Torsion                  9    19    21    22           3.88427
  131 Torsion                  9    19    21    23         172.46162
  132 Torsion                 10     9    11    12          83.38375
  133 Torsion                 10     9    11    13        -157.54475
  134 Torsion                 10     9    11    14         -36.38048
  135 Torsion                 10     9    19    20        -136.46224
  136 Torsion                 10     9    19    21          44.94501
  137 Torsion                 11     9    19    20         103.74465
  138 Torsion                 11     9    19    21         -74.84810
  139 Torsion                 11    14    16    17          -0.83241
  140 Torsion                 11    14    16    18        -179.47978
  141 Torsion                 12    11     9    19        -157.48493
  142 Torsion                 12    11    14    15         158.92335
  143 Torsion                 12    11    14    16         -24.72837
  144 Torsion                 13    11     9    19         -38.41343
  145 Torsion                 13    11    14    15          41.62266
  146 Torsion                 13    11    14    16        -142.02906
  147 Torsion                 14    11     9    19          82.75085
  148 Torsion                 15    14    16    17         175.56810
  149 Torsion                 15    14    16    18          -3.07927
  150 Torsion                 19    21    23    24          38.74903
  151 Torsion                 19    21    23    25         156.07501
  152 Torsion                 19    21    23    36         -80.15387
  153 Torsion                 20    19    21    22        -174.67361
  154 Torsion                 20    19    21    23          -6.09625
  155 Torsion                 21    23    25    26         -52.47151
  156 Torsion                 21    23    25    27          64.56125
  157 Torsion                 21    23    25    28        -174.13841
  158 Torsion                 21    23    36    37         155.03676
  159 Torsion                 21    23    36    38         -24.69870
  160 Torsion                 22    21    23    24        -152.60638
  161 Torsion                 22    21    23    25         -35.28041
  162 Torsion                 22    21    23    36          88.49072
  163 Torsion                 23    25    28    29        -169.80015
  164 Torsion                 23    25    28    30         -53.93381
  165 Torsion                 23    25    28    31          71.40888
  166 Torsion                 23    36    38    39          -2.03343
  167 Torsion                 23    36    38    40         179.36993
  168 Torsion                 24    23    25    26          64.82454
  169 Torsion                 24    23    25    27        -178.14270
  170 Torsion                 24    23    25    28         -56.84236
  171 Torsion                 24    23    36    37          35.68891
  172 Torsion                 24    23    36    38        -144.04655
  173 Torsion                 25    23    36    37         -83.20979
  174 Torsion                 25    23    36    38          97.05475
  175 Torsion                 25    28    31    32         -93.50730
  176 Torsion                 26    25    23    36        -176.75864
  177 Torsion                 26    25    28    29          67.93534
  178 Torsion                 26    25    28    30        -176.19832
  179 Torsion                 26    25    28    31         -50.85564
  180 Torsion                 27    25    23    36         -59.72589
  181 Torsion                 27    25    28    29         -48.29672
  182 Torsion                 27    25    28    30          67.56962
  183 Torsion                 27    25    28    31        -167.08769
  184 Torsion                 28    25    23    36          61.57446
  185 Torsion                 28    31    32    33         -53.53385
  186 Torsion                 28    31    32    34          66.85932
  187 Torsion                 28    31    32    35        -173.34014
  188 Torsion                 29    28    31    32         147.62866
  189 Torsion                 30    28    31    32          32.18966
  190 Torsion                 37    36    38    39         178.22839
  191 Torsion                 37    36    38    40          -0.36825


            XYZ format geometry
            -------------------
    40
 geometry
 H                    -3.72161745     4.40274449     0.15275587
 C                    -2.82924254     4.99007716     0.36094176
 H                    -2.73074703     5.14621949     1.43303933
 H                    -2.90100618     5.95314300    -0.14426035
 C                    -1.61431140     4.25435122    -0.15250899
 O                    -0.89220474     4.76556059    -1.00009200
 N                    -1.37803215     3.05147449     0.36519719
 H                    -2.01889242     2.67478844     1.04962230
 C                    -0.29034910     2.17369559    -0.07176253
 H                    -0.21374248     2.24851395    -1.15890679
 C                     1.03006150     2.65733895     0.55889581
 H                     1.03263104     3.74412967     0.64594934
 H                     1.14341652     2.24017422     1.55958469
 C                     2.21328781     2.24983314    -0.29134916
 O                     2.67359335     1.12258862    -0.24680045
 N                     2.69309151     3.12544811    -1.14028782
 H                     2.26775913     4.03424344    -1.22187470
 H                     3.47371411     2.83628795    -1.70293314
 C                    -0.58619925     0.70263713     0.28189223
 O                    -1.43150236     0.42968434     1.13013596
 N                     0.12921012    -0.23588386    -0.34666787
 H                     0.86277771     0.06883770    -0.97172576
 C                     0.08294354    -1.66651766    -0.01061678
 H                    -0.94743412    -1.93096796     0.22571755
 C                     0.51686182    -2.46302793    -1.25318562
 H                    -0.08280612    -2.14334956    -2.10746022
 H                     1.55920333    -2.22232382    -1.46895335
 C                     0.39700752    -3.99008670    -1.13789702
 H                     0.90430133    -4.41328724    -2.00496235
 H                     0.92776274    -4.34577854    -0.25540780
 S                    -1.29303748    -4.65719777    -1.14387303
 C                    -1.65335963    -4.75367226     0.63186727
 H                    -0.86880739    -5.31916243     1.13707975
 H                    -1.70893587    -3.75602666     1.06408194
 H                    -2.60947506    -5.25542419     0.77968571
 C                     0.94814178    -2.01319935     1.21917011
 O                     0.70041506    -2.99496303     1.90720902
 N                     1.97165453    -1.22556427     1.53080071
 H                     2.19753601    -0.42851281     0.95119695
 H                     2.52003097    -1.45894594     2.34014135

 ==============================================================================
                                internuclear distances
 ------------------------------------------------------------------------------
       center one      |      center two      | atomic units |  angstroms
 ------------------------------------------------------------------------------
    2 C                |   1 H                |     2.05679  |     1.08841
    3 H                |   2 C                |     2.05579  |     1.08788
    4 H                |   2 C                |     2.05961  |     1.08990
    5 C                |   2 C                |     2.85404  |     1.51029
    6 O                |   5 C                |     2.31533  |     1.22522
    7 N                |   5 C                |     2.51466  |     1.33070
    8 H                |   7 N                |     1.90949  |     1.01046
    9 C                |   7 N                |     2.76733  |     1.46441
   10 H                |   9 C                |     2.06435  |     1.09241
   11 C                |   9 C                |     2.91234  |     1.54114
   12 H                |  11 C                |     2.06032  |     1.09027
   13 H                |  11 C                |     2.05993  |     1.09007
   14 C                |  11 C                |     2.85905  |     1.51294
   15 O                |  14 C                |     2.30248  |     1.21842
   16 N                |  14 C                |     2.47663  |     1.31058
   17 H                |  16 N                |     1.90241  |     1.00671
   18 H                |  16 N                |     1.89873  |     1.00477
   19 C                |   9 C                |     2.91325  |     1.54163
   20 O                |  19 C                |     2.32103  |     1.22823
   21 N                |  19 C                |     2.52667  |     1.33706
   22 H                |  21 N                |     1.91010  |     1.01078
   23 C                |  21 N                |     2.77847  |     1.47030
   24 H                |  23 C                |     2.05925  |     1.08971
   25 C                |  23 C                |     2.90716  |     1.53841
   26 H                |  25 C                |     2.06282  |     1.09160
   27 H                |  25 C                |     2.06229  |     1.09132
   28 C                |  25 C                |     2.90278  |     1.53609
   29 H                |  28 C                |     2.05993  |     1.09007
   30 H                |  28 C                |     2.05885  |     1.08950
   31 S                |  28 C                |     3.43355  |     1.81695
   32 C                |  31 S                |     3.42890  |     1.81450
   33 H                |  32 C                |     2.06192  |     1.09112
   34 H                |  32 C                |     2.05728  |     1.08867
   35 H                |  32 C                |     2.05951  |     1.08984
   36 C                |  23 C                |     2.91602  |     1.54309
   37 O                |  36 C                |     2.31337  |     1.22418
   38 N                |  36 C                |     2.51061  |     1.32856
   39 H                |  38 N                |     1.91064  |     1.01107
   40 H                |  38 N                |     1.89935  |     1.00510
 ------------------------------------------------------------------------------
                         number of included internuclear distances:         39
 ==============================================================================



 ==============================================================================
                                 internuclear angles
 ------------------------------------------------------------------------------
        center 1       |       center 2       |       center 3       |  degrees
 ------------------------------------------------------------------------------
    1 H                |   2 C                |   3 H                |   109.89
    1 H                |   2 C                |   4 H                |   109.52
    1 H                |   2 C                |   5 C                |   109.37
    3 H                |   2 C                |   4 H                |   109.63
    3 H                |   2 C                |   5 C                |   109.40
    4 H                |   2 C                |   5 C                |   109.02
    2 C                |   5 C                |   6 O                |   120.40
    2 C                |   5 C                |   7 N                |   116.80
    6 O                |   5 C                |   7 N                |   122.80
    5 C                |   7 N                |   8 H                |   119.20
    5 C                |   7 N                |   9 C                |   123.89
    8 H                |   7 N                |   9 C                |   116.73
    7 N                |   9 C                |  10 H                |   107.94
    7 N                |   9 C                |  11 C                |   109.04
    7 N                |   9 C                |  19 C                |   111.16
   10 H                |   9 C                |  11 C                |   109.01
   10 H                |   9 C                |  19 C                |   107.89
   11 C                |   9 C                |  19 C                |   111.72
    9 C                |  11 C                |  12 H                |   110.34
    9 C                |  11 C                |  13 H                |   110.16
    9 C                |  11 C                |  14 C                |   110.83
   12 H                |  11 C                |  13 H                |   107.93
   12 H                |  11 C                |  14 C                |   108.15
   13 H                |  11 C                |  14 C                |   109.36
   11 C                |  14 C                |  15 O                |   121.61
   11 C                |  14 C                |  16 N                |   118.06
   15 O                |  14 C                |  16 N                |   120.23
   14 C                |  16 N                |  17 H                |   120.06
   14 C                |  16 N                |  18 H                |   117.06
   17 H                |  16 N                |  18 H                |   122.86
    9 C                |  19 C                |  20 O                |   120.17
    9 C                |  19 C                |  21 N                |   117.34
   20 O                |  19 C                |  21 N                |   122.47
   19 C                |  21 N                |  22 H                |   117.87
   19 C                |  21 N                |  23 C                |   123.97
   22 H                |  21 N                |  23 C                |   117.23
   21 N                |  23 C                |  24 H                |   108.39
   21 N                |  23 C                |  25 C                |   108.08
   21 N                |  23 C                |  36 C                |   112.53
   24 H                |  23 C                |  25 C                |   108.43
   24 H                |  23 C                |  36 C                |   107.63
   25 C                |  23 C                |  36 C                |   111.67
   23 C                |  25 C                |  26 H                |   109.00
   23 C                |  25 C                |  27 H                |   108.35
   23 C                |  25 C                |  28 C                |   115.60
   26 H                |  25 C                |  27 H                |   107.78
   26 H                |  25 C                |  28 C                |   107.88
   27 H                |  25 C                |  28 C                |   107.98
   25 C                |  28 C                |  29 H                |   106.85
   25 C                |  28 C                |  30 H                |   110.32
   25 C                |  28 C                |  31 S                |   115.93
   29 H                |  28 C                |  30 H                |   106.91
   29 H                |  28 C                |  31 S                |   106.72
   30 H                |  28 C                |  31 S                |   109.63
   28 C                |  31 S                |  32 C                |   101.60
   31 S                |  32 C                |  33 H                |   109.75
   31 S                |  32 C                |  34 H                |   110.48
   31 S                |  32 C                |  35 H                |   109.36
   33 H                |  32 C                |  34 H                |   109.14
   33 H                |  32 C                |  35 H                |   109.23
   34 H                |  32 C                |  35 H                |   108.86
   23 C                |  36 C                |  37 O                |   120.97
   23 C                |  36 C                |  38 N                |   119.06
   37 O                |  36 C                |  38 N                |   119.97
   36 C                |  38 N                |  39 H                |   120.33
   36 C                |  38 N                |  40 H                |   118.13
   39 H                |  38 N                |  40 H                |   121.52
 ------------------------------------------------------------------------------
                            number of included internuclear angles:         67
 ==============================================================================



  library name resolved from: environment
  library file name is: </opt/rit/el9/20230413/app/linux-rhel9-x86_64_v3/gcc-11.2.1/nwchem-7.2.0-oxtctbuhfuzyfaoziquq6bki22grib3g/share/nwchem/libraries/>
  


 Summary of "ao basis" -> "" (cartesian)
 ------------------------------------------------------------------------------
       Tag                 Description            Shells   Functions and Types
 ---------------- ------------------------------  ------  ---------------------
 *                        aug-cc-pvdz                 on all atoms 


                      Basis "ao basis" -> "ao basis" (cartesian)
                      -----
  H (Hydrogen)
  ------------
            Exponent  Coefficients 
       -------------- ---------------------------------------------------------
  1 S  1.30100000E+01  0.019685
  1 S  1.96200000E+00  0.137977
  1 S  4.44600000E-01  0.478148

  2 S  1.22000000E-01  1.000000

  3 S  2.97400000E-02  1.000000

  4 P  7.27000000E-01  1.000000

  5 P  1.41000000E-01  1.000000

  C (Carbon)
  ----------
            Exponent  Coefficients 
       -------------- ---------------------------------------------------------
  1 S  6.66500000E+03  0.000692
  1 S  1.00000000E+03  0.005329
  1 S  2.28000000E+02  0.027077
  1 S  6.47100000E+01  0.101718
  1 S  2.10600000E+01  0.274740
  1 S  7.49500000E+00  0.448564
  1 S  2.79700000E+00  0.285074
  1 S  5.21500000E-01  0.015204

  2 S  6.66500000E+03 -0.000146
  2 S  1.00000000E+03 -0.001154
  2 S  2.28000000E+02 -0.005725
  2 S  6.47100000E+01 -0.023312
  2 S  2.10600000E+01 -0.063955
  2 S  7.49500000E+00 -0.149981
  2 S  2.79700000E+00 -0.127262
  2 S  5.21500000E-01  0.544529

  3 S  1.59600000E-01  1.000000

  4 S  4.69000000E-02  1.000000

  5 P  9.43900000E+00  0.038109
  5 P  2.00200000E+00  0.209480
  5 P  5.45600000E-01  0.508557

  6 P  1.51700000E-01  1.000000

  7 P  4.04100000E-02  1.000000

  8 D  5.50000000E-01  1.000000

  9 D  1.51000000E-01  1.000000

  O (Oxygen)
  ----------
            Exponent  Coefficients 
       -------------- ---------------------------------------------------------
  1 S  1.17200000E+04  0.000710
  1 S  1.75900000E+03  0.005470
  1 S  4.00800000E+02  0.027837
  1 S  1.13700000E+02  0.104800
  1 S  3.70300000E+01  0.283062
  1 S  1.32700000E+01  0.448719
  1 S  5.02500000E+00  0.270952
  1 S  1.01300000E+00  0.015458

  2 S  1.17200000E+04 -0.000160
  2 S  1.75900000E+03 -0.001263
  2 S  4.00800000E+02 -0.006267
  2 S  1.13700000E+02 -0.025716
  2 S  3.70300000E+01 -0.070924
  2 S  1.32700000E+01 -0.165411
  2 S  5.02500000E+00 -0.116955
  2 S  1.01300000E+00  0.557368

  3 S  3.02300000E-01  1.000000

  4 S  7.89600000E-02  1.000000

  5 P  1.77000000E+01  0.043018
  5 P  3.85400000E+00  0.228913
  5 P  1.04600000E+00  0.508728

  6 P  2.75300000E-01  1.000000

  7 P  6.85600000E-02  1.000000

  8 D  1.18500000E+00  1.000000

  9 D  3.32000000E-01  1.000000

  N (Nitrogen)
  ------------
            Exponent  Coefficients 
       -------------- ---------------------------------------------------------
  1 S  9.04600000E+03  0.000700
  1 S  1.35700000E+03  0.005389
  1 S  3.09300000E+02  0.027406
  1 S  8.77300000E+01  0.103207
  1 S  2.85600000E+01  0.278723
  1 S  1.02100000E+01  0.448540
  1 S  3.83800000E+00  0.278238
  1 S  7.46600000E-01  0.015440

  2 S  9.04600000E+03 -0.000153
  2 S  1.35700000E+03 -0.001208
  2 S  3.09300000E+02 -0.005992
  2 S  8.77300000E+01 -0.024544
  2 S  2.85600000E+01 -0.067459
  2 S  1.02100000E+01 -0.158078
  2 S  3.83800000E+00 -0.121831
  2 S  7.46600000E-01  0.549003

  3 S  2.24800000E-01  1.000000

  4 S  6.12400000E-02  1.000000

  5 P  1.35500000E+01  0.039919
  5 P  2.91700000E+00  0.217169
  5 P  7.97300000E-01  0.510319

  6 P  2.18500000E-01  1.000000

  7 P  5.61100000E-02  1.000000

  8 D  8.17000000E-01  1.000000

  9 D  2.30000000E-01  1.000000

  S (Sulphur)
  -----------
            Exponent  Coefficients 
       -------------- ---------------------------------------------------------
  1 S  1.10800000E+05  0.000248
  1 S  1.66100000E+04  0.001920
  1 S  3.78100000E+03  0.009962
  1 S  1.07100000E+03  0.040298
  1 S  3.49800000E+02  0.128604
  1 S  1.26300000E+02  0.303480
  1 S  4.92600000E+01  0.421432
  1 S  2.01600000E+01  0.230781
  1 S  5.72000000E+00  0.017897
  1 S  2.18200000E+00 -0.002975
  1 S  4.32700000E-01  0.000850

  2 S  1.10800000E+05 -0.000069
  2 S  1.66100000E+04 -0.000528
  2 S  3.78100000E+03 -0.002797
  2 S  1.07100000E+03 -0.011265
  2 S  3.49800000E+02 -0.038883
  2 S  1.26300000E+02 -0.099503
  2 S  4.92600000E+01 -0.199740
  2 S  2.01600000E+01 -0.123360
  2 S  5.72000000E+00  0.513194
  2 S  2.18200000E+00  0.607120
  2 S  4.32700000E-01  0.039675

  3 S  1.10800000E+05  0.000020
  3 S  1.66100000E+04  0.000153
  3 S  3.78100000E+03  0.000810
  3 S  1.07100000E+03  0.003290
  3 S  3.49800000E+02  0.011297
  3 S  1.26300000E+02  0.029639
  3 S  4.92600000E+01  0.059985
  3 S  2.01600000E+01  0.041325
  3 S  5.72000000E+00 -0.207474
  3 S  2.18200000E+00 -0.392889
  3 S  4.32700000E-01  0.632840

  4 S  1.57000000E-01  1.000000

  5 S  5.07000000E-02  1.000000

  6 P  3.99700000E+02  0.004475
  6 P  9.41900000E+01  0.034171
  6 P  2.97500000E+01  0.144250
  6 P  1.07700000E+01  0.353928
  6 P  4.11900000E+00  0.459085
  6 P  1.62500000E+00  0.206383
  6 P  4.72600000E-01  0.010214

  7 P  3.99700000E+02 -0.001163
  7 P  9.41900000E+01 -0.008657
  7 P  2.97500000E+01 -0.039089
  7 P  1.07700000E+01 -0.093463
  7 P  4.11900000E+00 -0.147994
  7 P  1.62500000E+00  0.030190
  7 P  4.72600000E-01  0.561573

  8 P  1.40700000E-01  1.000000

  9 P  3.99000000E-02  1.000000

 10 D  4.79000000E-01  1.000000

 11 D  1.52000000E-01  1.000000



 Summary of "ao basis" -> "ao basis" (cartesian)
 ------------------------------------------------------------------------------
       Tag                 Description            Shells   Functions and Types
 ---------------- ------------------------------  ------  ---------------------
 H                        aug-cc-pvdz                5        9   3s2p
 C                        aug-cc-pvdz                9       25   4s3p2d
 O                        aug-cc-pvdz                9       25   4s3p2d
 N                        aug-cc-pvdz                9       25   4s3p2d
 S                        aug-cc-pvdz               11       29   5s4p2d


                                 NWChem SCF Module
                                 -----------------



  ao basis        = "ao basis"
  functions       =   684
  atoms           =    40
  closed shells   =    81
  open shells     =     0
  charge          =   0.00
  wavefunction    = RHF 
  input vectors   = atomic
  output vectors  = ./ASN_MET_5.movecs
  use symmetry    = F
  symmetry adapt  = F


 Summary of "ao basis" -> "ao basis" (cartesian)
 ------------------------------------------------------------------------------
       Tag                 Description            Shells   Functions and Types
 ---------------- ------------------------------  ------  ---------------------
 H                        aug-cc-pvdz                5        9   3s2p
 C                        aug-cc-pvdz                9       25   4s3p2d
 O                        aug-cc-pvdz                9       25   4s3p2d
 N                        aug-cc-pvdz                9       25   4s3p2d
 S                        aug-cc-pvdz               11       29   5s4p2d



 Forming initial guess at       0.8s


 !! The overlap matrix has   7 vectors deemed linearly dependent with
    eigenvalues:
 1.75D-06 2.43D-06 5.13D-06 6.21D-06 7.00D-06 8.42D-06 8.95D-06


      Superposition of Atomic Density Guess
      -------------------------------------

 Sum of atomic energies:       -1338.08087253

      Non-variational initial energy
      ------------------------------

 Total energy =   -1350.781728
 1-e energy   =   -5391.771559
 2-e energy   =    2249.236733
 HOMO         =      -0.266958
 LUMO         =       0.010134


 Starting SCF solution at     295.5s



 ----------------------------------------------
         Quadratically convergent ROHF

 Convergence threshold     :          1.000E-04
 Maximum no. of iterations :           30
 Final Fock-matrix accuracy:          1.000E-10
 ----------------------------------------------


              iter       energy          gnorm     gmax       time
             ----- ------------------- --------- --------- --------
                 1    -1342.7358176505  2.71D+00  1.50D-01    625.1
                 2    -1343.1268348354  9.08D-01  4.11D-02   1286.8
                 3    -1343.2000024619  7.20D-02  4.02D-03   2204.6
                 4    -1343.2007830556  4.58D-03  2.98D-04   3415.3
                 5    -1343.2007868901  9.90D-06  6.37D-07   5507.4


       Final RHF  results 
       ------------------ 

         Total SCF energy =  -1343.200786890103
      One-electron energy =  -5405.784573114202
      Two-electron energy =   2270.830689045181
 Nuclear repulsion energy =   1791.753097178917

        Time for solution =   5213.2s


             Final eigenvalues
             -----------------

              1      
    1  -91.9362
    2  -20.5580
    3  -20.5476
    4  -20.5393
    5  -20.5159
    6  -15.6255
    7  -15.6124
    8  -15.6110
    9  -15.5806
   10  -11.3872
   11  -11.3803
   12  -11.3693
   13  -11.3507
   14  -11.3267
   15  -11.2973
   16  -11.2788
   17  -11.2585
   18  -11.2527
   19  -11.2511
   20  -11.2388
   21   -8.9369
   22   -6.6192
   23   -6.6178
   24   -6.6159
   25   -1.4315
   26   -1.4085
   27   -1.3990
   28   -1.3795
   29   -1.2635
   30   -1.2611
   31   -1.2574
   32   -1.2069
   33   -1.1040
   34   -1.0858
   35   -1.0257
   36   -1.0160
   37   -0.9682
   38   -0.9355
   39   -0.8700
   40   -0.8405
   41   -0.8249
   42   -0.8080
   43   -0.7974
   44   -0.7794
   45   -0.7730
   46   -0.7516
   47   -0.7285
   48   -0.7044
   49   -0.6922
   50   -0.6793
   51   -0.6678
   52   -0.6600
   53   -0.6452
   54   -0.6353
   55   -0.6299
   56   -0.6239
   57   -0.6131
   58   -0.5947
   59   -0.5921
   60   -0.5797
   61   -0.5717
   62   -0.5692
   63   -0.5642
   64   -0.5616
   65   -0.5587
   66   -0.5556
   67   -0.5354
   68   -0.5198
   69   -0.5173
   70   -0.5135
   71   -0.4686
   72   -0.4646
   73   -0.4559
   74   -0.4429
   75   -0.4371
   76   -0.4360
   77   -0.4177
   78   -0.4129
   79   -0.3998
   80   -0.3915
   81   -0.3259
   82    0.0226
   83    0.0316
   84    0.0375
   85    0.0409
   86    0.0494
   87    0.0507
   88    0.0533
   89    0.0535
   90    0.0609
   91    0.0644

                       ROHF Final Molecular Orbital Analysis
                       -------------------------------------

 Vector   25  Occ=2.000000D+00  E=-1.431478D+00
              MO Center=  2.5D+00,  1.6D+00, -3.4D-01, r^2= 1.0D+00
   Bfn.  Coefficient  Atom+Function         Bfn.  Coefficient  Atom+Function  
  ----- ------------  ---------------      ----- ------------  ---------------
   241      0.371818  15 O  s               240      0.349696  15 O  s         
   215      0.246105  14 C  s               266      0.150645  16 N  s         

 Vector   26  Occ=2.000000D+00  E=-1.408533D+00
              MO Center= -9.8D-01,  1.3D+00,  4.4D-01, r^2= 4.0D+00
   Bfn.  Coefficient  Atom+Function         Bfn.  Coefficient  Atom+Function  
  ----- ------------  ---------------      ----- ------------  ---------------
   334      0.326363  20 O  s               333      0.301989  20 O  s         
   308      0.215462  19 C  s                80      0.154085   6 O  s         
    79      0.152577   6 O  s         

 Vector   27  Occ=2.000000D+00  E=-1.399045D+00
              MO Center= -1.1D+00,  3.5D+00, -3.1D-01, r^2= 4.3D+00
   Bfn.  Coefficient  Atom+Function         Bfn.  Coefficient  Atom+Function  
  ----- ------------  ---------------      ----- ------------  ---------------
    80      0.316295   6 O  s                79      0.313188   6 O  s         
    54      0.216644   5 C  s               334     -0.175851  20 O  s         
   333     -0.166819  20 O  s                12      0.163078   2 C  s         

 Vector   28  Occ=2.000000D+00  E=-1.379544D+00
              MO Center=  8.5D-01, -2.5D+00,  1.6D+00, r^2= 1.2D+00
   Bfn.  Coefficient  Atom+Function         Bfn.  Coefficient  Atom+Function  
  ----- ------------  ---------------      ----- ------------  ---------------
   619      0.380895  37 O  s               618      0.349846  37 O  s         
   593      0.245465  36 C  s         

 Vector   29  Occ=2.000000D+00  E=-1.263450D+00
              MO Center=  9.6D-01,  2.1D+00, -4.0D-01, r^2= 6.6D+00
   Bfn.  Coefficient  Atom+Function         Bfn.  Coefficient  Atom+Function  
  ----- ------------  ---------------      ----- ------------  ---------------
   266      0.295207  16 N  s               265      0.254357  16 N  s         
   105      0.237946   7 N  s               359     -0.231663  21 N  s         
   173     -0.183124  11 C  s               104      0.178514   7 N  s         
   358     -0.174010  21 N  s               241     -0.152372  15 O  s         

 Vector   30  Occ=2.000000D+00  E=-1.261090D+00
              MO Center= -5.1D-01,  1.2D+00,  8.6D-02, r^2= 5.1D+00
   Bfn.  Coefficient  Atom+Function         Bfn.  Coefficient  Atom+Function  
  ----- ------------  ---------------      ----- ------------  ---------------
   359      0.300528  21 N  s               105      0.292361   7 N  s         
   358      0.247936  21 N  s               104      0.209443   7 N  s         
   334     -0.204621  20 O  s               333     -0.171815  20 O  s         
   393     -0.171373  23 C  s         

 Vector   31  Occ=2.000000D+00  E=-1.257444D+00
              MO Center=  9.2D-01,  2.4D+00, -4.4D-01, r^2= 6.4D+00
   Bfn.  Coefficient  Atom+Function         Bfn.  Coefficient  Atom+Function  
  ----- ------------  ---------------      ----- ------------  ---------------
   266     -0.285520  16 N  s               105      0.265273   7 N  s         
   265     -0.265690  16 N  s               104      0.201332   7 N  s         
   359     -0.186079  21 N  s               241      0.157667  15 O  s         

 Vector   32  Occ=2.000000D+00  E=-1.206901D+00
              MO Center=  1.6D+00, -1.4D+00,  1.4D+00, r^2= 1.7D+00
   Bfn.  Coefficient  Atom+Function         Bfn.  Coefficient  Atom+Function  
  ----- ------------  ---------------      ----- ------------  ---------------
   644      0.404226  38 N  s               643      0.366780  38 N  s         
   619     -0.204427  37 O  s               393     -0.201803  23 C  s         
   618     -0.170881  37 O  s               597      0.162314  36 C  py        
   667      0.161590  39 H  s               676      0.158903  40 H  s         

 Vector   33  Occ=2.000000D+00  E=-1.103982D+00
              MO Center=  9.5D-02,  3.8D-01, -1.9D-01, r^2= 1.0D+01
   Bfn.  Coefficient  Atom+Function         Bfn.  Coefficient  Atom+Function  
  ----- ------------  ---------------      ----- ------------  ---------------
   172      0.182389  11 C  s               173      0.179663  11 C  s         
   138      0.174134   9 C  s               426     -0.156646  25 C  s         

 Vector   34  Occ=2.000000D+00  E=-1.085819D+00
              MO Center=  1.0D-01, -8.2D-01, -4.6D-01, r^2= 1.2D+01
   Bfn.  Coefficient  Atom+Function         Bfn.  Coefficient  Atom+Function  
  ----- ------------  ---------------      ----- ------------  ---------------
   427      0.187270  25 C  s               469      0.184636  28 C  s         
   433     -0.178036  25 C  py              426      0.175811  25 C  s         
   172      0.174324  11 C  s               393      0.153480  23 C  s         

 Vector   35  Occ=2.000000D+00  E=-1.025721D+00
              MO Center= -5.6D-01, -3.0D+00, -2.2D-01, r^2= 7.5D+00
   Bfn.  Coefficient  Atom+Function         Bfn.  Coefficient  Atom+Function  
  ----- ------------  ---------------      ----- ------------  ---------------
   513      0.244994  31 S  s               541      0.188712  32 C  s         
   392     -0.181905  23 C  s         

 Vector   36  Occ=2.000000D+00  E=-1.016035D+00
              MO Center= -1.7D+00,  4.3D+00,  2.7D-01, r^2= 4.9D+00
   Bfn.  Coefficient  Atom+Function         Bfn.  Coefficient  Atom+Function  
  ----- ------------  ---------------      ----- ------------  ---------------
    11      0.314678   2 C  s                56     -0.207874   5 C  s         
   178      0.187465  11 C  px              174      0.159516  11 C  s         
   173      0.155737  11 C  s               144      0.152331   9 C  px        
   172      0.150929  11 C  s         

 Vector   37  Occ=2.000000D+00  E=-9.682346D-01
              MO Center= -3.2D-01, -1.6D+00, -1.1D-01, r^2= 1.3D+01
   Bfn.  Coefficient  Atom+Function         Bfn.  Coefficient  Atom+Function  
  ----- ------------  ---------------      ----- ------------  ---------------
   471      0.256195  28 C  s               541      0.193206  32 C  s         
   433      0.159351  25 C  py              595     -0.158755  36 C  s         
   469     -0.152695  28 C  s         

 Vector   38  Occ=2.000000D+00  E=-9.354604D-01
              MO Center= -2.1D-01,  7.4D-01,  3.0D-02, r^2= 1.3D+01
   Bfn.  Coefficient  Atom+Function         Bfn.  Coefficient  Atom+Function  
  ----- ------------  ---------------      ----- ------------  ---------------
   138      0.196798   9 C  s               178     -0.196785  11 C  px        

 Vector   39  Occ=2.000000D+00  E=-8.699822D-01
              MO Center= -6.4D-03, -3.0D+00, -2.5D-01, r^2= 5.9D+00
   Bfn.  Coefficient  Atom+Function         Bfn.  Coefficient  Atom+Function  
  ----- ------------  ---------------      ----- ------------  ---------------
   393      0.350907  23 C  s               427     -0.221445  25 C  s         
   426     -0.208794  25 C  s               471     -0.183226  28 C  s         
   542     -0.175835  32 C  s               400      0.172284  23 C  pz        
   541     -0.172264  32 C  s               513      0.150236  31 S  s         

 Vector   40  Occ=2.000000D+00  E=-8.405300D-01
              MO Center=  1.8D+00,  2.0D+00, -4.9D-01, r^2= 6.3D+00
   Bfn.  Coefficient  Atom+Function         Bfn.  Coefficient  Atom+Function  
  ----- ------------  ---------------      ----- ------------  ---------------
   269     -0.220425  16 N  py              215      0.216526  14 C  s         
   270      0.201302  16 N  pz              289     -0.184901  17 H  s         
   173      0.166286  11 C  s               298     -0.155351  18 H  s         

 Vector   41  Occ=2.000000D+00  E=-8.248573D-01
              MO Center= -2.1D-01,  1.1D+00, -5.6D-02, r^2= 1.1D+01
   Bfn.  Coefficient  Atom+Function         Bfn.  Coefficient  Atom+Function  
  ----- ------------  ---------------      ----- ------------  ---------------
   108      0.203612   7 N  py              393      0.200369  23 C  s         
   309      0.189511  19 C  s               359     -0.173568  21 N  s         
   382     -0.156063  22 H  s         

 Vector   42  Occ=2.000000D+00  E=-8.080072D-01
              MO Center= -7.6D-01,  2.1D+00,  1.2D-01, r^2= 7.2D+00
   Bfn.  Coefficient  Atom+Function         Bfn.  Coefficient  Atom+Function  
  ----- ------------  ---------------      ----- ------------  ---------------
   105      0.296671   7 N  s               128      0.272702   8 H  s         
   163     -0.238223  10 H  s               144      0.223355   9 C  px        
   109      0.217364   7 N  pz               55     -0.188208   5 C  s         
   108     -0.182584   7 N  py              162     -0.159603  10 H  s         
   173     -0.159514  11 C  s               158      0.158409   9 C  dxz       

 Vector   43  Occ=2.000000D+00  E=-7.973649D-01
              MO Center=  7.2D-01, -1.3D+00,  5.6D-01, r^2= 5.0D+00
   Bfn.  Coefficient  Atom+Function         Bfn.  Coefficient  Atom+Function  
  ----- ------------  ---------------      ----- ------------  ---------------
   309      0.310748  19 C  s               400     -0.249225  23 C  pz        
   646      0.208498  38 N  px              382     -0.205568  22 H  s         
   359     -0.204474  21 N  s               361     -0.187126  21 N  px        
   593     -0.178447  36 C  s               676      0.178176  40 H  s         
   601     -0.171073  36 C  pz              599     -0.157408  36 C  px        

 Vector   44  Occ=2.000000D+00  E=-7.794002D-01
              MO Center= -2.4D-01, -2.8D+00, -4.4D-01, r^2= 1.0D+01
   Bfn.  Coefficient  Atom+Function         Bfn.  Coefficient  Atom+Function  
  ----- ------------  ---------------      ----- ------------  ---------------
   514      0.368769  31 S  s               513      0.260928  31 S  s         
   469     -0.170906  28 C  s               502     -0.158340  30 H  s         
   542     -0.151202  32 C  s         

 Vector   45  Occ=2.000000D+00  E=-7.729991D-01
              MO Center=  2.2D+00,  2.5D+00, -6.4D-01, r^2= 4.5D+00
   Bfn.  Coefficient  Atom+Function         Bfn.  Coefficient  Atom+Function  
  ----- ------------  ---------------      ----- ------------  ---------------
   289     -0.271094  17 H  s               298      0.264093  18 H  s         
   268      0.255887  16 N  px              269     -0.257044  16 N  py        
   299      0.165556  18 H  s         

 Vector   46  Occ=2.000000D+00  E=-7.516332D-01
              MO Center=  4.9D-01,  7.2D-01,  3.7D-01, r^2= 9.6D+00
   Bfn.  Coefficient  Atom+Function         Bfn.  Coefficient  Atom+Function  
  ----- ------------  ---------------      ----- ------------  ---------------
   594      0.195919  36 C  s               667     -0.195236  39 H  s         
   647     -0.193330  38 N  py              309      0.177991  19 C  s         
   312     -0.175600  19 C  py              142      0.159701   9 C  py        
   145      0.159545   9 C  py        

 Vector   47  Occ=2.000000D+00  E=-7.285480D-01
              MO Center=  1.1D+00,  5.0D-02,  4.9D-01, r^2= 9.1D+00
   Bfn.  Coefficient  Atom+Function         Bfn.  Coefficient  Atom+Function  
  ----- ------------  ---------------      ----- ------------  ---------------
   648      0.217898  38 N  pz              667     -0.211829  39 H  s         
   676      0.197681  40 H  s               647     -0.177633  38 N  py        

 Vector   48  Occ=2.000000D+00  E=-7.044456D-01
              MO Center=  6.6D-01,  2.2D+00, -1.3D-01, r^2= 8.7D+00
   Bfn.  Coefficient  Atom+Function         Bfn.  Coefficient  Atom+Function  
  ----- ------------  ---------------      ----- ------------  ---------------
   243      0.157500  15 O  px        

 Vector   49  Occ=2.000000D+00  E=-6.922201D-01
              MO Center=  4.4D-01,  3.8D-01,  2.8D-01, r^2= 9.4D+00
   Bfn.  Coefficient  Atom+Function         Bfn.  Coefficient  Atom+Function  
  ----- ------------  ---------------      ----- ------------  ---------------
   362      0.197788  21 N  py              396     -0.174615  23 C  py        

 Vector   50  Occ=2.000000D+00  E=-6.793017D-01
              MO Center= -4.8D-01,  1.9D+00,  2.0D-01, r^2= 1.0D+01
   Bfn.  Coefficient  Atom+Function         Bfn.  Coefficient  Atom+Function  
  ----- ------------  ---------------      ----- ------------  ---------------
   173      0.196302  11 C  s               145     -0.156604   9 C  py        
    58     -0.155041   5 C  py        

 Vector   51  Occ=2.000000D+00  E=-6.678118D-01
              MO Center= -5.8D-01,  2.2D+00, -2.0D-02, r^2= 1.0D+01
   Bfn.  Coefficient  Atom+Function         Bfn.  Coefficient  Atom+Function  
  ----- ------------  ---------------      ----- ------------  ---------------
    82      0.203765   6 O  px               80      0.201233   6 O  s         
    58     -0.180758   5 C  py               84     -0.171828   6 O  pz        
   362     -0.156234  21 N  py              108      0.153045   7 N  py        

 Vector   52  Occ=2.000000D+00  E=-6.600102D-01
              MO Center=  3.3D-01,  2.1D+00,  6.1D-02, r^2= 7.1D+00
   Bfn.  Coefficient  Atom+Function         Bfn.  Coefficient  Atom+Function  
  ----- ------------  ---------------      ----- ------------  ---------------
   173      0.298678  11 C  s               216     -0.167578  14 C  s         
   178      0.162650  11 C  px              143     -0.154823   9 C  pz        
   175      0.152124  11 C  px        

 Vector   53  Occ=2.000000D+00  E=-6.451717D-01
              MO Center=  1.4D-01, -8.1D-01, -5.3D-02, r^2= 1.0D+01
   Bfn.  Coefficient  Atom+Function         Bfn.  Coefficient  Atom+Function  
  ----- ------------  ---------------      ----- ------------  ---------------
   429      0.201549  25 C  px              395      0.185871  23 C  px        
   459      0.166387  27 H  s               416     -0.160716  24 H  s         

 Vector   54  Occ=2.000000D+00  E=-6.352689D-01
              MO Center=  1.7D-01, -1.2D+00,  1.3D-01, r^2= 1.3D+01
   Bfn.  Coefficient  Atom+Function         Bfn.  Coefficient  Atom+Function  
  ----- ------------  ---------------      ----- ------------  ---------------
   474      0.195044  28 C  pz              622     -0.189083  37 O  py        
   431      0.165294  25 C  pz              596      0.163592  36 C  px        

 Vector   55  Occ=2.000000D+00  E=-6.298893D-01
              MO Center=  2.7D-01,  1.0D+00,  2.8D-01, r^2= 9.3D+00
   Bfn.  Coefficient  Atom+Function         Bfn.  Coefficient  Atom+Function  
  ----- ------------  ---------------      ----- ------------  ---------------
   338      0.229397  20 O  pz              218      0.183588  14 C  px        
   311      0.182010  19 C  px              334      0.181372  20 O  s         

 Vector   56  Occ=2.000000D+00  E=-6.239016D-01
              MO Center= -3.8D-01,  1.9D+00, -4.3D-02, r^2= 1.6D+01
   Bfn.  Coefficient  Atom+Function         Bfn.  Coefficient  Atom+Function  
  ----- ------------  ---------------      ----- ------------  ---------------
    14     -0.162329   2 C  px                1      0.160345   1 H  s         
    59     -0.155683   5 C  pz               16     -0.152320   2 C  pz        

 Vector   57  Occ=2.000000D+00  E=-6.131495D-01
              MO Center=  6.5D-01,  2.2D+00,  4.7D-02, r^2= 1.0D+01
   Bfn.  Coefficient  Atom+Function         Bfn.  Coefficient  Atom+Function  
  ----- ------------  ---------------      ----- ------------  ---------------
   244      0.267406  15 O  py              197      0.258610  12 H  s         
   219     -0.206578  14 C  py              196      0.165107  12 H  s         
   176      0.162563  11 C  py               57     -0.155008   5 C  px        
   241     -0.152030  15 O  s         

 Vector   58  Occ=2.000000D+00  E=-5.947013D-01
              MO Center=  6.2D-02,  9.8D-01,  2.2D-01, r^2= 1.6D+01
   Bfn.  Coefficient  Atom+Function         Bfn.  Coefficient  Atom+Function  
  ----- ------------  ---------------      ----- ------------  ---------------
    83     -0.177626   6 O  py               57      0.163558   5 C  px        
   622     -0.158537  37 O  py               84      0.157424   6 O  pz        
   597      0.151654  36 C  py        

 Vector   59  Occ=2.000000D+00  E=-5.920933D-01
              MO Center=  3.3D-01, -4.7D-01,  5.0D-01, r^2= 1.2D+01
   Bfn.  Coefficient  Atom+Function         Bfn.  Coefficient  Atom+Function  
  ----- ------------  ---------------      ----- ------------  ---------------
   597      0.174646  36 C  py              361      0.163528  21 N  px        
   594     -0.156423  36 C  s               623      0.155118  37 O  pz        
   622     -0.151730  37 O  py        

 Vector   60  Occ=2.000000D+00  E=-5.796518D-01
              MO Center= -6.0D-01,  2.2D+00,  2.3D-02, r^2= 1.5D+01
   Bfn.  Coefficient  Atom+Function         Bfn.  Coefficient  Atom+Function  
  ----- ------------  ---------------      ----- ------------  ---------------
    45      0.193088   4 H  s               173      0.186262  11 C  s         
     1     -0.167970   1 H  s                15      0.162214   2 C  py        
    44      0.160109   4 H  s               205      0.156912  13 H  s         
   144     -0.151788   9 C  px        

 Vector   61  Occ=2.000000D+00  E=-5.717199D-01
              MO Center= -7.2D-01, -1.9D+00,  3.7D-01, r^2= 1.7D+01
   Bfn.  Coefficient  Atom+Function         Bfn.  Coefficient  Atom+Function  
  ----- ------------  ---------------      ----- ------------  ---------------
   470      0.300767  28 C  s               544     -0.278757  32 C  px        
   583      0.222193  35 H  s               584      0.220712  35 H  s         
   565     -0.187201  33 H  s               427     -0.176634  25 C  s         
   417      0.173536  24 H  s         

 Vector   62  Occ=2.000000D+00  E=-5.692346D-01
              MO Center= -1.4D+00,  7.1D-01,  3.0D-01, r^2= 2.3D+01
   Bfn.  Coefficient  Atom+Function         Bfn.  Coefficient  Atom+Function  
  ----- ------------  ---------------      ----- ------------  ---------------
   470      0.293013  28 C  s                44     -0.234701   4 H  s         
    16      0.193979   2 C  pz              565     -0.190830  33 H  s         
    15     -0.180580   2 C  py              545      0.176481  32 C  py        
    45     -0.175161   4 H  s               427     -0.171018  25 C  s         
    35      0.157583   3 H  s               163      0.154193  10 H  s         

 Vector   63  Occ=2.000000D+00  E=-5.641797D-01
              MO Center= -1.0D+00,  1.4D+00,  1.8D-01, r^2= 1.8D+01
   Bfn.  Coefficient  Atom+Function         Bfn.  Coefficient  Atom+Function  
  ----- ------------  ---------------      ----- ------------  ---------------
   470      0.278514  28 C  s                15      0.240986   2 C  py        
    44      0.217933   4 H  s               107     -0.170705   7 N  px        

 Vector   64  Occ=2.000000D+00  E=-5.615905D-01
              MO Center=  3.0D-01, -1.9D+00,  4.3D-01, r^2= 1.1D+01
   Bfn.  Coefficient  Atom+Function         Bfn.  Coefficient  Atom+Function  
  ----- ------------  ---------------      ----- ------------  ---------------
   598      0.204818  36 C  pz              622      0.195485  37 O  py        
   399      0.191134  23 C  py              460      0.170251  27 H  s         
   474      0.161443  28 C  pz        

 Vector   65  Occ=2.000000D+00  E=-5.587377D-01
              MO Center= -1.0D+00, -2.6D+00,  4.4D-01, r^2= 1.1D+01
   Bfn.  Coefficient  Atom+Function         Bfn.  Coefficient  Atom+Function  
  ----- ------------  ---------------      ----- ------------  ---------------
   545      0.304836  32 C  py              584     -0.271773  35 H  s         
   574      0.268304  34 H  s               417      0.219388  24 H  s         
   583     -0.186899  35 H  s               460      0.180891  27 H  s         
   393     -0.174845  23 C  s         

 Vector   66  Occ=2.000000D+00  E=-5.556468D-01
              MO Center=  2.9D-02,  6.8D-01,  2.4D-01, r^2= 9.4D+00
   Bfn.  Coefficient  Atom+Function         Bfn.  Coefficient  Atom+Function  
  ----- ------------  ---------------      ----- ------------  ---------------
   470      0.228576  28 C  s               197      0.198160  12 H  s         
   338      0.194221  20 O  pz              176      0.170203  11 C  py        
   363      0.169776  21 N  pz              196      0.157469  12 H  s         
   178      0.154153  11 C  px        

 Vector   67  Occ=2.000000D+00  E=-5.354165D-01
              MO Center= -3.0D-01, -8.8D-01, -2.8D-02, r^2= 1.1D+01
   Bfn.  Coefficient  Atom+Function         Bfn.  Coefficient  Atom+Function  
  ----- ------------  ---------------      ----- ------------  ---------------
   473     -0.191928  28 C  py              476     -0.191963  28 C  py        
   336      0.184163  20 O  px              400     -0.178590  23 C  pz        
   430      0.175407  25 C  py              416      0.173919  24 H  s         
   470     -0.161772  28 C  s               395     -0.155073  23 C  px        
   393      0.152689  23 C  s         

 Vector   68  Occ=2.000000D+00  E=-5.197752D-01
              MO Center= -8.0D-01,  3.0D+00, -1.2D-01, r^2= 8.9D+00
   Bfn.  Coefficient  Atom+Function         Bfn.  Coefficient  Atom+Function  
  ----- ------------  ---------------      ----- ------------  ---------------
    84      0.222287   6 O  pz              163      0.206298  10 H  s         
   206      0.177849  13 H  s               143     -0.169769   9 C  pz        
    87      0.162152   6 O  pz              393      0.161365  23 C  s         
   162      0.151869  10 H  s               177      0.152262  11 C  pz        
    82      0.151064   6 O  px                2      0.150301   1 H  s         

 Vector   69  Occ=2.000000D+00  E=-5.173420D-01
              MO Center=  4.8D-02, -2.8D+00, -3.5D-01, r^2= 6.6D+00
   Bfn.  Coefficient  Atom+Function         Bfn.  Coefficient  Atom+Function  
  ----- ------------  ---------------      ----- ------------  ---------------
   451      0.259559  26 H  s               430      0.256597  25 C  py        
   476     -0.251565  28 C  py              473     -0.238675  28 C  py        
   427      0.229017  25 C  s               503      0.197905  30 H  s         
   460     -0.195763  27 H  s               450      0.186741  26 H  s         
   594      0.170441  36 C  s               544     -0.168287  32 C  px        

 Vector   70  Occ=2.000000D+00  E=-5.135396D-01
              MO Center=  1.8D-01, -2.7D+00, -2.9D-01, r^2= 5.6D+00
   Bfn.  Coefficient  Atom+Function         Bfn.  Coefficient  Atom+Function  
  ----- ------------  ---------------      ----- ------------  ---------------
   431      0.278894  25 C  pz              450     -0.222929  26 H  s         
   471     -0.214127  28 C  s               397     -0.187490  23 C  pz        
   494      0.167216  29 H  s               399     -0.165874  23 C  py        
   622      0.164529  37 O  py              502     -0.157453  30 H  s         

 Vector   71  Occ=2.000000D+00  E=-4.686478D-01
              MO Center= -3.7D-01, -3.7D+00, -6.5D-01, r^2= 5.4D+00
   Bfn.  Coefficient  Atom+Function         Bfn.  Coefficient  Atom+Function  
  ----- ------------  ---------------      ----- ------------  ---------------
   503      0.265707  30 H  s               549      0.209399  32 C  pz        
   493     -0.207180  29 H  s               472     -0.204741  28 C  px        
   546      0.204787  32 C  pz              521     -0.197755  31 S  pz        
   494     -0.189503  29 H  s               519      0.187793  31 S  px        
   399      0.185847  23 C  py              459      0.186197  27 H  s         

 Vector   72  Occ=2.000000D+00  E=-4.646412D-01
              MO Center=  1.7D+00,  1.4D+00, -6.5D-02, r^2= 5.5D+00
   Bfn.  Coefficient  Atom+Function         Bfn.  Coefficient  Atom+Function  
  ----- ------------  ---------------      ----- ------------  ---------------
   243      0.368091  15 O  px              245     -0.290387  15 O  pz        
   246      0.290263  15 O  px              248     -0.228868  15 O  pz        
   216      0.189819  14 C  s               221     -0.188489  14 C  px        
   235     -0.170349  14 C  dxz             223      0.169007  14 C  pz        

 Vector   73  Occ=2.000000D+00  E=-4.559272D-01
              MO Center=  1.0D+00,  1.5D+00, -1.4D-01, r^2= 8.3D+00
   Bfn.  Coefficient  Atom+Function         Bfn.  Coefficient  Atom+Function  
  ----- ------------  ---------------      ----- ------------  ---------------
   245      0.305709  15 O  pz              337      0.272490  20 O  py        
   248      0.243486  15 O  pz              340      0.215225  20 O  py        
   268     -0.204096  16 N  px              270     -0.188338  16 N  pz        
   206      0.181663  13 H  s               271     -0.170563  16 N  px        
   273     -0.167188  16 N  pz        

 Vector   74  Occ=2.000000D+00  E=-4.428769D-01
              MO Center=  8.2D-01,  1.2D+00,  3.9D-02, r^2= 8.1D+00
   Bfn.  Coefficient  Atom+Function         Bfn.  Coefficient  Atom+Function  
  ----- ------------  ---------------      ----- ------------  ---------------
   337      0.336910  20 O  py              340      0.274482  20 O  py        
   270      0.227463  16 N  pz              145      0.209783   9 C  py        
   243     -0.196082  15 O  px              271      0.189902  16 N  px        
   268      0.187871  16 N  px              245     -0.172842  15 O  pz        
   173     -0.171849  11 C  s               273      0.170630  16 N  pz        

 Vector   75  Occ=2.000000D+00  E=-4.370687D-01
              MO Center= -1.7D-01,  2.0D-01,  4.6D-01, r^2= 1.1D+01
   Bfn.  Coefficient  Atom+Function         Bfn.  Coefficient  Atom+Function  
  ----- ------------  ---------------      ----- ------------  ---------------
   621      0.244232  37 O  px              217      0.229535  14 C  s         
   337      0.201532  20 O  py              145      0.191262   9 C  py        
   624      0.189517  37 O  px              216      0.180433  14 C  s         
   363      0.168471  21 N  pz              417     -0.166256  24 H  s         
    82      0.164043   6 O  px              366      0.164569  21 N  pz        

 Vector   76  Occ=2.000000D+00  E=-4.359678D-01
              MO Center= -1.1D+00,  3.5D+00, -3.0D-01, r^2= 7.5D+00
   Bfn.  Coefficient  Atom+Function         Bfn.  Coefficient  Atom+Function  
  ----- ------------  ---------------      ----- ------------  ---------------
    83      0.365017   6 O  py               82     -0.326582   6 O  px        
    86      0.299100   6 O  py               85     -0.259191   6 O  px        
    13      0.253548   2 C  s               217     -0.244946  14 C  s         
   174      0.218969  11 C  s                17     -0.213885   2 C  px        
   105      0.211417   7 N  s               337      0.210629  20 O  py        

 Vector   77  Occ=2.000000D+00  E=-4.177337D-01
              MO Center= -8.1D-01, -1.5D+00, -3.9D-01, r^2= 1.7D+01
   Bfn.  Coefficient  Atom+Function         Bfn.  Coefficient  Atom+Function  
  ----- ------------  ---------------      ----- ------------  ---------------
   514      0.306072  31 S  s               521     -0.241087  31 S  pz        
   584     -0.197861  35 H  s               519     -0.179307  31 S  px        
   109     -0.178061   7 N  pz              475      0.165436  28 C  px        
   549      0.163703  32 C  pz              524     -0.162554  31 S  pz        
   112     -0.159183   7 N  pz              546      0.155039  32 C  pz        

 Vector   78  Occ=2.000000D+00  E=-4.128519D-01
              MO Center= -7.7D-01,  6.9D-01, -2.1D-01, r^2= 1.7D+01
   Bfn.  Coefficient  Atom+Function         Bfn.  Coefficient  Atom+Function  
  ----- ------------  ---------------      ----- ------------  ---------------
   109      0.251857   7 N  pz              112      0.226424   7 N  pz        
   514      0.223109  31 S  s               107      0.209581   7 N  px        
    84     -0.195168   6 O  pz              110      0.192234   7 N  px        
   521     -0.173325  31 S  pz              417     -0.161034  24 H  s         
   584     -0.160378  35 H  s         

 Vector   79  Occ=2.000000D+00  E=-3.998409D-01
              MO Center=  1.1D+00, -2.3D+00,  1.3D+00, r^2= 4.1D+00
   Bfn.  Coefficient  Atom+Function         Bfn.  Coefficient  Atom+Function  
  ----- ------------  ---------------      ----- ------------  ---------------
   646      0.259756  38 N  px              623      0.242450  37 O  pz        
   648     -0.229782  38 N  pz              647     -0.227227  38 N  py        
   622      0.221605  37 O  py              649      0.215779  38 N  px        
   471     -0.214249  28 C  s               650     -0.213842  38 N  py        
   651     -0.204753  38 N  pz              626      0.197576  37 O  pz        

 Vector   80  Occ=2.000000D+00  E=-3.914914D-01
              MO Center=  1.6D-01, -1.3D+00,  6.8D-01, r^2= 6.1D+00
   Bfn.  Coefficient  Atom+Function         Bfn.  Coefficient  Atom+Function  
  ----- ------------  ---------------      ----- ------------  ---------------
   621      0.292452  37 O  px              363     -0.242765  21 N  pz        
   366     -0.235550  21 N  pz              624      0.235500  37 O  px        
   417     -0.216826  24 H  s               623      0.216752  37 O  pz        
   361     -0.214502  21 N  px              360      0.200047  21 N  s         
   364     -0.193564  21 N  px              626      0.165917  37 O  pz        

 Vector   81  Occ=2.000000D+00  E=-3.259195D-01
              MO Center= -1.2D+00, -4.6D+00, -1.0D+00, r^2= 2.3D+00
   Bfn.  Coefficient  Atom+Function         Bfn.  Coefficient  Atom+Function  
  ----- ------------  ---------------      ----- ------------  ---------------
   520      0.482866  31 S  py              523      0.476229  31 S  py        
   522     -0.200227  31 S  px              519     -0.197783  31 S  px        
   427     -0.175784  25 C  s               575     -0.176035  34 H  s         
   470      0.161562  28 C  s         

 Vector   82  Occ=0.000000D+00  E= 2.257191D-02
              MO Center=  3.1D+00,  3.4D+00, -1.7D+00, r^2= 2.2D+01
   Bfn.  Coefficient  Atom+Function         Bfn.  Coefficient  Atom+Function  
  ----- ------------  ---------------      ----- ------------  ---------------
   267     -3.816798  16 N  s               217      3.630543  14 C  s         
   174      2.816222  11 C  s               226     -2.708722  14 C  pz        
   300     -2.323336  18 H  s               106     -1.746719   7 N  s         
   595      1.701739  36 C  s               224      1.360830  14 C  px        
   428      1.260817  25 C  s               225      1.207842  14 C  py        

 Vector   83  Occ=0.000000D+00  E= 3.162480D-02
              MO Center= -1.5D+00,  4.6D+00,  1.0D+00, r^2= 3.1D+01
   Bfn.  Coefficient  Atom+Function         Bfn.  Coefficient  Atom+Function  
  ----- ------------  ---------------      ----- ------------  ---------------
   148      2.615016   9 C  py              217      2.613295  14 C  s         
    63     -2.331124   5 C  px               64      2.307767   5 C  py        
    37     -2.267557   3 H  s                12      2.016237   2 C  s         
   147     -1.847728   9 C  px              173      1.653301  11 C  s         
   226      1.545343  14 C  pz              300      1.455963  18 H  s         

 Vector   84  Occ=0.000000D+00  E= 3.746083D-02
              MO Center= -3.8D-01,  2.2D+00, -3.5D-01, r^2= 3.6D+01
   Bfn.  Coefficient  Atom+Function         Bfn.  Coefficient  Atom+Function  
  ----- ------------  ---------------      ----- ------------  ---------------
   198     -2.994237  12 H  s               164      2.862599  10 H  s         
   149      2.244517   9 C  pz              147      2.132605   9 C  px        
    56      2.117995   5 C  s               148     -1.963857   9 C  py        
   182      1.806708  11 C  py               12     -1.746493   2 C  s         
     3      1.693737   1 H  s               452      1.671322  26 H  s         

 Vector   85  Occ=0.000000D+00  E= 4.089579D-02
              MO Center=  2.5D+00, -7.7D-01, -7.2D-01, r^2= 3.9D+01
   Bfn.  Coefficient  Atom+Function         Bfn.  Coefficient  Atom+Function  
  ----- ------------  ---------------      ----- ------------  ---------------
   595     -4.202085  36 C  s               471      3.849797  28 C  s         
   495      2.800072  29 H  s               645      2.791676  38 N  s         
   394     -2.774412  23 C  s               428     -2.512377  25 C  s         
   217     -2.456460  14 C  s               479      1.965968  28 C  py        
   543     -1.846080  32 C  s               678      1.843180  40 H  s         

 Vector   86  Occ=0.000000D+00  E= 4.935506D-02
              MO Center= -9.3D-02,  1.8D-01, -1.6D-01, r^2= 5.0D+01
   Bfn.  Coefficient  Atom+Function         Bfn.  Coefficient  Atom+Function  
  ----- ------------  ---------------      ----- ------------  ---------------
   471      4.289498  28 C  s               495      3.534032  29 H  s         
   198      3.004406  12 H  s               403      2.545544  23 C  pz        
     3     -2.409536   1 H  s               595     -2.391082  36 C  s         
   182     -2.264609  11 C  py              480      1.767428  28 C  pz        
   360      1.741207  21 N  s               479      1.738254  28 C  py        

 Vector   87  Occ=0.000000D+00  E= 5.069635D-02
              MO Center= -3.0D-01,  1.8D+00, -6.9D-01, r^2= 4.5D+01
   Bfn.  Coefficient  Atom+Function         Bfn.  Coefficient  Atom+Function  
  ----- ------------  ---------------      ----- ------------  ---------------
[...]
   318     -4.969460  19 C  py              114     -4.280053   7 N  py        

 Vector  200  Occ=0.000000D+00  E= 4.438709D-01
              MO Center=  2.4D-01,  1.3D+00,  2.2D-01, r^2= 2.2D+01
   Bfn.  Coefficient  Atom+Function         Bfn.  Coefficient  Atom+Function  
  ----- ------------  ---------------      ----- ------------  ---------------
   217     14.234996  14 C  s               267    -10.445735  16 N  s         
   149     -9.717050   9 C  pz              471      8.444762  28 C  s         
   402      7.492939  23 C  py              360     -7.313667  21 N  s         
   148      7.003284   9 C  py               13     -6.188772   2 C  s         
   318     -5.057866  19 C  py              183      4.784598  11 C  pz        

 Vector  201  Occ=0.000000D+00  E= 4.471615D-01
              MO Center=  3.0D-01,  1.5D+00, -6.0D-02, r^2= 2.5D+01
   Bfn.  Coefficient  Atom+Function         Bfn.  Coefficient  Atom+Function  
  ----- ------------  ---------------      ----- ------------  ---------------
    56     15.686489   5 C  s               174    -14.608739  11 C  s         
   217      8.289050  14 C  s               114     -7.921413   7 N  py        
   147      7.650830   9 C  px               12     -6.271757   2 C  s         
   318      6.091820  19 C  py              113      5.299900   7 N  px        
   360     -4.673728  21 N  s                45      4.141234   4 H  s         

 Vector  202  Occ=0.000000D+00  E= 4.510918D-01
              MO Center=  1.2D-01,  5.2D-02, -3.6D-02, r^2= 2.0D+01
   Bfn.  Coefficient  Atom+Function         Bfn.  Coefficient  Atom+Function  
  ----- ------------  ---------------      ----- ------------  ---------------
   318     21.887396  19 C  py               13    -14.648877   2 C  s         
    56     14.550894   5 C  s               418     13.236904  24 H  s         
   217     12.658809  14 C  s               360     12.286580  21 N  s         
   174    -11.689456  11 C  s               645      9.341201  38 N  s         
   267     -8.366744  16 N  s               147      7.782489   9 C  px        

 Vector  203  Occ=0.000000D+00  E= 4.557211D-01
              MO Center=  1.8D-01, -1.3D+00,  2.8D-01, r^2= 2.2D+01
   Bfn.  Coefficient  Atom+Function         Bfn.  Coefficient  Atom+Function  
  ----- ------------  ---------------      ----- ------------  ---------------
   471     18.200903  28 C  s               595    -11.510703  36 C  s         
   418     10.836023  24 H  s               543     -9.326599  32 C  s         
   148     -8.814860   9 C  py              368     -8.512563  21 N  py        
   645      8.509394  38 N  s               394     -7.677268  23 C  s         
   318      7.388434  19 C  py              428     -7.315401  25 C  s         

 Vector  204  Occ=0.000000D+00  E= 4.570520D-01
              MO Center= -4.8D-01, -2.2D+00,  3.5D-01, r^2= 2.4D+01
   Bfn.  Coefficient  Atom+Function         Bfn.  Coefficient  Atom+Function  
  ----- ------------  ---------------      ----- ------------  ---------------
   471     11.339798  28 C  s               147     10.201816   9 C  px        
   217    -10.105521  14 C  s               595     -8.004972  36 C  s         
   403      6.715218  23 C  pz               13      4.798018   2 C  s         
   603      4.691998  36 C  py              318      4.610345  19 C  py        
   479      4.569457  28 C  py              319     -4.477947  19 C  pz        

 Vector  205  Occ=0.000000D+00  E= 4.643522D-01
              MO Center= -2.2D-01,  1.4D+00, -3.9D-01, r^2= 2.2D+01
   Bfn.  Coefficient  Atom+Function         Bfn.  Coefficient  Atom+Function  
  ----- ------------  ---------------      ----- ------------  ---------------
   148     11.289845   9 C  py              645      9.534811  38 N  s         
   360      9.048877  21 N  s               106     -8.661300   7 N  s         
   436      7.574002  25 C  py              595     -7.156212  36 C  s         
   147     -7.035776   9 C  px               56     -6.997142   5 C  s         
   319      6.988433  19 C  pz              368      6.142055  21 N  py        

 Vector  206  Occ=0.000000D+00  E= 4.699877D-01
              MO Center= -1.1D-01,  2.6D-01, -4.9D-02, r^2= 2.4D+01
   Bfn.  Coefficient  Atom+Function         Bfn.  Coefficient  Atom+Function  
  ----- ------------  ---------------      ----- ------------  ---------------
   217     20.977616  14 C  s                13     -9.445113   2 C  s         
   401     -8.458314  23 C  px              418     -7.683528  24 H  s         
    12     -7.436136   2 C  s               403      7.215812  23 C  pz        
   360     -6.836095  21 N  s               181     -5.866718  11 C  px        
   242     -5.731753  15 O  s               149      5.235956   9 C  pz        

 Vector  207  Occ=0.000000D+00  E= 4.728007D-01
              MO Center=  4.0D-01, -6.2D-01, -2.0D-01, r^2= 2.4D+01
   Bfn.  Coefficient  Atom+Function         Bfn.  Coefficient  Atom+Function  
  ----- ------------  ---------------      ----- ------------  ---------------
   217     16.364436  14 C  s               174    -12.735070  11 C  s         
   543     12.188923  32 C  s               471    -11.964124  28 C  s         
    56      9.211430   5 C  s               595      9.157249  36 C  s         
   267     -8.980512  16 N  s               542      8.106160  32 C  s         
   566     -6.285508  33 H  s                13     -6.171849   2 C  s         

 Vector  208  Occ=0.000000D+00  E= 4.735065D-01
              MO Center= -1.6D-01, -5.0D-01,  5.4D-02, r^2= 2.9D+01
   Bfn.  Coefficient  Atom+Function         Bfn.  Coefficient  Atom+Function  
  ----- ------------  ---------------      ----- ------------  ---------------
   360      6.856640  21 N  s               595     -6.198313  36 C  s         
   471      5.610017  28 C  s               174     -5.097694  11 C  s         
   436      4.729052  25 C  py              393      4.640881  23 C  s         
   148      4.599519   9 C  py              470     -4.622197  28 C  s         
   543      4.584715  32 C  s               368      4.531018  21 N  py        

 Vector  209  Occ=0.000000D+00  E= 4.773260D-01
              MO Center=  2.0D-01, -7.9D-01, -1.8D-01, r^2= 2.2D+01
   Bfn.  Coefficient  Atom+Function         Bfn.  Coefficient  Atom+Function  
  ----- ------------  ---------------      ----- ------------  ---------------
   471     16.021838  28 C  s                56     10.532327   5 C  s         
   267     -8.292903  16 N  s               427      7.872043  25 C  s         
   436      7.334689  25 C  py              384     -6.346653  22 H  s         
   543     -5.930475  32 C  s               360     -5.748233  21 N  s         
   393      5.709079  23 C  s               197      5.553774  12 H  s         

 Vector  210  Occ=0.000000D+00  E= 4.830076D-01
              MO Center=  8.6D-01,  6.1D-01, -1.7D-01, r^2= 2.3D+01
   Bfn.  Coefficient  Atom+Function         Bfn.  Coefficient  Atom+Function  
  ----- ------------  ---------------      ----- ------------  ---------------
   174     18.561640  11 C  s               360    -10.923742  21 N  s         
    56    -10.625992   5 C  s               645    -10.194486  38 N  s         
   595      8.983590  36 C  s               206     -8.382867  13 H  s         
    13      8.283389   2 C  s               197     -7.818384  12 H  s         
   267     -6.693661  16 N  s               471     -6.695921  28 C  s         

 Vector  211  Occ=0.000000D+00  E= 4.849691D-01
              MO Center= -7.7D-01, -2.1D+00, -3.0D-01, r^2= 2.4D+01
   Bfn.  Coefficient  Atom+Function         Bfn.  Coefficient  Atom+Function  
  ----- ------------  ---------------      ----- ------------  ---------------
   471     11.242996  28 C  s               645      9.406489  38 N  s         
   595     -7.594935  36 C  s               428     -7.526751  25 C  s         
   318      6.838798  19 C  py              360      6.658073  21 N  s         
   418     -6.602059  24 H  s               317     -5.455416  19 C  px        
   197     -5.134238  12 H  s               368     -4.909083  21 N  py        

 Vector  212  Occ=0.000000D+00  E= 4.860483D-01
              MO Center= -4.7D-01, -4.2D-01,  2.0D-01, r^2= 2.5D+01
   Bfn.  Coefficient  Atom+Function         Bfn.  Coefficient  Atom+Function  
  ----- ------------  ---------------      ----- ------------  ---------------
   217     11.980444  14 C  s                13    -10.843934   2 C  s         
    63     -7.022673   5 C  px              542     -6.954716  32 C  s         
   645     -6.620909  38 N  s                64      6.578181   5 C  py        
   418     -6.400438  24 H  s               360      6.139288  21 N  s         
   114      5.991977   7 N  py              197      5.742253  12 H  s         

 Vector  213  Occ=0.000000D+00  E= 4.899936D-01
              MO Center=  1.3D-01, -1.2D+00, -1.4D-02, r^2= 2.5D+01
   Bfn.  Coefficient  Atom+Function         Bfn.  Coefficient  Atom+Function  
  ----- ------------  ---------------      ----- ------------  ---------------
   217     16.470219  14 C  s               543     -9.768137  32 C  s         
   542     -9.600524  32 C  s               147     -9.211681   9 C  px        
   267     -8.758896  16 N  s               242     -7.015031  15 O  s         
   566      6.744834  33 H  s               418     -6.047773  24 H  s         
   575      6.041337  34 H  s               504     -5.976934  30 H  s         

 Vector  214  Occ=0.000000D+00  E= 4.944905D-01
              MO Center= -2.5D-01, -1.0D-01, -3.6D-02, r^2= 2.4D+01
   Bfn.  Coefficient  Atom+Function         Bfn.  Coefficient  Atom+Function  
  ----- ------------  ---------------      ----- ------------  ---------------
   174     18.519531  11 C  s                56    -13.044866   5 C  s         
   402    -12.002973  23 C  py              114      9.855082   7 N  py        
   217     -7.675046  14 C  s               267      6.376806  16 N  s         
    12      6.303727   2 C  s               197     -6.214587  12 H  s         
   436      6.037430  25 C  py              403      5.728997  23 C  pz        

 Vector  215  Occ=0.000000D+00  E= 4.960261D-01
              MO Center=  4.9D-01, -6.6D-01,  6.2D-01, r^2= 2.4D+01
   Bfn.  Coefficient  Atom+Function         Bfn.  Coefficient  Atom+Function  
  ----- ------------  ---------------      ----- ------------  ---------------
   217     12.477201  14 C  s                13    -10.129573   2 C  s         
   174     -7.875994  11 C  s               318      7.347003  19 C  py        
   645      7.342814  38 N  s               471     -7.191650  28 C  s         
    56      6.415219   5 C  s                63     -5.273519   5 C  px        
   620     -5.078769  37 O  s                64      4.921154   5 C  py        

 Vector  216  Occ=0.000000D+00  E= 5.007679D-01
              MO Center= -4.7D-01,  1.1D-01,  3.5D-01, r^2= 2.7D+01
   Bfn.  Coefficient  Atom+Function         Bfn.  Coefficient  Atom+Function  
  ----- ------------  ---------------      ----- ------------  ---------------
    56     11.591638   5 C  s               217     -8.130127  14 C  s         
    64     -8.055337   5 C  py              318     -6.086879  19 C  py        
   471      6.070624  28 C  s               174     -6.037870  11 C  s         
   543     -6.008854  32 C  s                13      5.918713   2 C  s         
   360     -5.872603  21 N  s               653     -5.398449  38 N  py        


 center of mass
 --------------
 x =   0.00589331 y =  -0.01200138 z =  -0.00171446

 moments of inertia (a.u.)
 ------------------
       12163.021556260550          -0.000000000001          -0.000000000002
          -0.000000000001        3670.898761856524          -0.000000000001
          -0.000000000002          -0.000000000001       13764.415126481113

  Mulliken analysis of the total density
  --------------------------------------

    Atom       Charge   Shell Charges
 -----------   ------   -------------------------------------------------------
    1 H    1     0.86   0.76  0.13 -0.00  0.03 -0.06
    2 C    6     6.21   2.01  0.66  0.20  0.10  2.07  1.03 -0.01  0.06  0.09
    3 H    1     0.88   0.76  0.14 -0.00  0.03 -0.06
    4 H    1     1.00   0.76  0.25  0.01  0.03 -0.05
    5 C    6     5.20   2.01  0.68  0.08 -0.03  1.89  0.32  0.00  0.24  0.00
    6 O    8     8.74   2.01  0.82  0.99  0.15  2.79  1.84  0.15  0.01 -0.02
    7 N    7     7.64   2.01  0.72  0.93 -0.05  2.46  1.45  0.03  0.05  0.05
    8 H    1     0.97   0.75  0.20 -0.00  0.06 -0.03
    9 C    6     5.96   2.01  0.66  0.05 -0.02  2.00  1.14 -0.05  0.14  0.03
   10 H    1     1.28   0.78  0.45 -0.02  0.03  0.04
   11 C    6     5.84   2.01  0.67  0.26 -0.01  2.06  0.80 -0.05  0.09  0.02
   12 H    1     1.14   0.78  0.38 -0.00  0.03 -0.05
   13 H    1     0.97   0.77  0.21 -0.01  0.03 -0.04
   14 C    6     4.55   2.01  0.68 -0.02  0.10  1.91 -0.23 -0.05  0.24 -0.09
   15 O    8     8.85   2.01  0.81  1.02  0.17  2.81  1.87  0.15  0.02 -0.00
   16 N    7     7.40   2.01  0.72  0.90 -0.09  2.47  1.27  0.07  0.04  0.00
   17 H    1     0.92   0.75  0.17 -0.01  0.05 -0.05
   18 H    1     0.97   0.75  0.20 -0.01  0.05 -0.03
   19 C    6     4.74   2.01  0.68  0.12 -0.02  1.89  0.09  0.05  0.23 -0.31
   20 O    8     8.87   2.01  0.82  1.03  0.19  2.79  1.87  0.16  0.01 -0.00
   21 N    7     7.53   2.01  0.72  0.93 -0.08  2.45  1.46 -0.07  0.05  0.06
   22 H    1     0.90   0.76  0.16 -0.01  0.05 -0.06
   23 C    6     6.07   2.01  0.66  0.04 -0.02  2.00  1.10  0.18  0.14 -0.03
   24 H    1     1.16   0.78  0.41 -0.09  0.03  0.03
   25 C    6     6.20   2.01  0.67  0.54  0.01  2.03  0.71 -0.07  0.09  0.23
   26 H    1     1.02   0.78  0.29  0.00  0.03 -0.08
   27 H    1     0.95   0.79  0.27 -0.01  0.03 -0.12
   28 C    6     5.75   2.01  0.65  0.02 -0.13  1.99  1.15  0.06  0.10 -0.10
   29 H    1     1.19   0.78  0.41 -0.00  0.03 -0.02
   30 H    1     1.06   0.77  0.27 -0.00  0.03 -0.01
   31 S   16    15.42   2.00  2.03  0.86  0.72  0.08  6.00  2.31  1.42  0.09  0.12 -0.22
   32 C    6     6.04   2.01  0.65  0.46 -0.08  2.00  0.93 -0.02  0.07  0.01
   33 H    1     0.98   0.76  0.19  0.01  0.03 -0.01
   34 H    1     1.02   0.76  0.14  0.07  0.03  0.03
   35 H    1     1.16   0.76  0.42 -0.02  0.03 -0.03
   36 C    6     4.49   2.01  0.68  0.03  0.01  1.89 -0.19 -0.03  0.24 -0.14
   37 O    8     8.85   2.01  0.82  1.04  0.18  2.79  1.84  0.15  0.02 -0.00
   38 N    7     7.30   2.01  0.72  0.84 -0.14  2.47  1.26  0.13  0.04 -0.02
   39 H    1     0.92   0.73  0.25 -0.00  0.06 -0.12
   40 H    1     1.01   0.76  0.23 -0.01  0.05 -0.03

       Multipole analysis of the density wrt the origin
       ------------------------------------------------

     L   x y z        total         open         nuclear
     -   - - -        -----         ----         -------
     0   0 0 0      0.000000      0.000000    162.000000

     1   1 0 0      1.114584      0.000000     -0.000000
     1   0 1 0      2.437678      0.000000      0.000000
     1   0 0 1     -0.430242      0.000000      0.000000

     2   2 0 0    -88.003753      0.000000   1461.417667
     2   1 1 0     -0.837658      0.000000    -30.662788
     2   1 0 1     -5.295538      0.000000    -25.156106
     2   0 2 0   -102.939830      0.000000   6027.513192
     2   0 1 1      6.381602      0.000000      5.187312
     2   0 0 2    -98.095861      0.000000    575.721581


 Task  times  cpu:     5509.5s     wall:     5527.0s


                                NWChem Input Module
                                -------------------


 Summary of allocated global arrays
-----------------------------------
  No active global arrays


MA_summarize_allocated_blocks: starting scan ...
MA_summarize_allocated_blocks: scan completed: 0 heap blocks, 0 stack blocks
MA usage statistics:

	allocation statistics:
					      heap	     stack
					      ----	     -----
	current number of blocks	         0	         0
	maximum number of blocks	        16	        14
	current total bytes		         0	         0
	maximum total bytes		    156872	  37111464
	maximum total K-bytes		       157	     37112
	maximum total M-bytes		         1	        38


                                     CITATION
                                     --------
                Please cite the following reference when publishing
                           results obtained with NWChem:

          E. Apra, E. J. Bylaska, W. A. de Jong, N. Govind, K. Kowalski,
       T. P. Straatsma, M. Valiev, H. J. J. van Dam, Y. Alexeev, J. Anchell,
       V. Anisimov, F. W. Aquino, R. Atta-Fynn, J. Autschbach, N. P. Bauman,
     J. C. Becca, D. E. Bernholdt, K. Bhaskaran-Nair, S. Bogatko, P. Borowski,
         J. Boschen, J. Brabec, A. Bruner, E. Cauet, Y. Chen, G. N. Chuev,
      C. J. Cramer, J. Daily, M. J. O. Deegan, T. H. Dunning Jr., M. Dupuis,
   K. G. Dyall, G. I. Fann, S. A. Fischer, A. Fonari, H. Fruchtl, L. Gagliardi,
      J. Garza, N. Gawande, S. Ghosh, K. Glaesemann, A. W. Gotz, J. Hammond,
       V. Helms, E. D. Hermes, K. Hirao, S. Hirata, M. Jacquelin, L. Jensen,
   B. G. Johnson, H. Jonsson, R. A. Kendall, M. Klemm, R. Kobayashi, V. Konkov,
      S. Krishnamoorthy, M. Krishnan, Z. Lin, R. D. Lins, R. J. Littlefield,
      A. J. Logsdail, K. Lopata, W. Ma, A. V. Marenich, J. Martin del Campo,
   D. Mejia-Rodriguez, J. E. Moore, J. M. Mullin, T. Nakajima, D. R. Nascimento,
    J. A. Nichols, P. J. Nichols, J. Nieplocha, A. Otero-de-la-Roza, B. Palmer,
    A. Panyala, T. Pirojsirikul, B. Peng, R. Peverati, J. Pittner, L. Pollack,
   R. M. Richard, P. Sadayappan, G. C. Schatz, W. A. Shelton, D. W. Silverstein,
   D. M. A. Smith, T. A. Soares, D. Song, M. Swart, H. L. Taylor, G. S. Thomas,
            V. Tipparaju, D. G. Truhlar, K. Tsemekhman, T. Van Voorhis,
      A. Vazquez-Mayagoitia, P. Verma, O. Villa, A. Vishnu, K. D. Vogiatzis,
        D. Wang, J. H. Weare, M. J. Williamson, T. L. Windus, K. Wolinski,
        A. T. Wong, Q. Wu, C. Yang, Q. Yu, M. Zacharias, Z. Zhang, Y. Zhao,
                                and R. J. Harrison
                        "NWChem: Past, present, and future
                         J. Chem. Phys. 152, 184102 (2020)
                               doi:10.1063/5.0004997

                                      AUTHORS
                                      -------
  E. Apra, E. J. Bylaska, N. Govind, K. Kowalski, M. Valiev, D. Mejia-Rodriguez,
       A. Kunitsa, N. P. Bauman, A. Panyala, W. A. de Jong, T. P. Straatsma,
   H. J. J. van Dam, D. Wang, T. L. Windus, J. Hammond, J. Autschbach, A. Woods,
    K. Bhaskaran-Nair, J. Brabec, K. Lopata, S. A. Fischer, S. Krishnamoorthy,
     M. Jacquelin, W. Ma, M. Klemm, O. Villa, Y. Chen, V. Anisimov, F. Aquino,
     S. Hirata, M. T. Hackler, E. Hermes, L. Jensen, J. E. Moore, J. C. Becca,
      V. Konjkov, T. Risthaus, M. Malagoli, A. Marenich, A. Otero-de-la-Roza,
        J. Mullin, P. Nichols, R. Peverati, J. Pittner, Y. Zhao, P.-D. Fan,
        A. Fonari, M. J. Williamson, R. J. Harrison, J. R. Rehr, M. Dupuis,
     D. Silverstein, D. M. A. Smith, J. Nieplocha, V. Tipparaju, M. Krishnan,
     B. E. Van Kuiken, A. Vazquez-Mayagoitia, M. Swart, Q. Wu, T. Van Voorhis,
     A. A. Auer, M. Nooijen, L. D. Crosby, E. Brown, G. Cisneros, G. I. Fann,
   H. Fruchtl, J. Garza, K. Hirao, R. A. Kendall, J. A. Nichols, K. Tsemekhman,
    K. Wolinski, J. Anchell, D. E. Bernholdt, P. Borowski, T. Clark, D. Clerc,
   H. Dachsel, M. J. O. Deegan, K. Dyall, D. Elwood, E. Glendening, M. Gutowski,
   A. C. Hess, J. Jaffe, B. G. Johnson, J. Ju, R. Kobayashi, R. Kutteh, Z. Lin,
   R. Littlefield, X. Long, B. Meng, T. Nakajima, S. Niu, L. Pollack, M. Rosing,
   K. Glaesemann, G. Sandrone, M. Stave, H. Taylor, G. Thomas, J. H. van Lenthe,
                               A. T. Wong, Z. Zhang.

 Total times  cpu:     5509.5s     wall:     5527.5s
