export TMOUT=5400
export TMPDIR=/tmp
export PTMPDIR=/tmp/ptmp
 argument  1 = inputs/ASP_GLU_3.nw



============================== echo of input deck ==============================
start ASP_GLU_3
geometry
H          1.52600        9.17900       -2.28500
C          1.79400        9.72100       -1.38100
H          2.63900       10.38000       -1.56900
H          2.04100        9.01600       -0.58800
C          0.61400       10.54800       -0.93300
O          0.73000       11.76000       -0.79600
N         -0.51200        9.87800       -0.72600
H         -0.52400        8.87200       -0.88000
C         -1.72900       10.39700       -0.08800
H         -1.81200       11.46200       -0.30600
C         -2.97500        9.69900       -0.68200
H         -3.83800        9.92500       -0.05400
H         -3.16400       10.15800       -1.65400
C         -2.90600        8.17400       -0.90800
O         -1.85900        7.54500       -0.62000
O         -3.91200        7.64700       -1.43300
C         -1.69800       10.28000        1.45200
O         -2.37100       11.04900        2.13700
N         -0.87200        9.38100        1.99500
H         -0.39600        8.75700        1.35800
C         -0.54500        9.23700        3.42200
H         -0.71600       10.19200        3.92200
C         -1.48900        8.19600        4.06400
H         -2.50100        8.60300        4.05700
H         -1.49400        7.31300        3.42300
C         -1.17900        7.70400        5.49400
H         -1.90700        6.92500        5.73400
H         -0.19900        7.22200        5.49900
C         -1.21600        8.78100        6.59500
O         -1.84100        8.51100        7.64600
O         -0.55900        9.83500        6.42400
C          0.95100        8.89100        3.58700
O          1.58800        8.29600        2.71800
N          1.55800        9.26900        4.70200
H          0.99900        9.70000        5.43600
H          2.52700        9.04400        4.83100
end

basis
 * library aug-cc-pvdz
end

echo

scf
 direct
end

task scf energy
================================================================================


                                         
                                         


             Northwest Computational Chemistry Package (NWChem) 7.2.0
             --------------------------------------------------------


                    Environmental Molecular Sciences Laboratory
                       Pacific Northwest National Laboratory
                                Richland, WA 99352

                              Copyright (c) 1994-2022
                       Pacific Northwest National Laboratory
                            Battelle Memorial Institute

             NWChem is an open-source computational chemistry package
                        distributed under the terms of the
                      Educational Community License (ECL) 2.0
             A copy of the license is included with this distribution
                              in the LICENSE.TXT file

                                  ACKNOWLEDGMENT
                                  --------------

            This software and its documentation were developed at the
            EMSL at Pacific Northwest National Laboratory, a multiprogram
            national laboratory, operated for the U.S. Department of Energy
            by Battelle under Contract Number DE-AC05-76RL01830. Support
            for this work was provided by the Department of Energy Office
            of Biological and Environmental Research, Office of Basic
            Energy Sciences, and the Office of Advanced Scientific Computing.


           Job information
           ---------------

    hostname        = nova21-swift-4
    program         = /opt/rit/el9/20230413/app/linux-rhel9-x86_64_v3/gcc-11.2.1/nwchem-7.2.0-oxtctbuhfuzyfaoziquq6bki22grib3g/bin/nwchem
    date            = Fri Jul 11 03:00:06 2025

    compiled        = Wed_May_17_23:46:39_2023
    source          = /tmp/root/spack-stage/spack-stage-nwchem-7.2.0-oxtctbuhfuzyfaoziquq6bki22grib3g/spack-src
    nwchem branch   = 7.2.0
    nwchem revision = d0d141fd
    ga revision     = 5.8.0
    use scalapack   = T
    input           = inputs/ASP_GLU_3.nw
    prefix          = ASP_GLU_3.
    data base       = ./ASP_GLU_3.db
    status          = startup
    nproc           =        8
    time left       =     -1s



           Memory information
           ------------------

    heap     =   26214396 doubles =    200.0 Mbytes
    stack    =   26214401 doubles =    200.0 Mbytes
    global   =   52428800 doubles =    400.0 Mbytes (distinct from heap & stack)
    total    =  104857597 doubles =    800.0 Mbytes
    verify   = yes
    hardfail = no 


           Directory information
           ---------------------

  0 permanent = .
  0 scratch   = .




                                NWChem Input Module
                                -------------------



 Scaling coordinates for geometry "geometry" by  1.889725989
 (inverse scale =  0.529177249)

 C1  symmetry detected

          ------
          auto-z
          ------
  no constraints, skipping    0.0000000000000000     
  no constraints, skipping    0.0000000000000000     


                             Geometry "geometry" -> ""
                             -------------------------

 Output coordinates in angstroms (scale by  1.889725989 to convert to a.u.)

  No.       Tag          Charge          X              Y              Z
 ---- ---------------- ---------- -------------- -------------- --------------
    1 H                    1.0000     2.37067646     4.07488701    -1.43002521
    2 C                    6.0000     2.77383127     3.21171938    -0.90541883
    3 H                    1.0000     3.80362296     3.39525172    -0.60626178
    4 H                    1.0000     2.72378050     2.33332996    -1.54792171
    5 C                    6.0000     1.94202001     2.94951159     0.32599097
    6 O                    8.0000     2.47068459     2.92752877     1.43106994
    7 N                    7.0000     0.64475279     2.76928710     0.11565341
    8 H                    1.0000     0.28646428     2.82049276    -0.83561065
    9 C                    6.0000    -0.33788313     2.29041801     1.09677778
   10 H                    1.0000    -0.03208631     2.62186813     2.08938401
   11 C                    6.0000    -1.72357850     2.91134745     0.80207291
   12 H                    1.0000    -2.47767523     2.38324400     1.38745644
   13 H                    1.0000    -1.69821391     3.93733287     1.17341714
   14 C                    6.0000    -2.18547532     2.97436701    -0.66902935
   15 O                    8.0000    -1.43938756     2.53811783    -1.57888303
   16 O                    8.0000    -3.28950963     3.52443934    -0.87859721
   17 C                    6.0000    -0.41469129     0.74925766     1.16871716
   18 O                    8.0000    -0.80265641     0.20421893     2.20115644
   19 N                    7.0000     0.01910547     0.05101277     0.11534142
   20 H                    1.0000     0.27176226     0.57954366    -0.70839436
   21 C                    6.0000     0.21439607    -1.40538051     0.04624603
   22 H                    1.0000     0.36907380    -1.78963671     1.05604204
   23 C                    6.0000    -1.06130153    -2.06969397    -0.51790311
   24 H                    1.0000    -1.86447401    -1.93752108     0.20824171
   25 H                    1.0000    -1.34936230    -1.52375379    -1.41766159
   26 C                    6.0000    -1.00433255    -3.56309579    -0.90464531
   27 H                    1.0000    -1.96905246    -3.82008598    -1.34927610
   28 H                    1.0000    -0.25736170    -3.69827506    -1.68982690
   29 C                    6.0000    -0.70669824    -4.54182169     0.24731320
   30 O                    8.0000    -1.43027416    -5.55948467     0.34179048
   31 O                    8.0000     0.28536097    -4.31934932     0.98088703
   32 C                    6.0000     1.48504124    -1.72804408    -0.77002970
   33 O                    8.0000     1.90821309    -0.97989570    -1.65102607
   34 N                    7.0000     2.13875729    -2.84515449    -0.48846680
   35 H                    1.0000     1.73657346    -3.48263076     0.19627414
   36 H                    1.0000     2.96054801    -3.07617635    -1.01526459

      Atomic Mass 
      ----------- 

      H                  1.007825
      C                 12.000000
      O                 15.994910
      N                 14.003070


 Effective nuclear repulsion energy (a.u.)    1750.1444493800

            Nuclear Dipole moment (a.u.) 
            ----------------------------
        X                 Y               Z
 ---------------- ---------------- ----------------
     0.0000000000    -0.0000000000     0.0000000000



                                Z-matrix (autoz)
                                -------- 

 Units are Angstrom for bonds and degrees for angles

      Type          Name      I     J     K     L     M      Value
      ----------- --------  ----- ----- ----- ----- ----- ----------
    1 Stretch                  1     2                       1.08757
    2 Stretch                  2     3                       1.08796
    3 Stretch                  2     4                       1.08944
    4 Stretch                  2     5                       1.50898
    5 Stretch                  5     6                       1.22522
    6 Stretch                  5     7                       1.32651
    7 Stretch                  7     8                       1.01779
    8 Stretch                  7     9                       1.46884
    9 Stretch                  9    10                       1.09025
   10 Stretch                  9    11                       1.54679
   11 Stretch                  9    17                       1.54475
   12 Stretch                 11    12                       1.09098
   13 Stretch                 11    13                       1.09141
   14 Stretch                 11    14                       1.54320
   15 Stretch                 14    15                       1.25491
   16 Stretch                 14    16                       1.25116
   17 Stretch                 17    18                       1.23025
   18 Stretch                 17    19                       1.33616
   19 Stretch                 19    20                       1.01080
   20 Stretch                 19    21                       1.47105
   21 Stretch                 21    22                       1.09145
   22 Stretch                 21    23                       1.54499
   23 Stretch                 21    32                       1.54433
   24 Stretch                 23    24                       1.09080
   25 Stretch                 23    25                       1.09114
   26 Stretch                 23    26                       1.54372
   27 Stretch                 26    27                       1.09290
   28 Stretch                 26    28                       1.09213
   29 Stretch                 26    29                       1.54062
   30 Stretch                 29    30                       1.25225
   31 Stretch                 29    31                       1.25372
   32 Stretch                 32    33                       1.23084
   33 Stretch                 32    34                       1.32460
   34 Stretch                 34    35                       1.01833
   35 Stretch                 34    36                       1.00311
   36 Bend                     1     2     3               110.46439
   37 Bend                     1     2     4               109.77981
   38 Bend                     1     2     5               109.09931
   39 Bend                     2     5     6               120.08591
   40 Bend                     2     5     7               115.67710
   41 Bend                     3     2     4               109.97836
   42 Bend                     3     2     5               109.06803
   43 Bend                     4     2     5               108.41174
   44 Bend                     5     7     8               119.05383
   45 Bend                     5     7     9               126.34313
   46 Bend                     6     5     7               124.23245
   47 Bend                     7     9    10               108.74657
   48 Bend                     7     9    11               109.94855
   49 Bend                     7     9    17               112.93156
   50 Bend                     8     7     9               113.90364
   51 Bend                     9    11    12               108.82480
   52 Bend                     9    11    13               106.96102
   53 Bend                     9    11    14               117.78518
   54 Bend                     9    17    18               119.78614
   55 Bend                     9    17    19               117.93727
   56 Bend                    10     9    11               107.61957
   57 Bend                    10     9    17               105.95333
   58 Bend                    11     9    17               111.39699
   59 Bend                    11    14    15               119.93490
   60 Bend                    11    14    16               116.21521
   61 Bend                    12    11    13               106.77098
   62 Bend                    12    11    14               108.92806
   63 Bend                    13    11    14               107.03242
   64 Bend                    15    14    16               123.78101
   65 Bend                    17    19    20               116.76713
   66 Bend                    17    19    21               126.69090
   67 Bend                    18    17    19               122.17223
   68 Bend                    19    21    22               108.89951
   69 Bend                    19    21    23               109.46494
   70 Bend                    19    21    32               109.93219
   71 Bend                    20    19    21               116.50088
   72 Bend                    21    23    24               108.22787
   73 Bend                    21    23    25               107.69506
   74 Bend                    21    23    26               118.48792
   75 Bend                    21    32    33               122.29042
   76 Bend                    21    32    34               118.02857
   77 Bend                    22    21    23               107.66602
   78 Bend                    22    21    32               107.38911
   79 Bend                    23    21    32               113.36143
   80 Bend                    23    26    27               107.26726
   81 Bend                    23    26    28               108.97144
   82 Bend                    23    26    29               115.74585
   83 Bend                    24    23    25               107.09304
   84 Bend                    24    23    26               108.12973
   85 Bend                    25    23    26               106.68966
   86 Bend                    26    29    30               117.45530
   87 Bend                    26    29    31               118.53198
   88 Bend                    27    26    28               106.38814
   89 Bend                    27    26    29               108.98691
   90 Bend                    28    26    29               109.07503
   91 Bend                    30    29    31               123.86860
   92 Bend                    32    34    35               118.42201
   93 Bend                    32    34    36               119.13785
   94 Bend                    33    32    34               119.67612
   95 Bend                    35    34    36               122.17539
   96 Torsion                  1     2     5     6        -122.99219
   97 Torsion                  1     2     5     7          56.26529
   98 Torsion                  2     5     7     8          -0.32358
   99 Torsion                  2     5     7     9         169.47594
  100 Torsion                  3     2     5     6          -2.25097
  101 Torsion                  3     2     5     7         177.00651
  102 Torsion                  4     2     5     6         117.48913
  103 Torsion                  4     2     5     7         -63.25338
  104 Torsion                  5     7     9    10          31.48921
  105 Torsion                  5     7     9    11         149.08551
  106 Torsion                  5     7     9    17         -85.81677
  107 Torsion                  6     5     7     8         178.89931
  108 Torsion                  6     5     7     9         -11.30116
  109 Torsion                  7     9    11    12         167.47450
  110 Torsion                  7     9    11    13         -77.52095
  111 Torsion                  7     9    11    14          42.93282
  112 Torsion                  7     9    17    18         154.66255
  113 Torsion                  7     9    17    19         -21.70422
  114 Torsion                  8     7     9    10        -158.25979
  115 Torsion                  8     7     9    11         -40.66349
  116 Torsion                  8     7     9    17          84.43423
  117 Torsion                  9    11    14    15          -0.48014
  118 Torsion                  9    11    14    16        -177.57556
  119 Torsion                  9    17    19    20          -6.92063
  120 Torsion                  9    17    19    21         170.65340
  121 Torsion                 10     9    11    12         -74.23139
  122 Torsion                 10     9    11    13          40.77315
  123 Torsion                 10     9    11    14         161.22693
  124 Torsion                 10     9    17    18          35.72354
  125 Torsion                 10     9    17    19        -140.64323
  126 Torsion                 11     9    17    18         -81.02896
  127 Torsion                 11     9    17    19         102.60427
  128 Torsion                 12    11     9    17          41.50149
  129 Torsion                 12    11    14    15        -124.97048
  130 Torsion                 12    11    14    16          57.93410
  131 Torsion                 13    11     9    17         156.50603
  132 Torsion                 13    11    14    15         119.93649
  133 Torsion                 13    11    14    16         -57.15893
  134 Torsion                 14    11     9    17         -83.04019
  135 Torsion                 17    19    21    22         -24.02319
  136 Torsion                 17    19    21    23          93.44189
  137 Torsion                 17    19    21    32        -141.42133
  138 Torsion                 18    17    19    20         176.80473
  139 Torsion                 18    17    19    21          -5.62124
  140 Torsion                 19    21    23    24         -66.77030
  141 Torsion                 19    21    23    25          48.69024
  142 Torsion                 19    21    23    26         169.76253
  143 Torsion                 19    21    32    33         -27.54411
  144 Torsion                 19    21    32    34         151.64758
  145 Torsion                 20    19    21    22         153.55649
  146 Torsion                 20    19    21    23         -88.97843
  147 Torsion                 20    19    21    32          36.15835
  148 Torsion                 21    23    26    27        -175.70262
  149 Torsion                 21    23    26    28         -60.91304
  150 Torsion                 21    23    26    29          62.41614
  151 Torsion                 21    32    34    35           5.10823
  152 Torsion                 21    32    34    36         179.32827
  153 Torsion                 22    21    23    24          51.46608
  154 Torsion                 22    21    23    25         166.92663
  155 Torsion                 22    21    23    26         -72.00109
  156 Torsion                 22    21    32    33        -145.87845
  157 Torsion                 22    21    32    34          33.31324
  158 Torsion                 23    21    32    33          95.32701
  159 Torsion                 23    21    32    34         -85.48130
  160 Torsion                 23    26    29    30         133.05622
  161 Torsion                 23    26    29    31         -51.13686
  162 Torsion                 24    23    21    32         170.10098
  163 Torsion                 24    23    26    27          60.78151
  164 Torsion                 24    23    26    28         175.57109
  165 Torsion                 24    23    26    29         -61.09973
  166 Torsion                 25    23    21    32         -74.43847
  167 Torsion                 25    23    26    27         -54.11925
  168 Torsion                 25    23    26    28          60.67033
  169 Torsion                 25    23    26    29        -176.00049
  170 Torsion                 26    23    21    32          46.63381
  171 Torsion                 27    26    29    30          12.09659
  172 Torsion                 27    26    29    31        -172.09649
  173 Torsion                 28    26    29    30        -103.66897
  174 Torsion                 28    26    29    31          72.13796
  175 Torsion                 33    32    34    35        -175.67822
  176 Torsion                 33    32    34    36          -1.45819


            XYZ format geometry
            -------------------
    36
 geometry
 H                     2.37067646     4.07488701    -1.43002521
 C                     2.77383127     3.21171938    -0.90541883
 H                     3.80362296     3.39525172    -0.60626178
 H                     2.72378050     2.33332996    -1.54792171
 C                     1.94202001     2.94951159     0.32599097
 O                     2.47068459     2.92752877     1.43106994
 N                     0.64475279     2.76928710     0.11565341
 H                     0.28646428     2.82049276    -0.83561065
 C                    -0.33788313     2.29041801     1.09677778
 H                    -0.03208631     2.62186813     2.08938401
 C                    -1.72357850     2.91134745     0.80207291
 H                    -2.47767523     2.38324400     1.38745644
 H                    -1.69821391     3.93733287     1.17341714
 C                    -2.18547532     2.97436701    -0.66902935
 O                    -1.43938756     2.53811783    -1.57888303
 O                    -3.28950963     3.52443934    -0.87859721
 C                    -0.41469129     0.74925766     1.16871716
 O                    -0.80265641     0.20421893     2.20115644
 N                     0.01910547     0.05101277     0.11534142
 H                     0.27176226     0.57954366    -0.70839436
 C                     0.21439607    -1.40538051     0.04624603
 H                     0.36907380    -1.78963671     1.05604204
 C                    -1.06130153    -2.06969397    -0.51790311
 H                    -1.86447401    -1.93752108     0.20824171
 H                    -1.34936230    -1.52375379    -1.41766159
 C                    -1.00433255    -3.56309579    -0.90464531
 H                    -1.96905246    -3.82008598    -1.34927610
 H                    -0.25736170    -3.69827506    -1.68982690
 C                    -0.70669824    -4.54182169     0.24731320
 O                    -1.43027416    -5.55948467     0.34179048
 O                     0.28536097    -4.31934932     0.98088703
 C                     1.48504124    -1.72804408    -0.77002970
 O                     1.90821309    -0.97989570    -1.65102607
 N                     2.13875729    -2.84515449    -0.48846680
 H                     1.73657346    -3.48263076     0.19627414
 H                     2.96054801    -3.07617635    -1.01526459

 ==============================================================================
                                internuclear distances
 ------------------------------------------------------------------------------
       center one      |      center two      | atomic units |  angstroms
 ------------------------------------------------------------------------------
    2 C                |   1 H                |     2.05521  |     1.08757
    3 H                |   2 C                |     2.05594  |     1.08796
    4 H                |   2 C                |     2.05875  |     1.08944
    5 C                |   2 C                |     2.85157  |     1.50898
    6 O                |   5 C                |     2.31533  |     1.22522
    7 N                |   5 C                |     2.50674  |     1.32651
    8 H                |   7 N                |     1.92334  |     1.01779
    9 C                |   7 N                |     2.77571  |     1.46884
   10 H                |   9 C                |     2.06027  |     1.09025
   11 C                |   9 C                |     2.92301  |     1.54679
   12 H                |  11 C                |     2.06165  |     1.09098
   13 H                |  11 C                |     2.06247  |     1.09141
   14 C                |  11 C                |     2.91622  |     1.54320
   15 O                |  14 C                |     2.37143  |     1.25491
   16 O                |  14 C                |     2.36434  |     1.25116
   17 C                |   9 C                |     2.91915  |     1.54475
   18 O                |  17 C                |     2.32484  |     1.23025
   19 N                |  17 C                |     2.52498  |     1.33616
   20 H                |  19 N                |     1.91014  |     1.01080
   21 C                |  19 N                |     2.77989  |     1.47105
   22 H                |  21 C                |     2.06254  |     1.09145
   23 C                |  21 C                |     2.91960  |     1.54499
   24 H                |  23 C                |     2.06131  |     1.09080
   25 H                |  23 C                |     2.06196  |     1.09114
   26 C                |  23 C                |     2.91720  |     1.54372
   27 H                |  26 C                |     2.06528  |     1.09290
   28 H                |  26 C                |     2.06383  |     1.09213
   29 C                |  26 C                |     2.91134  |     1.54062
   30 O                |  29 C                |     2.36641  |     1.25225
   31 O                |  29 C                |     2.36918  |     1.25372
   32 C                |  21 C                |     2.91836  |     1.54433
   33 O                |  32 C                |     2.32594  |     1.23084
   34 N                |  32 C                |     2.50313  |     1.32460
   35 H                |  34 N                |     1.92437  |     1.01833
   36 H                |  34 N                |     1.89560  |     1.00311
 ------------------------------------------------------------------------------
                         number of included internuclear distances:         35
 ==============================================================================



 ==============================================================================
                                 internuclear angles
 ------------------------------------------------------------------------------
        center 1       |       center 2       |       center 3       |  degrees
 ------------------------------------------------------------------------------
    1 H                |   2 C                |   3 H                |   110.46
    1 H                |   2 C                |   4 H                |   109.78
    1 H                |   2 C                |   5 C                |   109.10
    3 H                |   2 C                |   4 H                |   109.98
    3 H                |   2 C                |   5 C                |   109.07
    4 H                |   2 C                |   5 C                |   108.41
    2 C                |   5 C                |   6 O                |   120.09
    2 C                |   5 C                |   7 N                |   115.68
    6 O                |   5 C                |   7 N                |   124.23
    5 C                |   7 N                |   8 H                |   119.05
    5 C                |   7 N                |   9 C                |   126.34
    8 H                |   7 N                |   9 C                |   113.90
    7 N                |   9 C                |  10 H                |   108.75
    7 N                |   9 C                |  11 C                |   109.95
    7 N                |   9 C                |  17 C                |   112.93
   10 H                |   9 C                |  11 C                |   107.62
   10 H                |   9 C                |  17 C                |   105.95
   11 C                |   9 C                |  17 C                |   111.40
    9 C                |  11 C                |  12 H                |   108.82
    9 C                |  11 C                |  13 H                |   106.96
    9 C                |  11 C                |  14 C                |   117.79
   12 H                |  11 C                |  13 H                |   106.77
   12 H                |  11 C                |  14 C                |   108.93
   13 H                |  11 C                |  14 C                |   107.03
   11 C                |  14 C                |  15 O                |   119.93
   11 C                |  14 C                |  16 O                |   116.22
   15 O                |  14 C                |  16 O                |   123.78
    9 C                |  17 C                |  18 O                |   119.79
    9 C                |  17 C                |  19 N                |   117.94
   18 O                |  17 C                |  19 N                |   122.17
   17 C                |  19 N                |  20 H                |   116.77
   17 C                |  19 N                |  21 C                |   126.69
   20 H                |  19 N                |  21 C                |   116.50
   19 N                |  21 C                |  22 H                |   108.90
   19 N                |  21 C                |  23 C                |   109.46
   19 N                |  21 C                |  32 C                |   109.93
   22 H                |  21 C                |  23 C                |   107.67
   22 H                |  21 C                |  32 C                |   107.39
   23 C                |  21 C                |  32 C                |   113.36
   21 C                |  23 C                |  24 H                |   108.23
   21 C                |  23 C                |  25 H                |   107.70
   21 C                |  23 C                |  26 C                |   118.49
   24 H                |  23 C                |  25 H                |   107.09
   24 H                |  23 C                |  26 C                |   108.13
   25 H                |  23 C                |  26 C                |   106.69
   23 C                |  26 C                |  27 H                |   107.27
   23 C                |  26 C                |  28 H                |   108.97
   23 C                |  26 C                |  29 C                |   115.75
   27 H                |  26 C                |  28 H                |   106.39
   27 H                |  26 C                |  29 C                |   108.99
   28 H                |  26 C                |  29 C                |   109.08
   26 C                |  29 C                |  30 O                |   117.46
   26 C                |  29 C                |  31 O                |   118.53
   30 O                |  29 C                |  31 O                |   123.87
   21 C                |  32 C                |  33 O                |   122.29
   21 C                |  32 C                |  34 N                |   118.03
   33 O                |  32 C                |  34 N                |   119.68
   32 C                |  34 N                |  35 H                |   118.42
   32 C                |  34 N                |  36 H                |   119.14
   35 H                |  34 N                |  36 H                |   122.18
 ------------------------------------------------------------------------------
                            number of included internuclear angles:         60
 ==============================================================================



  library name resolved from: environment
  library file name is: </opt/rit/el9/20230413/app/linux-rhel9-x86_64_v3/gcc-11.2.1/nwchem-7.2.0-oxtctbuhfuzyfaoziquq6bki22grib3g/share/nwchem/libraries/>
  


 Summary of "ao basis" -> "" (cartesian)
 ------------------------------------------------------------------------------
       Tag                 Description            Shells   Functions and Types
 ---------------- ------------------------------  ------  ---------------------
 *                        aug-cc-pvdz                 on all atoms 


                      Basis "ao basis" -> "ao basis" (cartesian)
                      -----
  H (Hydrogen)
  ------------
            Exponent  Coefficients 
       -------------- ---------------------------------------------------------
  1 S  1.30100000E+01  0.019685
  1 S  1.96200000E+00  0.137977
  1 S  4.44600000E-01  0.478148

  2 S  1.22000000E-01  1.000000

  3 S  2.97400000E-02  1.000000

  4 P  7.27000000E-01  1.000000

  5 P  1.41000000E-01  1.000000

  C (Carbon)
  ----------
            Exponent  Coefficients 
       -------------- ---------------------------------------------------------
  1 S  6.66500000E+03  0.000692
  1 S  1.00000000E+03  0.005329
  1 S  2.28000000E+02  0.027077
  1 S  6.47100000E+01  0.101718
  1 S  2.10600000E+01  0.274740
  1 S  7.49500000E+00  0.448564
  1 S  2.79700000E+00  0.285074
  1 S  5.21500000E-01  0.015204

  2 S  6.66500000E+03 -0.000146
  2 S  1.00000000E+03 -0.001154
  2 S  2.28000000E+02 -0.005725
  2 S  6.47100000E+01 -0.023312
  2 S  2.10600000E+01 -0.063955
  2 S  7.49500000E+00 -0.149981
  2 S  2.79700000E+00 -0.127262
  2 S  5.21500000E-01  0.544529

  3 S  1.59600000E-01  1.000000

  4 S  4.69000000E-02  1.000000

  5 P  9.43900000E+00  0.038109
  5 P  2.00200000E+00  0.209480
  5 P  5.45600000E-01  0.508557

  6 P  1.51700000E-01  1.000000

  7 P  4.04100000E-02  1.000000

  8 D  5.50000000E-01  1.000000

  9 D  1.51000000E-01  1.000000

  O (Oxygen)
  ----------
            Exponent  Coefficients 
       -------------- ---------------------------------------------------------
  1 S  1.17200000E+04  0.000710
  1 S  1.75900000E+03  0.005470
  1 S  4.00800000E+02  0.027837
  1 S  1.13700000E+02  0.104800
  1 S  3.70300000E+01  0.283062
  1 S  1.32700000E+01  0.448719
  1 S  5.02500000E+00  0.270952
  1 S  1.01300000E+00  0.015458

  2 S  1.17200000E+04 -0.000160
  2 S  1.75900000E+03 -0.001263
  2 S  4.00800000E+02 -0.006267
  2 S  1.13700000E+02 -0.025716
  2 S  3.70300000E+01 -0.070924
  2 S  1.32700000E+01 -0.165411
  2 S  5.02500000E+00 -0.116955
  2 S  1.01300000E+00  0.557368

  3 S  3.02300000E-01  1.000000

  4 S  7.89600000E-02  1.000000

  5 P  1.77000000E+01  0.043018
  5 P  3.85400000E+00  0.228913
  5 P  1.04600000E+00  0.508728

  6 P  2.75300000E-01  1.000000

  7 P  6.85600000E-02  1.000000

  8 D  1.18500000E+00  1.000000

  9 D  3.32000000E-01  1.000000

  N (Nitrogen)
  ------------
            Exponent  Coefficients 
       -------------- ---------------------------------------------------------
  1 S  9.04600000E+03  0.000700
  1 S  1.35700000E+03  0.005389
  1 S  3.09300000E+02  0.027406
  1 S  8.77300000E+01  0.103207
  1 S  2.85600000E+01  0.278723
  1 S  1.02100000E+01  0.448540
  1 S  3.83800000E+00  0.278238
  1 S  7.46600000E-01  0.015440

  2 S  9.04600000E+03 -0.000153
  2 S  1.35700000E+03 -0.001208
  2 S  3.09300000E+02 -0.005992
  2 S  8.77300000E+01 -0.024544
  2 S  2.85600000E+01 -0.067459
  2 S  1.02100000E+01 -0.158078
  2 S  3.83800000E+00 -0.121831
  2 S  7.46600000E-01  0.549003

  3 S  2.24800000E-01  1.000000

  4 S  6.12400000E-02  1.000000

  5 P  1.35500000E+01  0.039919
  5 P  2.91700000E+00  0.217169
  5 P  7.97300000E-01  0.510319

  6 P  2.18500000E-01  1.000000

  7 P  5.61100000E-02  1.000000

  8 D  8.17000000E-01  1.000000

  9 D  2.30000000E-01  1.000000



 Summary of "ao basis" -> "ao basis" (cartesian)
 ------------------------------------------------------------------------------
       Tag                 Description            Shells   Functions and Types
 ---------------- ------------------------------  ------  ---------------------
 H                        aug-cc-pvdz                5        9   3s2p
 C                        aug-cc-pvdz                9       25   4s3p2d
 O                        aug-cc-pvdz                9       25   4s3p2d
 N                        aug-cc-pvdz                9       25   4s3p2d


                                 NWChem SCF Module
                                 -----------------



  ao basis        = "ao basis"
  functions       =   660
  atoms           =    36
  closed shells   =    79
  open shells     =     0
  charge          =   0.00
  wavefunction    = RHF 
  input vectors   = atomic
  output vectors  = ./ASP_GLU_3.movecs
  use symmetry    = F
  symmetry adapt  = F


 Summary of "ao basis" -> "ao basis" (cartesian)
 ------------------------------------------------------------------------------
       Tag                 Description            Shells   Functions and Types
 ---------------- ------------------------------  ------  ---------------------
 H                        aug-cc-pvdz                5        9   3s2p
 C                        aug-cc-pvdz                9       25   4s3p2d
 O                        aug-cc-pvdz                9       25   4s3p2d
 N                        aug-cc-pvdz                9       25   4s3p2d



 Forming initial guess at       0.7s


 !! The overlap matrix has   5 vectors deemed linearly dependent with
    eigenvalues:
 1.96D-06 3.19D-06 8.06D-06 8.38D-06 9.66D-06


      Superposition of Atomic Density Guess
      -------------------------------------

 Sum of atomic energies:       -1108.10309820

      Non-variational initial energy
      ------------------------------

 Total energy =   -1120.006042
 1-e energy   =   -4992.994543
 2-e energy   =    2122.844051
 HOMO         =      -0.319917
 LUMO         =      -0.306883


 Starting SCF solution at     240.2s



 ----------------------------------------------
         Quadratically convergent ROHF

 Convergence threshold     :          1.000E-04
 Maximum no. of iterations :           30
 Final Fock-matrix accuracy:          1.000E-10
 ----------------------------------------------


              iter       energy          gnorm     gmax       time
             ----- ------------------- --------- --------- --------
                 1    -1111.6534641994  3.62D+00  2.35D-01    496.0
  Setting level-shift to   3.33 to force positive preconditioner
                 2    -1112.3666924689  1.06D+00  6.71D-02    758.8
  Setting level-shift to   2.06 to force positive preconditioner
                 3    -1112.4438955456  5.12D-01  8.70D-02   1281.4
  ga_iter_lsolve: convergence stagnant ... aborting solve

 Disabled NR: increased maxiter to  40

                 4    -1112.4653848039  2.55D-01  2.66D-02   2282.9
                 5    -1112.4812674100  3.17D-01  3.60D-02   2802.5
                 6    -1112.4900001546  2.13D-01  1.68D-02   3327.2
                 7    -1112.4987415014  1.97D-01  2.40D-02   3845.2
                 8    -1112.5026502635  1.37D-01  1.79D-02   4367.3
                 9    -1112.5043616495  1.28D-01  1.51D-02   4891.9
                10    -1112.5065960032  1.27D-01  1.39D-02   5153.2
                11    -1112.5078399633  9.36D-02  8.49D-03   5414.6
                12    -1112.5087911875  6.47D-02  1.14D-02   5675.9
                13    -1112.5093402938  8.15D-02  1.28D-02   6198.3
                14    -1112.5102485453  8.30D-02  8.57D-03   6459.5
                15    -1112.5114820987  8.19D-02  8.36D-03   6979.1
                16    -1112.5123692925  8.00D-02  1.09D-02   7505.1
                17    -1112.5128690081  7.63D-02  8.80D-03   8018.9
                18    -1112.5134255350  4.95D-02  5.98D-03   8543.5
                19    -1112.5137583351  4.05D-02  4.25D-03   8800.4
                20    -1112.5139123999  2.45D-02  6.88D-03   9063.8
                21    -1112.5139769128  2.51D-02  3.20D-03   9587.4
                22    -1112.5140494802  2.44D-02  2.86D-03   9848.7
                23    -1112.5141187389  1.72D-02  1.99D-03  10111.9
                24    -1112.5141675605  1.63D-02  1.72D-03  10631.5
                25    -1112.5142087323  1.58D-02  1.61D-03  11157.6
                26    -1112.5142387435  1.62D-02  3.26D-03  11677.1
                27    -1112.5142703121  1.92D-02  3.20D-03  12203.0
                28    -1112.5143145703  1.90D-02  2.20D-03  12466.1
                29    -1112.5143674411  1.68D-02  1.60D-03  12985.1
                30    -1112.5144086250  1.97D-02  1.88D-03  13509.4
                31    -1112.5144468868  1.58D-02  1.64D-03  14027.2
                32    -1112.5144624181  1.33D-02  2.96D-03  14551.3
                33    -1112.5144794626  1.15D-02  1.04D-03  15071.5
                34    -1112.5144950628  9.09D-03  8.33D-04  15591.2
                35    -1112.5145058249  1.01D-02  2.31D-03  16109.1
                36    -1112.5145129976  1.00D-02  1.27D-03  16633.6
                37    -1112.5145245003  9.16D-03  1.07D-03  17146.8
                38    -1112.5145338973  6.95D-03  1.12D-03  17403.4
                39    -1112.5145378366  6.70D-03  1.19D-03  17922.9
                40    -1112.5145432319  7.04D-03  7.81D-04  18448.7

      Calculation failed to converge
      ------------------------------



       Final RHF  results 
       ------------------ 

         Total SCF energy =  -1112.514543231925
      One-electron energy =  -5001.239504519353
      Two-electron energy =   2138.580511907456
 Nuclear repulsion energy =   1750.144449379972

        Time for solution =  18209.7s


             Final eigenvalues
             -----------------

              1      
    1  -20.6776
    2  -20.6311
    3  -20.6244
    4  -20.6072
    5  -20.5781
    6  -20.5617
    7  -20.5532
    8  -15.6969
    9  -15.6394
   10  -15.6141
   11  -11.4306
   12  -11.4158
   13  -11.4094
   14  -11.3989
   15  -11.3768
   16  -11.3533
   17  -11.3420
   18  -11.3190
   19  -11.3136
   20  -11.2899
   21  -11.2536
   22   -1.4852
   23   -1.4751
   24   -1.4529
   25   -1.4206
   26   -1.4105
   27   -1.3659
   28   -1.3644
   29   -1.3154
   30   -1.2797
   31   -1.2474
   32   -1.1396
   33   -1.1041
   34   -1.0447
   35   -1.0183
   36   -0.9543
   37   -0.9255
   38   -0.8706
   39   -0.8438
   40   -0.8391
   41   -0.8055
   42   -0.7953
   43   -0.7824
   44   -0.7517
   45   -0.7334
   46   -0.7165
   47   -0.7109
   48   -0.7063
   49   -0.6998
   50   -0.6950
   51   -0.6903
   52   -0.6792
   53   -0.6671
   54   -0.6617
   55   -0.6527
   56   -0.6430
   57   -0.6265
   58   -0.6201
   59   -0.6141
   60   -0.6024
   61   -0.5970
   62   -0.5874
   63   -0.5814
   64   -0.5693
   65   -0.5642
   66   -0.5588
   67   -0.5461
   68   -0.5421
   69   -0.5084
   70   -0.4950
   71   -0.4923
   72   -0.4792
   73   -0.4751
   74   -0.4605
   75   -0.4449
   76   -0.4386
   77   -0.4277
   78   -0.4110
   79   -0.3623
   80   -0.2842
   81    0.0237
   82    0.0326
   83    0.0331
   84    0.0424
   85    0.0465
   86    0.0525
   87    0.0572
   88    0.0614
   89    0.0634

                       ROHF Final Molecular Orbital Analysis
                       -------------------------------------

 Vector   22  Occ=2.000000D+00  E=-1.485230D+00
              MO Center= -9.0D-01, -5.0D+00,  4.3D-01, r^2= 1.0D+00
   Bfn.  Coefficient  Atom+Function         Bfn.  Coefficient  Atom+Function  
  ----- ------------  ---------------      ----- ------------  ---------------
   520      0.364234  30 O  s               519      0.336110  30 O  s         
   494      0.251329  29 C  s               496     -0.204542  29 C  s         
   545      0.201949  31 O  s               544      0.189330  31 O  s         

 Vector   23  Occ=2.000000D+00  E=-1.475113D+00
              MO Center= -2.2D+00,  3.0D+00, -1.1D+00, r^2= 1.2D+00
   Bfn.  Coefficient  Atom+Function         Bfn.  Coefficient  Atom+Function  
  ----- ------------  ---------------      ----- ------------  ---------------
   241      0.304933  15 O  s               240      0.284985  15 O  s         
   266      0.269333  16 O  s               215      0.252847  14 C  s         
   265      0.251328  16 O  s               217     -0.199834  14 C  s         

 Vector   24  Occ=2.000000D+00  E=-1.452944D+00
              MO Center= -5.4D-01,  3.4D-01,  1.6D+00, r^2= 1.4D+00
   Bfn.  Coefficient  Atom+Function         Bfn.  Coefficient  Atom+Function  
  ----- ------------  ---------------      ----- ------------  ---------------
   316      0.364340  18 O  s               315      0.342508  18 O  s         
   290      0.242361  17 C  s         

 Vector   25  Occ=2.000000D+00  E=-1.420603D+00
              MO Center=  1.7D+00, -1.3D+00, -1.2D+00, r^2= 1.4D+00
   Bfn.  Coefficient  Atom+Function         Bfn.  Coefficient  Atom+Function  
  ----- ------------  ---------------      ----- ------------  ---------------
   595      0.385181  33 O  s               594      0.348118  33 O  s         
   569      0.244627  32 C  s         

 Vector   26  Occ=2.000000D+00  E=-1.410513D+00
              MO Center=  2.0D+00,  2.9D+00,  9.4D-01, r^2= 1.2D+00
   Bfn.  Coefficient  Atom+Function         Bfn.  Coefficient  Atom+Function  
  ----- ------------  ---------------      ----- ------------  ---------------
    80      0.345270   6 O  s                79      0.341296   6 O  s         
    54      0.247398   5 C  s         

 Vector   27  Occ=2.000000D+00  E=-1.365874D+00
              MO Center= -2.3D+00,  3.0D+00, -1.0D+00, r^2= 1.5D+00
   Bfn.  Coefficient  Atom+Function         Bfn.  Coefficient  Atom+Function  
  ----- ------------  ---------------      ----- ------------  ---------------
   266      0.353764  16 O  s               265      0.322466  16 O  s         
   241     -0.311433  15 O  s               240     -0.291822  15 O  s         
   218     -0.214955  14 C  px        

 Vector   28  Occ=2.000000D+00  E=-1.364433D+00
              MO Center= -3.1D-01, -4.6D+00,  6.4D-01, r^2= 1.3D+00
   Bfn.  Coefficient  Atom+Function         Bfn.  Coefficient  Atom+Function  
  ----- ------------  ---------------      ----- ------------  ---------------
   545      0.371881  31 O  s               544      0.352286  31 O  s         
   520     -0.272893  30 O  s               519     -0.245591  30 O  s         
   497      0.201063  29 C  px        

 Vector   29  Occ=2.000000D+00  E=-1.315424D+00
              MO Center= -1.5D-02,  2.4D-01,  4.6D-01, r^2= 2.4D+00
   Bfn.  Coefficient  Atom+Function         Bfn.  Coefficient  Atom+Function  
  ----- ------------  ---------------      ----- ------------  ---------------
   341      0.357067  19 N  s               340      0.331740  19 N  s         
   316     -0.236511  18 O  s               315     -0.190892  18 O  s         
   295     -0.179528  17 C  pz        

 Vector   30  Occ=2.000000D+00  E=-1.279744D+00
              MO Center=  8.1D-01,  2.5D+00,  3.5D-01, r^2= 2.6D+00
   Bfn.  Coefficient  Atom+Function         Bfn.  Coefficient  Atom+Function  
  ----- ------------  ---------------      ----- ------------  ---------------
   105      0.396114   7 N  s               104      0.326869   7 N  s         
    80     -0.217357   6 O  s               341     -0.191594  19 N  s         
    79     -0.185057   6 O  s                57     -0.155493   5 C  px        

 Vector   31  Occ=2.000000D+00  E=-1.247395D+00
              MO Center=  1.9D+00, -2.4D+00, -6.4D-01, r^2= 1.4D+00
   Bfn.  Coefficient  Atom+Function         Bfn.  Coefficient  Atom+Function  
  ----- ------------  ---------------      ----- ------------  ---------------
   620      0.383009  34 N  s               619      0.365613  34 N  s         
   595     -0.221890  33 O  s               573     -0.188181  32 C  py        
   594     -0.183854  33 O  s               643      0.157059  35 H  s         
   652      0.154391  36 H  s         

 Vector   32  Occ=2.000000D+00  E=-1.139560D+00
              MO Center= -5.8D-01, -2.0D+00, -3.6D-01, r^2= 4.2D+00
   Bfn.  Coefficient  Atom+Function         Bfn.  Coefficient  Atom+Function  
  ----- ------------  ---------------      ----- ------------  ---------------
   408      0.252705  23 C  s               451      0.212396  26 C  s         
   375      0.174123  21 C  s               374      0.171585  21 C  s         

 Vector   33  Occ=2.000000D+00  E=-1.104108D+00
              MO Center= -4.9D-01,  2.1D+00,  5.2D-01, r^2= 6.2D+00
   Bfn.  Coefficient  Atom+Function         Bfn.  Coefficient  Atom+Function  
  ----- ------------  ---------------      ----- ------------  ---------------
   172      0.234690  11 C  s               138      0.228071   9 C  s         
    12     -0.188206   2 C  s               173      0.167245  11 C  s         

 Vector   34  Occ=2.000000D+00  E=-1.044718D+00
              MO Center= -3.5D-01, -1.7D+00, -2.0D-01, r^2= 6.7D+00
   Bfn.  Coefficient  Atom+Function         Bfn.  Coefficient  Atom+Function  
  ----- ------------  ---------------      ----- ------------  ---------------
   374      0.235889  21 C  s               451     -0.231184  26 C  s         
   415      0.176060  23 C  py              344     -0.155965  19 N  py        

 Vector   35  Occ=2.000000D+00  E=-1.018339D+00
              MO Center=  1.7D+00,  3.0D+00, -4.1D-01, r^2= 4.8D+00
   Bfn.  Coefficient  Atom+Function         Bfn.  Coefficient  Atom+Function  
  ----- ------------  ---------------      ----- ------------  ---------------
    11      0.317873   2 C  s                12      0.156587   2 C  s         
   172      0.154503  11 C  s         

 Vector   36  Occ=2.000000D+00  E=-9.543491D-01
              MO Center= -4.9D-01,  1.6D+00,  3.4D-01, r^2= 8.5D+00
   Bfn.  Coefficient  Atom+Function         Bfn.  Coefficient  Atom+Function  
  ----- ------------  ---------------      ----- ------------  ---------------
   145     -0.196998   9 C  py              138      0.194285   9 C  s         
   173     -0.182353  11 C  s               172     -0.175860  11 C  s         

 Vector   37  Occ=2.000000D+00  E=-9.254870D-01
              MO Center= -3.4D-01, -2.0D+00, -3.5D-01, r^2= 6.2D+00
   Bfn.  Coefficient  Atom+Function         Bfn.  Coefficient  Atom+Function  
  ----- ------------  ---------------      ----- ------------  ---------------
   380      0.292177  21 C  px              408     -0.241859  23 C  s         
   452      0.210843  26 C  s               432     -0.155987  24 H  s         
   441     -0.155102  25 H  s               377      0.151615  21 C  px        

 Vector   38  Occ=2.000000D+00  E=-8.706163D-01
              MO Center=  2.6D-01,  3.0D-01,  2.0D-01, r^2= 5.3D+00
   Bfn.  Coefficient  Atom+Function         Bfn.  Coefficient  Atom+Function  
  ----- ------------  ---------------      ----- ------------  ---------------
   345      0.305770  19 N  pz              364     -0.232694  20 H  s         
   375      0.212683  21 C  s               290      0.186970  17 C  s         
   380      0.169703  21 C  px              316     -0.168392  18 O  s         
   291      0.166066  17 C  s               341     -0.160392  19 N  s         

 Vector   39  Occ=2.000000D+00  E=-8.438002D-01
              MO Center=  7.2D-01,  2.0D+00,  1.4D-01, r^2= 5.7D+00
   Bfn.  Coefficient  Atom+Function         Bfn.  Coefficient  Atom+Function  
  ----- ------------  ---------------      ----- ------------  ---------------
   107      0.272513   7 N  px              128     -0.253630   8 H  s         
    55      0.215543   5 C  s               109      0.191907   7 N  pz        
   105     -0.178985   7 N  s                60     -0.176358   5 C  px        
    54      0.171793   5 C  s               375     -0.159127  21 C  s         
    57     -0.157719   5 C  px               80     -0.150821   6 O  s         

 Vector   40  Occ=2.000000D+00  E=-8.391075D-01
              MO Center=  6.4D-01, -9.3D-01, -1.5D-01, r^2= 6.5D+00
   Bfn.  Coefficient  Atom+Function         Bfn.  Coefficient  Atom+Function  
  ----- ------------  ---------------      ----- ------------  ---------------
   364      0.208364  20 H  s               381     -0.203739  21 C  py        
   341      0.199391  19 N  s               345     -0.186696  19 N  pz        
   291     -0.184705  17 C  s               344      0.179196  19 N  py        
   569      0.173702  32 C  s               399     -0.169281  22 H  s         
   623      0.161949  34 N  py        

 Vector   41  Occ=2.000000D+00  E=-8.054730D-01
              MO Center= -2.3D-01, -4.1D+00,  4.1D-02, r^2= 5.5D+00
   Bfn.  Coefficient  Atom+Function         Bfn.  Coefficient  Atom+Function  
  ----- ------------  ---------------      ----- ------------  ---------------
   520     -0.250651  30 O  s               523      0.235656  30 O  py        
   494      0.230935  29 C  s               495      0.186665  29 C  s         
   545     -0.182446  31 O  s               522      0.174102  30 O  px        
   643     -0.169070  35 H  s               547     -0.165386  31 O  px        

 Vector   42  Occ=2.000000D+00  E=-7.952981D-01
              MO Center= -1.7D+00,  2.6D+00, -6.3D-01, r^2= 5.3D+00
   Bfn.  Coefficient  Atom+Function         Bfn.  Coefficient  Atom+Function  
  ----- ------------  ---------------      ----- ------------  ---------------
   241     -0.275707  15 O  s               215      0.263959  14 C  s         
   266     -0.238586  16 O  s               245      0.209021  15 O  pz        
   268      0.196825  16 O  px              243     -0.182127  15 O  px        
   216      0.170257  14 C  s               177     -0.158837  11 C  pz        
   240     -0.157523  15 O  s         

 Vector   43  Occ=2.000000D+00  E=-7.823742D-01
              MO Center=  3.7D-01, -7.1D-01,  7.0D-02, r^2= 1.1D+01
   Bfn.  Coefficient  Atom+Function         Bfn.  Coefficient  Atom+Function  
  ----- ------------  ---------------      ----- ------------  ---------------
   145      0.246611   9 C  py              291      0.240432  17 C  s         
   623      0.184620  34 N  py               55      0.178597   5 C  s         
   643     -0.174436  35 H  s               142      0.164696   9 C  py        
   109      0.158443   7 N  pz        

 Vector   44  Occ=2.000000D+00  E=-7.517443D-01
              MO Center=  6.2D-01, -7.8D-01,  1.8D-01, r^2= 1.0D+01
   Bfn.  Coefficient  Atom+Function         Bfn.  Coefficient  Atom+Function  
  ----- ------------  ---------------      ----- ------------  ---------------
   652     -0.207296  36 H  s               145      0.200816   9 C  py        
   622     -0.197484  34 N  px              624      0.183143  34 N  pz        
    55      0.181903   5 C  s               643      0.181805  35 H  s         
   109      0.162771   7 N  pz              319     -0.154169  18 O  py        

 Vector   45  Occ=2.000000D+00  E=-7.333687D-01
              MO Center= -4.7D-01, -2.9D+00,  1.8D-02, r^2= 7.0D+00
   Bfn.  Coefficient  Atom+Function         Bfn.  Coefficient  Atom+Function  
  ----- ------------  ---------------      ----- ------------  ---------------
   498      0.232178  29 C  py              522     -0.223607  30 O  px        
   375      0.191794  21 C  s               291     -0.173843  17 C  s         
   413      0.167911  23 C  pz              456      0.164726  26 C  pz        
   570     -0.151576  32 C  s         

 Vector   46  Occ=2.000000D+00  E=-7.165077D-01
              MO Center= -4.2D-02, -9.3D-01, -1.7D-01, r^2= 1.2D+01
   Bfn.  Coefficient  Atom+Function         Bfn.  Coefficient  Atom+Function  
  ----- ------------  ---------------      ----- ------------  ---------------
   652      0.166226  36 H  s         

 Vector   47  Occ=2.000000D+00  E=-7.108532D-01
              MO Center= -5.8D-01, -1.4D+00, -7.9D-02, r^2= 1.2D+01
   Bfn.  Coefficient  Atom+Function         Bfn.  Coefficient  Atom+Function  
  ----- ------------  ---------------      ----- ------------  ---------------
   454      0.182996  26 C  px              380     -0.168662  21 C  px        
   549     -0.168881  31 O  pz              523     -0.158732  30 O  py        
   220     -0.154143  14 C  pz              475     -0.150390  27 H  s         

 Vector   48  Occ=2.000000D+00  E=-7.063390D-01
              MO Center= -5.2D-01,  2.2D+00, -8.2D-02, r^2= 1.1D+01
   Bfn.  Coefficient  Atom+Function         Bfn.  Coefficient  Atom+Function  
  ----- ------------  ---------------      ----- ------------  ---------------
   268     -0.218168  16 O  px              245      0.215895  15 O  pz        
    84     -0.195389   6 O  pz              218      0.195176  14 C  px        
   266      0.166195  16 O  s                19      0.154009   2 C  pz        
    80     -0.154466   6 O  s         

 Vector   49  Occ=2.000000D+00  E=-6.998425D-01
              MO Center= -1.0D+00,  4.3D-01,  1.7D-01, r^2= 1.2D+01
   Bfn.  Coefficient  Atom+Function         Bfn.  Coefficient  Atom+Function  
  ----- ------------  ---------------      ----- ------------  ---------------
   320      0.177971  18 O  pz              268      0.154834  16 O  px        
   218     -0.151543  14 C  px        

 Vector   50  Occ=2.000000D+00  E=-6.950316D-01
              MO Center=  3.8D-01, -1.1D+00, -6.2D-01, r^2= 1.0D+01
   Bfn.  Coefficient  Atom+Function         Bfn.  Coefficient  Atom+Function  
  ----- ------------  ---------------      ----- ------------  ---------------
   573      0.219227  32 C  py              380      0.175829  21 C  px        
   599      0.170027  33 O  pz              595     -0.167516  33 O  s         
   597     -0.162199  33 O  px              622      0.157950  34 N  px        

 Vector   51  Occ=2.000000D+00  E=-6.903289D-01
              MO Center=  4.6D-01,  2.9D+00, -5.2D-02, r^2= 9.1D+00
   Bfn.  Coefficient  Atom+Function         Bfn.  Coefficient  Atom+Function  
  ----- ------------  ---------------      ----- ------------  ---------------
    84      0.278993   6 O  pz               57     -0.228257   5 C  px        
   268     -0.225180  16 O  px               80      0.203951   6 O  s         
    16     -0.181381   2 C  pz              245      0.165696  15 O  pz        
   218      0.163295  14 C  px               87      0.161582   6 O  pz        
   266      0.150573  16 O  s         

 Vector   52  Occ=2.000000D+00  E=-6.791903D-01
              MO Center= -2.0D-01, -1.4D+00,  2.1D-01, r^2= 1.2D+01
   Bfn.  Coefficient  Atom+Function         Bfn.  Coefficient  Atom+Function  
  ----- ------------  ---------------      ----- ------------  ---------------
   547      0.212745  31 O  px              545      0.187588  31 O  s         
   499     -0.165902  29 C  pz              497     -0.160083  29 C  px        
   343     -0.150401  19 N  px        

 Vector   53  Occ=2.000000D+00  E=-6.670922D-01
              MO Center= -5.2D-01, -4.5D-01,  2.8D-01, r^2= 1.3D+01
   Bfn.  Coefficient  Atom+Function         Bfn.  Coefficient  Atom+Function  
  ----- ------------  ---------------      ----- ------------  ---------------
   375      0.230586  21 C  s               409     -0.177405  23 C  s         
   497     -0.164961  29 C  px               55      0.163618   5 C  s         
    12     -0.161158   2 C  s               176      0.158836  11 C  py        
   549      0.154953  31 O  pz              545      0.150531  31 O  s         

 Vector   54  Occ=2.000000D+00  E=-6.617062D-01
              MO Center= -1.8D-01,  3.5D-02,  4.7D-01, r^2= 1.3D+01
   Bfn.  Coefficient  Atom+Function         Bfn.  Coefficient  Atom+Function  
  ----- ------------  ---------------      ----- ------------  ---------------
   320      0.219975  18 O  pz              143      0.154923   9 C  pz        
    12     -0.150924   2 C  s         

 Vector   55  Occ=2.000000D+00  E=-6.526663D-01
              MO Center= -4.7D-01, -1.3D+00,  4.3D-01, r^2= 1.5D+01
   Bfn.  Coefficient  Atom+Function         Bfn.  Coefficient  Atom+Function  
  ----- ------------  ---------------      ----- ------------  ---------------
   522      0.189261  30 O  px              524     -0.175549  30 O  pz        
   499     -0.162684  29 C  pz              173      0.151859  11 C  s         
   547      0.150577  31 O  px        

 Vector   56  Occ=2.000000D+00  E=-6.430336D-01
              MO Center=  8.1D-01,  1.1D+00,  1.0D-02, r^2= 1.3D+01
   Bfn.  Coefficient  Atom+Function         Bfn.  Coefficient  Atom+Function  
  ----- ------------  ---------------      ----- ------------  ---------------
    15      0.205523   2 C  py              108      0.177691   7 N  py        
    58      0.174614   5 C  py                1      0.158779   1 H  s         

 Vector   57  Occ=2.000000D+00  E=-6.265059D-01
              MO Center= -6.1D-01,  9.6D-01,  1.3D-01, r^2= 1.1D+01
   Bfn.  Coefficient  Atom+Function         Bfn.  Coefficient  Atom+Function  
  ----- ------------  ---------------      ----- ------------  ---------------
   375      0.202257  21 C  s               318     -0.177816  18 O  px        
   219      0.162273  14 C  py              293     -0.156119  17 C  px        

 Vector   58  Occ=2.000000D+00  E=-6.201478D-01
              MO Center=  3.8D-01, -8.6D-01, -4.8D-01, r^2= 1.1D+01
   Bfn.  Coefficient  Atom+Function         Bfn.  Coefficient  Atom+Function  
  ----- ------------  ---------------      ----- ------------  ---------------
   409      0.191519  23 C  s               598      0.185696  33 O  py        
   441      0.177479  25 H  s               574      0.177761  32 C  pz        
   452     -0.161702  26 C  s         

 Vector   59  Occ=2.000000D+00  E=-6.140896D-01
              MO Center=  4.1D-01,  8.5D-01,  7.4D-03, r^2= 1.2D+01
   Bfn.  Coefficient  Atom+Function         Bfn.  Coefficient  Atom+Function  
  ----- ------------  ---------------      ----- ------------  ---------------
   139      0.184702   9 C  s                59     -0.164807   5 C  pz        
   598      0.157651  33 O  py        

 Vector   60  Occ=2.000000D+00  E=-6.024394D-01
              MO Center=  4.0D-01, -1.5D+00, -6.5D-01, r^2= 9.5D+00
   Bfn.  Coefficient  Atom+Function         Bfn.  Coefficient  Atom+Function  
  ----- ------------  ---------------      ----- ------------  ---------------
   454      0.202693  26 C  px              475     -0.193045  27 H  s         
   476     -0.193443  27 H  s               599      0.188989  33 O  pz        
   572      0.155156  32 C  px        

 Vector   61  Occ=2.000000D+00  E=-5.970388D-01
              MO Center=  1.4D+00,  2.1D+00,  2.5D-01, r^2= 8.2D+00
   Bfn.  Coefficient  Atom+Function         Bfn.  Coefficient  Atom+Function  
  ----- ------------  ---------------      ----- ------------  ---------------
    82     -0.264334   6 O  px               59      0.262744   5 C  pz        
    16     -0.192718   2 C  pz               84     -0.190198   6 O  pz        
    85     -0.166455   6 O  px               44      0.159665   4 H  s         
   109     -0.153687   7 N  pz               19     -0.151312   2 C  pz        

 Vector   62  Occ=2.000000D+00  E=-5.874284D-01
              MO Center= -7.3D-02, -3.3D-02, -4.5D-02, r^2= 1.2D+01
   Bfn.  Coefficient  Atom+Function         Bfn.  Coefficient  Atom+Function  
  ----- ------------  ---------------      ----- ------------  ---------------
   143      0.194504   9 C  pz              412      0.193890  23 C  py        
   162      0.177431  10 H  s               455     -0.154134  26 C  py        

 Vector   63  Occ=2.000000D+00  E=-5.813955D-01
              MO Center=  9.4D-01,  9.8D-01, -3.4D-01, r^2= 1.4D+01
   Bfn.  Coefficient  Atom+Function         Bfn.  Coefficient  Atom+Function  
  ----- ------------  ---------------      ----- ------------  ---------------
    14      0.254534   2 C  px               35      0.248326   3 H  s         
    36      0.241652   3 H  s               412     -0.162167  23 C  py        
     1     -0.159179   1 H  s         

 Vector   64  Occ=2.000000D+00  E=-5.692693D-01
              MO Center=  6.6D-01,  4.6D-01, -2.6D-01, r^2= 1.1D+01
   Bfn.  Coefficient  Atom+Function         Bfn.  Coefficient  Atom+Function  
  ----- ------------  ---------------      ----- ------------  ---------------
   399      0.302769  22 H  s               433     -0.202572  24 H  s         
    14      0.193928   2 C  px              350      0.192267  19 N  py        
    35      0.185322   3 H  s               375     -0.178674  21 C  s         
   442      0.177535  25 H  s                36      0.173088   3 H  s         
   379      0.166000  21 C  pz              413     -0.166757  23 C  pz        

 Vector   65  Occ=2.000000D+00  E=-5.642165D-01
              MO Center= -7.2D-01, -2.2D+00, -5.3D-01, r^2= 6.8D+00
   Bfn.  Coefficient  Atom+Function         Bfn.  Coefficient  Atom+Function  
  ----- ------------  ---------------      ----- ------------  ---------------
   432      0.266769  24 H  s               484      0.242175  28 H  s         
   399     -0.201729  22 H  s               454      0.200829  26 C  px        
   433      0.198117  24 H  s               458     -0.194540  26 C  py        
   411     -0.192938  23 C  px              442     -0.190153  25 H  s         
   570      0.179574  32 C  s               413      0.178539  23 C  pz        

 Vector   66  Occ=2.000000D+00  E=-5.588013D-01
              MO Center= -1.1D+00,  2.4D+00,  2.1D-01, r^2= 7.3D+00
   Bfn.  Coefficient  Atom+Function         Bfn.  Coefficient  Atom+Function  
  ----- ------------  ---------------      ----- ------------  ---------------
   113      0.248441   7 N  px              196     -0.238809  12 H  s         
   197     -0.226994  12 H  s               206      0.209490  13 H  s         
   176      0.195622  11 C  py               56     -0.192639   5 C  s         
   244     -0.191488  15 O  py              269     -0.182483  16 O  py        
   175      0.167266  11 C  px              205      0.162345  13 H  s         

 Vector   67  Occ=2.000000D+00  E=-5.461028D-01
              MO Center= -3.5D-01, -3.2D-01,  4.1D-01, r^2= 8.5D+00
   Bfn.  Coefficient  Atom+Function         Bfn.  Coefficient  Atom+Function  
  ----- ------------  ---------------      ----- ------------  ---------------
   318      0.264774  18 O  px              321      0.203447  18 O  px        
   411      0.186319  23 C  px              377     -0.177819  21 C  px        
   379     -0.160198  21 C  pz              139      0.157049   9 C  s         
   380     -0.151192  21 C  px        

 Vector   68  Occ=2.000000D+00  E=-5.420877D-01
              MO Center=  1.4D+00,  2.7D+00, -2.4D-02, r^2= 6.1D+00
   Bfn.  Coefficient  Atom+Function         Bfn.  Coefficient  Atom+Function  
  ----- ------------  ---------------      ----- ------------  ---------------
    15      0.266019   2 C  py               83     -0.235324   6 O  py        
    44     -0.232462   4 H  s                45     -0.233378   4 H  s         
   108     -0.201868   7 N  py              111     -0.188324   7 N  py        
    58     -0.183503   5 C  py                1      0.170981   1 H  s         
    86     -0.170605   6 O  py              197     -0.151821  12 H  s         

 Vector   69  Occ=2.000000D+00  E=-5.084228D-01
              MO Center= -2.0D+00,  2.9D+00, -8.9D-01, r^2= 3.7D+00
   Bfn.  Coefficient  Atom+Function         Bfn.  Coefficient  Atom+Function  
  ----- ------------  ---------------      ----- ------------  ---------------
   243      0.394232  15 O  px              270     -0.336120  16 O  pz        
   246      0.320825  15 O  px              173      0.285229  11 C  s         
   273     -0.275890  16 O  pz              113     -0.264589   7 N  px        
   206     -0.240764  13 H  s               269     -0.241691  16 O  py        
   245      0.213458  15 O  pz              248      0.197154  15 O  pz        

 Vector   70  Occ=2.000000D+00  E=-4.949887D-01
              MO Center= -1.3D-01, -2.1D+00,  8.9D-01, r^2= 1.2D+01
   Bfn.  Coefficient  Atom+Function         Bfn.  Coefficient  Atom+Function  
  ----- ------------  ---------------      ----- ------------  ---------------
   319      0.252419  18 O  py              549     -0.227143  31 O  pz        
   548     -0.222304  31 O  py              522     -0.220387  30 O  px        
   322      0.195220  18 O  py              551     -0.172948  31 O  py        
   552     -0.171234  31 O  pz              525     -0.166846  30 O  px        
   173     -0.165012  11 C  s               547      0.164372  31 O  px        

 Vector   71  Occ=2.000000D+00  E=-4.922573D-01
              MO Center= -1.1D-01, -9.9D-01,  1.1D+00, r^2= 1.3D+01
   Bfn.  Coefficient  Atom+Function         Bfn.  Coefficient  Atom+Function  
  ----- ------------  ---------------      ----- ------------  ---------------
   319      0.310672  18 O  py              322      0.241597  18 O  py        
   139     -0.201336   9 C  s               173     -0.190061  11 C  s         
   548      0.190947  31 O  py               83     -0.181523   6 O  py        
   549      0.178929  31 O  pz              197      0.169893  12 H  s         
   522      0.165028  30 O  px              145      0.158615   9 C  py        

 Vector   72  Occ=2.000000D+00  E=-4.791813D-01
              MO Center= -2.0D+00,  2.8D+00, -4.7D-01, r^2= 4.3D+00
   Bfn.  Coefficient  Atom+Function         Bfn.  Coefficient  Atom+Function  
  ----- ------------  ---------------      ----- ------------  ---------------
   270      0.353553  16 O  pz              245      0.307960  15 O  pz        
   177      0.258798  11 C  pz              273      0.254229  16 O  pz        
   248      0.207839  15 O  pz              220     -0.189510  14 C  pz        
   223     -0.163295  14 C  pz        

 Vector   73  Occ=2.000000D+00  E=-4.751206D-01
              MO Center= -4.3D-02, -4.0D+00,  5.1D-01, r^2= 3.3D+00
   Bfn.  Coefficient  Atom+Function         Bfn.  Coefficient  Atom+Function  
  ----- ------------  ---------------      ----- ------------  ---------------
   548      0.435095  31 O  py              551      0.356163  31 O  py        
   549     -0.298618  31 O  pz              442     -0.257979  25 H  s         
   552     -0.228431  31 O  pz              409      0.226796  23 C  s         
   456     -0.156974  26 C  pz        

 Vector   74  Occ=2.000000D+00  E=-4.604923D-01
              MO Center=  1.3D+00, -1.2D+00, -9.7D-01, r^2= 3.9D+00
   Bfn.  Coefficient  Atom+Function         Bfn.  Coefficient  Atom+Function  
  ----- ------------  ---------------      ----- ------------  ---------------
   597      0.405969  33 O  px              375     -0.362952  21 C  s         
   600      0.320174  33 O  px              598     -0.309630  33 O  py        
   601     -0.255373  33 O  py              399      0.238225  22 H  s         
   570      0.217182  32 C  s               350      0.203541  19 N  py        
   588     -0.203571  32 C  dxy             575     -0.200844  32 C  px        

 Vector   75  Occ=2.000000D+00  E=-4.449469D-01
              MO Center=  2.3D+00,  2.9D+00,  8.8D-01, r^2= 2.3D+00
   Bfn.  Coefficient  Atom+Function         Bfn.  Coefficient  Atom+Function  
  ----- ------------  ---------------      ----- ------------  ---------------
    82      0.467699   6 O  px               85      0.373022   6 O  px        
    13      0.307041   2 C  s                84     -0.277448   6 O  pz        
   105      0.251895   7 N  s                16     -0.220151   2 C  pz        
    19     -0.210585   2 C  pz               87     -0.207811   6 O  pz        
    63     -0.191379   5 C  px              350     -0.184618  19 N  py        

 Vector   76  Occ=2.000000D+00  E=-4.385838D-01
              MO Center=  1.6D+00, -1.7D+00, -6.5D-01, r^2= 4.8D+00
   Bfn.  Coefficient  Atom+Function         Bfn.  Coefficient  Atom+Function  
  ----- ------------  ---------------      ----- ------------  ---------------
   624     -0.272931  34 N  pz              599      0.260044  33 O  pz        
   627     -0.241434  34 N  pz              622     -0.239228  34 N  px        
   625     -0.216143  34 N  px              598      0.208890  33 O  py        
   602      0.204861  33 O  pz              623     -0.174067  34 N  py        
   601      0.169135  33 O  py        

 Vector   77  Occ=2.000000D+00  E=-4.277281D-01
              MO Center=  7.2D-01,  5.1D-01,  4.1D-01, r^2= 8.5D+00
   Bfn.  Coefficient  Atom+Function         Bfn.  Coefficient  Atom+Function  
  ----- ------------  ---------------      ----- ------------  ---------------
   108     -0.246700   7 N  py               83      0.243874   6 O  py        
   111     -0.239884   7 N  py              343      0.229524  19 N  px        
   346      0.221847  19 N  px              318     -0.198869  18 O  px        
   350     -0.198832  19 N  py               86      0.192180   6 O  py        
   321     -0.159839  18 O  px              597     -0.152022  33 O  px        

 Vector   78  Occ=2.000000D+00  E=-4.109810D-01
              MO Center= -2.6D-01,  1.5D+00,  2.6D-01, r^2= 9.3D+00
   Bfn.  Coefficient  Atom+Function         Bfn.  Coefficient  Atom+Function  
  ----- ------------  ---------------      ----- ------------  ---------------
   106      0.302652   7 N  s               108      0.271203   7 N  py        
   111      0.249354   7 N  py              350     -0.246079  19 N  py        
   343      0.236974  19 N  px               83     -0.218861   6 O  py        
   346      0.217323  19 N  px              145     -0.182499   9 C  py        
    86     -0.167690   6 O  py              269     -0.165990  16 O  py        

 Vector   79  Occ=2.000000D+00  E=-3.623439D-01
              MO Center= -1.6D+00, -1.2D+00, -3.2D-01, r^2= 1.9D+01
   Bfn.  Coefficient  Atom+Function         Bfn.  Coefficient  Atom+Function  
  ----- ------------  ---------------      ----- ------------  ---------------
   524      0.345646  30 O  pz              452     -0.287334  26 C  s         
   527      0.282586  30 O  pz              244      0.257318  15 O  py        
   247      0.211891  15 O  py              269     -0.200506  16 O  py        
   270      0.163738  16 O  pz              272     -0.161601  16 O  py        

 Vector   80  Occ=0.000000D+00  E=-2.841647D-01
              MO Center= -1.3D+00, -8.9D-01, -1.7D-01, r^2= 1.7D+01
   Bfn.  Coefficient  Atom+Function         Bfn.  Coefficient  Atom+Function  
  ----- ------------  ---------------      ----- ------------  ---------------
   524      0.300849  30 O  pz              527      0.247666  30 O  pz        
   244     -0.240402  15 O  py              452     -0.226503  26 C  s         
   247     -0.198239  15 O  py              343      0.193597  19 N  px        
   409      0.192440  23 C  s               346      0.184543  19 N  px        
   269      0.174912  16 O  py        

 Vector   81  Occ=0.000000D+00  E= 2.372427D-02
              MO Center= -1.3D+00, -3.1D+00, -2.2D+00, r^2= 2.3D+01
   Bfn.  Coefficient  Atom+Function         Bfn.  Coefficient  Atom+Function  
  ----- ------------  ---------------      ----- ------------  ---------------
   496      4.639475  29 C  s               571      4.451117  32 C  s         
    56      3.510106   5 C  s               453     -3.345674  26 C  s         
   621     -2.954826  34 N  s               477     -2.882692  27 H  s         
   384     -2.661072  21 C  py              300     -2.521432  17 C  py        
   217      2.087409  14 C  s               366      1.903238  20 H  s         

 Vector   82  Occ=0.000000D+00  E= 3.262942D-02
              MO Center=  4.3D-02, -2.9D-01, -4.1D-01, r^2= 4.3D+01
   Bfn.  Coefficient  Atom+Function         Bfn.  Coefficient  Atom+Function  
  ----- ------------  ---------------      ----- ------------  ---------------
   217      4.429616  14 C  s               621      2.728525  34 N  s         
   350      2.482535  19 N  py              486      2.290040  28 H  s         
   174     -2.089804  11 C  s               579      2.098647  32 C  py        
   654      1.922178  36 H  s                13      1.877850   2 C  s         
   418      1.779868  23 C  py              198     -1.726597  12 H  s         

 Vector   83  Occ=0.000000D+00  E= 3.311166D-02
              MO Center=  1.3D+00,  1.9D+00, -9.5D-01, r^2= 4.2D+01
   Bfn.  Coefficient  Atom+Function         Bfn.  Coefficient  Atom+Function  
  ----- ------------  ---------------      ----- ------------  ---------------
   453      3.200921  26 C  s               147      2.867343   9 C  px        
   477      2.452812  27 H  s                63      2.380040   5 C  px        
   300      2.371057  17 C  py              130      2.350891   8 H  s         
   217      2.342962  14 C  s                 3     -2.129500   1 H  s         
   384      2.117283  21 C  py              207     -1.915422  13 H  s         

 Vector   84  Occ=0.000000D+00  E= 4.238477D-02
              MO Center=  1.8D-01,  9.0D-01,  4.5D-02, r^2= 4.2D+01
   Bfn.  Coefficient  Atom+Function         Bfn.  Coefficient  Atom+Function  
  ----- ------------  ---------------      ----- ------------  ---------------
   383      3.176652  21 C  px               63     -2.548265   5 C  px        
   496      2.474253  29 C  s               621     -2.184509  34 N  s         
   198     -2.158524  12 H  s               164     -2.103436  10 H  s         
    65      1.963011   5 C  pz              419      1.944744  23 C  pz        
   149      1.884080   9 C  pz                3      1.870243   1 H  s         

 Vector   85  Occ=0.000000D+00  E= 4.654271D-02
              MO Center=  3.2D-01,  9.3D-01, -2.0D-01, r^2= 4.4D+01
   Bfn.  Coefficient  Atom+Function         Bfn.  Coefficient  Atom+Function  
  ----- ------------  ---------------      ----- ------------  ---------------
   486      3.392669  28 H  s               207      3.024931  13 H  s         
    63      2.663749   5 C  px              434     -2.495867  24 H  s         
   147      2.239546   9 C  px              182     -1.967628  11 C  py        
    37     -1.942125   3 H  s               418      1.846482  23 C  py        
   384     -1.730985  21 C  py               46     -1.449826   4 H  s         

 Vector   86  Occ=0.000000D+00  E= 5.250428D-02
              MO Center= -9.7D-01, -8.7D-01, -1.4D+00, r^2= 4.0D+01
   Bfn.  Coefficient  Atom+Function         Bfn.  Coefficient  Atom+Function  
  ----- ------------  ---------------      ----- ------------  ---------------
   477      4.407022  27 H  s               217      4.293888  14 C  s         
   443     -4.204892  25 H  s               453      4.196144  26 C  s         
   496     -4.192475  29 C  s               130     -3.423090   8 H  s         
    46     -2.784960   4 H  s               460      2.578606  26 C  px        
   300      2.484522  17 C  py               37      2.303534   3 H  s         

 Vector   87  Occ=0.000000D+00  E= 5.724714D-02
              MO Center=  1.8D+00,  2.0D+00, -5.5D-02, r^2= 4.0D+01
   Bfn.  Coefficient  Atom+Function         Bfn.  Coefficient  Atom+Function  
  ----- ------------  ---------------      ----- ------------  ---------------
    37      3.878682   3 H  s                 3     -3.214554   1 H  s         
   164      3.064077  10 H  s               496      2.582327  29 C  s         
[...]
   579     -7.461074  32 C  py              197      7.418288  12 H  s         
   292     -7.403038  17 C  s               400      7.401593  22 H  s         

 Vector  189  Occ=0.000000D+00  E= 4.228352D-01
              MO Center=  3.0D-01,  5.1D-01, -2.8D-01, r^2= 2.2D+01
   Bfn.  Coefficient  Atom+Function         Bfn.  Coefficient  Atom+Function  
  ----- ------------  ---------------      ----- ------------  ---------------
   410     11.846662  23 C  s               350      9.025667  19 N  py        
   453      7.953516  26 C  s               113     -7.627389   7 N  px        
   301      7.346643  17 C  pz              342      7.214599  19 N  s         
   366     -7.028373  20 H  s                12     -6.823444   2 C  s         
   174     -6.578949  11 C  s               383      6.364142  21 C  px        

 Vector  190  Occ=0.000000D+00  E= 4.276863D-01
              MO Center=  1.5D-01,  9.6D-01, -2.1D-01, r^2= 2.3D+01
   Bfn.  Coefficient  Atom+Function         Bfn.  Coefficient  Atom+Function  
  ----- ------------  ---------------      ----- ------------  ---------------
   147     11.132961   9 C  px              385     10.232616  21 C  pz        
   113     -9.430880   7 N  px              115     -8.559866   7 N  pz        
   183      7.659610  11 C  pz               56      7.109664   5 C  s         
    13     -6.401356   2 C  s               496     -6.030158  29 C  s         
   571      6.030909  32 C  s               130      5.746096   8 H  s         

 Vector  191  Occ=0.000000D+00  E= 4.294561D-01
              MO Center=  8.3D-01,  1.5D-01, -5.3D-01, r^2= 2.3D+01
   Bfn.  Coefficient  Atom+Function         Bfn.  Coefficient  Atom+Function  
  ----- ------------  ---------------      ----- ------------  ---------------
   571    -11.156533  32 C  s               384     10.583677  21 C  py        
   350     -8.768420  19 N  py              496      8.730727  29 C  s         
    56     -6.958000   5 C  s                12     -6.831888   2 C  s         
   366      6.735630  20 H  s               596      6.488627  33 O  s         
   148     -6.350432   9 C  py              376     -6.150642  21 C  s         

 Vector  192  Occ=0.000000D+00  E= 4.322891D-01
              MO Center= -5.9D-01, -2.2D+00, -1.7D-02, r^2= 2.3D+01
   Bfn.  Coefficient  Atom+Function         Bfn.  Coefficient  Atom+Function  
  ----- ------------  ---------------      ----- ------------  ---------------
   113      7.101027   7 N  px              299      6.753199  17 C  px        
   521      6.536319  30 O  s               621      6.195680  34 N  s         
   147     -5.685462   9 C  px              460      5.111555  26 C  px        
   183     -4.991094  11 C  pz               56     -4.915580   5 C  s         
   174      4.808484  11 C  s               148      4.717109   9 C  py        

 Vector  193  Occ=0.000000D+00  E= 4.374342D-01
              MO Center= -2.1D-01,  2.9D-01, -2.4D-01, r^2= 2.2D+01
   Bfn.  Coefficient  Atom+Function         Bfn.  Coefficient  Atom+Function  
  ----- ------------  ---------------      ----- ------------  ---------------
   496     15.880225  29 C  s               453    -11.962084  26 C  s         
   351      7.500060  19 N  pz              106     -6.460497   7 N  s         
   115     -6.070061   7 N  pz              385     -5.687278  21 C  pz        
   342      5.118926  19 N  s               206     -5.021150  13 H  s         
   300      4.686131  17 C  py              571      4.299158  32 C  s         

 Vector  194  Occ=0.000000D+00  E= 4.398947D-01
              MO Center=  6.5D-01,  7.7D-02, -4.3D-01, r^2= 2.4D+01
   Bfn.  Coefficient  Atom+Function         Bfn.  Coefficient  Atom+Function  
  ----- ------------  ---------------      ----- ------------  ---------------
   496     13.166846  29 C  s               217    -11.051566  14 C  s         
   147    -10.693890   9 C  px               56      9.495711   5 C  s         
   453     -8.551519  26 C  s               418      8.278523  23 C  py        
   301      8.114494  17 C  pz              342      7.878037  19 N  s         
   452     -7.302293  26 C  s               148      6.988970   9 C  py        

 Vector  195  Occ=0.000000D+00  E= 4.466752D-01
              MO Center= -2.3D-01,  1.1D+00,  6.9D-01, r^2= 1.8D+01
   Bfn.  Coefficient  Atom+Function         Bfn.  Coefficient  Atom+Function  
  ----- ------------  ---------------      ----- ------------  ---------------
    56     15.371378   5 C  s               300     13.620741  17 C  py        
   106    -13.287538   7 N  s               113    -12.861531   7 N  px        
   571     10.324676  32 C  s               217     -9.339860  14 C  s         
   292     -7.640916  17 C  s               140     -6.822534   9 C  s         
   317      6.239736  18 O  s               621     -5.745751  34 N  s         

 Vector  196  Occ=0.000000D+00  E= 4.511845D-01
              MO Center=  4.8D-01,  1.0D+00, -1.7D-01, r^2= 2.3D+01
   Bfn.  Coefficient  Atom+Function         Bfn.  Coefficient  Atom+Function  
  ----- ------------  ---------------      ----- ------------  ---------------
   217     15.613181  14 C  s                56    -13.795154   5 C  s         
   453     12.726248  26 C  s               571    -11.330397  32 C  s         
   147     10.760022   9 C  px              300     10.743312  17 C  py        
   149     -8.758544   9 C  pz              183      8.566795  11 C  pz        
    13      8.136517   2 C  s               299     -7.509119  17 C  px        

 Vector  197  Occ=0.000000D+00  E= 4.555569D-01
              MO Center= -2.9D-03, -2.3D-01, -2.9D-01, r^2= 2.2D+01
   Bfn.  Coefficient  Atom+Function         Bfn.  Coefficient  Atom+Function  
  ----- ------------  ---------------      ----- ------------  ---------------
   453     14.230341  26 C  s               174    -11.402668  11 C  s         
    13      8.314046   2 C  s               621      7.842123  34 N  s         
   571     -7.479100  32 C  s               409      7.279467  23 C  s         
   292     -7.068302  17 C  s               300      6.941160  17 C  py        
   496     -6.942995  29 C  s               366      6.612173  20 H  s         

 Vector  198  Occ=0.000000D+00  E= 4.569302D-01
              MO Center=  2.0D-01,  4.5D-01, -1.3D-01, r^2= 2.1D+01
   Bfn.  Coefficient  Atom+Function         Bfn.  Coefficient  Atom+Function  
  ----- ------------  ---------------      ----- ------------  ---------------
   174     14.211580  11 C  s               173      8.585514  11 C  s         
   217     -8.516286  14 C  s               342     -8.373537  19 N  s         
   149     -8.178107   9 C  pz              350     -7.765998  19 N  py        
   300      7.609801  17 C  py              197     -6.793675  12 H  s         
   206     -6.752570  13 H  s               351     -5.892243  19 N  pz        

 Vector  199  Occ=0.000000D+00  E= 4.589122D-01
              MO Center=  5.8D-01,  5.1D-01, -2.6D-01, r^2= 2.0D+01
   Bfn.  Coefficient  Atom+Function         Bfn.  Coefficient  Atom+Function  
  ----- ------------  ---------------      ----- ------------  ---------------
   174      9.389897  11 C  s               496      9.337687  29 C  s         
   300      6.627984  17 C  py              106     -6.012697   7 N  s         
   130     -5.931353   8 H  s               384      5.632130  21 C  py        
   383      5.366090  21 C  px              351      5.158970  19 N  pz        
   442      4.783362  25 H  s               399      4.376626  22 H  s         

 Vector  200  Occ=0.000000D+00  E= 4.617269D-01
              MO Center=  4.7D-01,  2.7D-02,  2.0D-01, r^2= 2.2D+01
   Bfn.  Coefficient  Atom+Function         Bfn.  Coefficient  Atom+Function  
  ----- ------------  ---------------      ----- ------------  ---------------
    13     22.998737   2 C  s               496    -22.274408  29 C  s         
    56    -13.283457   5 C  s               621     12.991028  34 N  s         
   342    -11.529938  19 N  s               148    -10.360423   9 C  py        
   301     -9.755106  17 C  pz              571     -9.516900  32 C  s         
   418     -8.379197  23 C  py              453      8.318898  26 C  s         

 Vector  201  Occ=0.000000D+00  E= 4.669941D-01
              MO Center= -1.3D-01,  8.2D-01, -3.9D-01, r^2= 2.3D+01
   Bfn.  Coefficient  Atom+Function         Bfn.  Coefficient  Atom+Function  
  ----- ------------  ---------------      ----- ------------  ---------------
    13     22.790775   2 C  s               217     21.001444  14 C  s         
   384    -19.309012  21 C  py              174    -16.468347  11 C  s         
   106     16.091998   7 N  s               300    -12.650525  17 C  py        
   571    -10.949473  32 C  s               385    -10.037347  21 C  pz        
    63     -9.821334   5 C  px               56     -9.723449   5 C  s         

 Vector  202  Occ=0.000000D+00  E= 4.710275D-01
              MO Center= -3.7D-01,  1.3D+00,  1.4D-01, r^2= 2.1D+01
   Bfn.  Coefficient  Atom+Function         Bfn.  Coefficient  Atom+Function  
  ----- ------------  ---------------      ----- ------------  ---------------
   384     14.592319  21 C  py              453     11.110524  26 C  s         
   217     -8.961148  14 C  s               342     -8.108351  19 N  s         
   174      7.566702  11 C  s                65     -6.228386   5 C  pz        
    63      6.141106   5 C  px               13     -5.943157   2 C  s         
   148      5.006705   9 C  py              163     -4.942557  10 H  s         

 Vector  203  Occ=0.000000D+00  E= 4.747450D-01
              MO Center=  9.2D-01,  2.2D-01, -3.2D-01, r^2= 2.3D+01
   Bfn.  Coefficient  Atom+Function         Bfn.  Coefficient  Atom+Function  
  ----- ------------  ---------------      ----- ------------  ---------------
    13     34.944416   2 C  s               571    -30.397891  32 C  s         
    56    -24.951936   5 C  s               384    -16.020149  21 C  py        
    12     15.680620   2 C  s               383     13.005837  21 C  px        
    45    -12.468659   4 H  s               292     11.096340  17 C  s         
    65     10.685504   5 C  pz              385    -10.582820  21 C  pz        

 Vector  204  Occ=0.000000D+00  E= 4.804328D-01
              MO Center=  4.1D-01,  4.1D-02, -2.9D-01, r^2= 2.1D+01
   Bfn.  Coefficient  Atom+Function         Bfn.  Coefficient  Atom+Function  
  ----- ------------  ---------------      ----- ------------  ---------------
    13     14.716396   2 C  s               300    -11.365620  17 C  py        
   453    -10.960472  26 C  s               571    -10.295982  32 C  s         
   433     10.152606  24 H  s               409     -9.898048  23 C  s         
   384     -8.198236  21 C  py               12      7.945660   2 C  s         
   130     -7.814875   8 H  s               496      7.220109  29 C  s         

 Vector  205  Occ=0.000000D+00  E= 4.857897D-01
              MO Center=  5.0D-01,  2.0D-01, -2.6D-01, r^2= 2.1D+01
   Bfn.  Coefficient  Atom+Function         Bfn.  Coefficient  Atom+Function  
  ----- ------------  ---------------      ----- ------------  ---------------
   453     22.339378  26 C  s               106    -14.878641   7 N  s         
   410     12.909473  23 C  s               496    -11.855233  29 C  s         
   300     10.930207  17 C  py              350      9.353803  19 N  py        
   384      8.752615  21 C  py              418      7.619245  23 C  py        
   140     -6.869152   9 C  s               417      6.552390  23 C  px        

 Vector  206  Occ=0.000000D+00  E= 4.892745D-01
              MO Center= -4.3D-03,  7.2D-01,  6.4D-01, r^2= 2.1D+01
   Bfn.  Coefficient  Atom+Function         Bfn.  Coefficient  Atom+Function  
  ----- ------------  ---------------      ----- ------------  ---------------
    13     16.568274   2 C  s               571    -11.983004  32 C  s         
    56    -10.163098   5 C  s               496      9.143596  29 C  s         
   106     -8.731518   7 N  s               385     -8.766672  21 C  pz        
   292      8.201983  17 C  s               383      7.861684  21 C  px        
   174      7.803021  11 C  s                63     -7.070389   5 C  px        

 Vector  207  Occ=0.000000D+00  E= 4.926063D-01
              MO Center= -2.9D-01,  4.1D-01,  6.3D-02, r^2= 2.3D+01
   Bfn.  Coefficient  Atom+Function         Bfn.  Coefficient  Atom+Function  
  ----- ------------  ---------------      ----- ------------  ---------------
   496     11.896603  29 C  s               217    -10.481364  14 C  s         
   173     -9.159698  11 C  s               106      9.072825   7 N  s         
   197      8.644351  12 H  s               384      8.569539  21 C  py        
    13      8.350899   2 C  s               366     -7.985928  20 H  s         
   571     -7.380592  32 C  s               149      7.263988   9 C  pz        

 Vector  208  Occ=0.000000D+00  E= 4.958326D-01
              MO Center= -1.7D-01,  6.7D-01,  1.0D-01, r^2= 2.0D+01
   Bfn.  Coefficient  Atom+Function         Bfn.  Coefficient  Atom+Function  
  ----- ------------  ---------------      ----- ------------  ---------------
   342     10.288982  19 N  s               300      9.104409  17 C  py        
   149     -8.248262   9 C  pz               56     -7.346396   5 C  s         
   418      7.204203  23 C  py              384     -5.376044  21 C  py        
   351      5.342179  19 N  pz              376      5.295053  21 C  s         
   385      5.190521  21 C  pz              399     -5.145128  22 H  s         

 Vector  209  Occ=0.000000D+00  E= 5.011191D-01
              MO Center= -2.9D-01,  1.2D-01, -3.1D-01, r^2= 2.2D+01
   Bfn.  Coefficient  Atom+Function         Bfn.  Coefficient  Atom+Function  
  ----- ------------  ---------------      ----- ------------  ---------------
   174     18.216180  11 C  s                13    -10.459520   2 C  s         
   350     -9.489923  19 N  py              149     -9.125059   9 C  pz        
   197     -8.761147  12 H  s               147      8.640659   9 C  px        
   292      6.931332  17 C  s                63      6.865581   5 C  px        
   217     -6.621188  14 C  s               300      6.643370  17 C  py        


 center of mass
 --------------
 x =  -0.03022545 y =  -0.01749461 z =   0.02792434

 moments of inertia (a.u.)
 ------------------
       10501.418163421917          -0.000000000001          -0.000000000001
          -0.000000000001        4116.830765015094          -0.000000000001
          -0.000000000001          -0.000000000001       12292.117980798084

  Mulliken analysis of the total density
  --------------------------------------

    Atom       Charge   Shell Charges
 -----------   ------   -------------------------------------------------------
    1 H    1     0.82   0.76  0.09  0.00  0.03 -0.07
    2 C    6     6.43   2.01  0.66  0.35  0.24  2.07  0.97 -0.03  0.06  0.12
    3 H    1     1.00   0.76  0.25  0.01  0.03 -0.06
    4 H    1     0.83   0.76  0.09  0.01  0.03 -0.07
    5 C    6     5.02   2.01  0.68  0.17 -0.13  1.90  0.27 -0.10  0.24 -0.03
    6 O    8     8.72   2.01  0.82  1.00  0.17  2.78  1.81  0.14  0.01 -0.02
    7 N    7     7.43   2.01  0.72  0.78 -0.14  2.44  1.42  0.12  0.05  0.03
    8 H    1     0.90   0.73  0.19  0.01  0.06 -0.08
    9 C    6     6.32   2.01  0.66  0.06 -0.05  1.99  1.37  0.05  0.14  0.10
   10 H    1     1.09   0.77  0.28 -0.00  0.03  0.01
   11 C    6     6.67   2.01  0.66  0.62  0.11  2.04  0.93 -0.03  0.08  0.24
   12 H    1     0.81   0.77  0.08 -0.00  0.03 -0.07
   13 H    1     0.75   0.77  0.02  0.00  0.03 -0.06
   14 C    6     4.58   2.01  0.67  0.06 -0.23  1.87  0.17 -0.06  0.26 -0.17
   15 O    8     8.63   2.01  0.83  1.00  0.13  2.74  1.81  0.14  0.01 -0.03
   16 O    8     8.60   2.01  0.84  1.02  0.18  2.72  1.73  0.13  0.01 -0.03
   17 C    6     4.63   2.01  0.68 -0.02  0.01  1.90  0.05  0.10  0.23 -0.32
   18 O    8     8.69   2.01  0.83  1.04  0.16  2.76  1.80  0.10  0.01 -0.01
   19 N    7     7.51   2.01  0.73  0.80 -0.08  2.40  1.41  0.16  0.05  0.03
   20 H    1     0.84   0.74  0.16 -0.06  0.06 -0.05
   21 C    6     6.44   2.01  0.66  0.26 -0.00  1.99  1.24  0.13  0.13  0.01
   22 H    1     1.07   0.77  0.28 -0.01  0.03  0.01
   23 C    6     5.90   2.01  0.67  0.16  0.01  2.01  0.71  0.04  0.09  0.19
   24 H    1     1.02   0.77  0.31 -0.02  0.03 -0.08
   25 H    1     1.00   0.77  0.29  0.01  0.03 -0.10
   26 C    6     6.28   2.01  0.67  0.36 -0.00  2.01  0.99  0.06  0.09  0.10
   27 H    1     0.99   0.77  0.24  0.01  0.03 -0.05
   28 H    1     0.79   0.76  0.06 -0.01  0.03 -0.05
   29 C    6     4.43   2.01  0.69  0.09 -0.23  1.85  0.01 -0.04  0.27 -0.20
   30 O    8     8.50   2.01  0.85  1.02  0.15  2.69  1.69  0.12  0.01 -0.03
   31 O    8     8.78   2.01  0.82  1.00  0.16  2.78  1.88  0.16  0.01 -0.03
   32 C    6     4.62   2.01  0.68  0.07  0.14  1.89 -0.19 -0.03  0.23 -0.17
   33 O    8     8.82   2.01  0.82  1.05  0.16  2.79  1.86  0.13  0.01  0.00
   34 N    7     7.22   2.01  0.72  0.85 -0.15  2.46  1.24  0.07  0.04 -0.02
   35 H    1     0.87   0.71  0.19 -0.01  0.06 -0.08
   36 H    1     1.00   0.76  0.22 -0.01  0.05 -0.03

       Multipole analysis of the density wrt the origin
       ------------------------------------------------

     L   x y z        total         open         nuclear
     -   - - -        -----         ----         -------
     0   0 0 0     -0.000000      0.000000    158.000000

     1   1 0 0      0.059133      0.000000      0.000000
     1   0 1 0     -0.349788      0.000000     -0.000000
     1   0 0 1     -1.172142      0.000000      0.000000

     2   2 0 0    -99.842843      0.000000   1579.697147
     2   1 1 0      1.665150      0.000000     27.614934
     2   1 0 1     -7.182273      0.000000    -24.006053
     2   0 2 0   -100.170118      0.000000   4898.491401
     2   0 1 1      9.884284      0.000000     22.618511
     2   0 0 2   -103.476603      0.000000    621.794808

 ------------------------------------------------------------------------
 scf energy failed                                                                                  0
 ------------------------------------------------------------------------
 ------------------------------------------------------------------------
  current input line : 
    51: task scf energy
 ------------------------------------------------------------------------
 ------------------------------------------------------------------------
 This type of error is most commonly associated with calculations not reaching convergence criteria
 ------------------------------------------------------------------------
 For more information see the NWChem manual at https://nwchemgit.github.io


 For further details see manual section:                                                                                                                                                                                                                                                                
0:scf energy failed:Received an Error in Communication
--------------------------------------------------------------------------
MPI_ABORT was invoked on rank 0 in communicator MPI COMMUNICATOR 3 DUP FROM 0
with errorcode -1.

NOTE: invoking MPI_ABORT causes Open MPI to kill all MPI processes.
You may or may not see output from other processes, depending on
exactly when Open MPI kills them.
--------------------------------------------------------------------------
slurmstepd: error: *** STEP 6619389.113 ON nova21-swift-4 CANCELLED AT 2025-07-11T08:08:36 ***
srun: Job step aborted: Waiting up to 32 seconds for job step to finish.
srun: error: nova21-swift-4: task 0: Exited with exit code 255
srun: error: nova21-swift-4: tasks 1-7: Killed
