export TMOUT=5400
export TMPDIR=/tmp
export PTMPDIR=/tmp/ptmp
 argument  1 = inputs/ASP_GLU_1.nw



============================== echo of input deck ==============================
start ASP_GLU_1
geometry
H          5.29900        3.62600       -6.19600
C          4.65600        4.32400       -5.66500
H          3.72900        4.48100       -6.21100
H          5.17700        5.27000       -5.52700
C          4.33700        3.75600       -4.30300
O          3.17100        3.55200       -3.98600
N          5.38500        3.48600       -3.53700
H          6.31600        3.68200       -3.89400
C          5.35200        3.09600       -2.12400
H          4.52000        2.41200       -1.95400
C          6.66300        2.35800       -1.79100
H          6.67200        2.09000       -0.73400
H          6.68800        1.42700       -2.36000
C          7.92300        3.16800       -2.13400
O          8.18500        3.35900       -3.34700
O          8.62700        3.57000       -1.18000
C          5.16300        4.30300       -1.17900
O          5.26200        5.46600       -1.57700
N          4.90900        4.03100        0.10400
H          4.77900        3.05600        0.38400
C          4.84600        5.04100        1.16800
H          4.31000        5.90000        0.76600
C          4.01700        4.50300        2.35400
H          3.87700        5.33100        3.05100
H          3.02200        4.22500        2.00300
C          4.63000        3.32900        3.14400
H          5.72000        3.36900        3.09600
H          4.35200        3.45800        4.19300
C          4.13800        1.95000        2.67100
O          3.69600        1.16500        3.54200
O          4.20500        1.68500        1.44800
C          6.22200        5.58600        1.62100
O          6.29300        6.44100        2.50400
N          7.33500        5.13600        1.05200
H          7.29900        4.46700        0.29100
H          8.21900        5.51100        1.34200
end

basis
 * library aug-cc-pvdz
end

echo

scf
 direct
end

task scf energy
================================================================================


                                         
                                         


             Northwest Computational Chemistry Package (NWChem) 7.2.0
             --------------------------------------------------------


                    Environmental Molecular Sciences Laboratory
                       Pacific Northwest National Laboratory
                                Richland, WA 99352

                              Copyright (c) 1994-2022
                       Pacific Northwest National Laboratory
                            Battelle Memorial Institute

             NWChem is an open-source computational chemistry package
                        distributed under the terms of the
                      Educational Community License (ECL) 2.0
             A copy of the license is included with this distribution
                              in the LICENSE.TXT file

                                  ACKNOWLEDGMENT
                                  --------------

            This software and its documentation were developed at the
            EMSL at Pacific Northwest National Laboratory, a multiprogram
            national laboratory, operated for the U.S. Department of Energy
            by Battelle under Contract Number DE-AC05-76RL01830. Support
            for this work was provided by the Department of Energy Office
            of Biological and Environmental Research, Office of Basic
            Energy Sciences, and the Office of Advanced Scientific Computing.


           Job information
           ---------------

    hostname        = nova21-swift-2
    program         = /opt/rit/el9/20230413/app/linux-rhel9-x86_64_v3/gcc-11.2.1/nwchem-7.2.0-oxtctbuhfuzyfaoziquq6bki22grib3g/bin/nwchem
    date            = Fri Jul 11 03:00:06 2025

    compiled        = Wed_May_17_23:46:39_2023
    source          = /tmp/root/spack-stage/spack-stage-nwchem-7.2.0-oxtctbuhfuzyfaoziquq6bki22grib3g/spack-src
    nwchem branch   = 7.2.0
    nwchem revision = d0d141fd
    ga revision     = 5.8.0
    use scalapack   = T
    input           = inputs/ASP_GLU_1.nw
    prefix          = ASP_GLU_1.
    data base       = ./ASP_GLU_1.db
    status          = startup
    nproc           =        8
    time left       =     -1s



           Memory information
           ------------------

    heap     =   26214396 doubles =    200.0 Mbytes
    stack    =   26214401 doubles =    200.0 Mbytes
    global   =   52428800 doubles =    400.0 Mbytes (distinct from heap & stack)
    total    =  104857597 doubles =    800.0 Mbytes
    verify   = yes
    hardfail = no 


           Directory information
           ---------------------

  0 permanent = .
  0 scratch   = .




                                NWChem Input Module
                                -------------------



 Scaling coordinates for geometry "geometry" by  1.889725989
 (inverse scale =  0.529177249)

 C1  symmetry detected

          ------
          auto-z
          ------
  no constraints, skipping    0.0000000000000000     
  no constraints, skipping    0.0000000000000000     


                             Geometry "geometry" -> ""
                             -------------------------

 Output coordinates in angstroms (scale by  1.889725989 to convert to a.u.)

  No.       Tag          Charge          X              Y              Z
 ---- ---------------- ---------- -------------- -------------- --------------
    1 H                    1.0000    -0.95794620     5.56807989     0.18678316
    2 C                    6.0000    -1.08297225     4.97969063     1.09275257
    3 H                    1.0000    -1.86242519     5.40492440     1.72022635
    4 H                    1.0000    -0.14080345     4.93999062     1.63694267
    5 C                    6.0000    -1.46936268     3.57086056     0.71153181
    6 O                    8.0000    -2.52560582     3.09858634     1.11522536
    7 N                    7.0000    -0.61618726     2.93987074    -0.08339181
    8 H                    1.0000     0.23073655     3.42093879    -0.37308060
    9 C                    6.0000    -0.66201289     1.52323733    -0.45863546
   10 H                    1.0000    -1.69654197     1.22530500    -0.63174205
   11 C                    6.0000     0.12197203     1.34114266    -1.77258492
   12 H                    1.0000     0.12844799     0.28654418    -2.04995493
   13 H                    1.0000    -0.40261642     1.87952375    -2.56384958
   14 C                    6.0000     1.56295923     1.87014047    -1.70140749
   15 O                    8.0000     1.72822256     3.11224427    -1.62165673
   16 O                    8.0000     2.48872806     1.02880583    -1.75084519
   17 C                    6.0000    -0.08878630     0.59940879     0.63842748
   18 O                    8.0000     0.53579834     1.04264165     1.60497425
   19 N                    7.0000    -0.27946354    -0.71352557     0.48211194
   20 H                    1.0000    -0.84997026    -1.03804949    -0.30219113
   21 C                    6.0000     0.31614755    -1.74496213     1.34091988
   22 H                    1.0000     0.24489578    -1.38983819     2.36833954
   23 C                    6.0000    -0.51183182    -3.04485562     1.25143192
   24 H                    1.0000    -0.12118585    -3.72824089     2.00732429
   25 H                    1.0000    -1.54538335    -2.83515813     1.53126794
   26 C                    6.0000    -0.48553955    -3.78419297    -0.10165123
   27 H                    1.0000     0.45698424    -3.59346062    -0.61863679
   28 H                    1.0000    -0.52273523    -4.85597130     0.10866682
   29 C                    6.0000    -1.66588245    -3.42210435    -1.01986497
   30 O                    8.0000    -2.33004453    -4.36706920    -1.50582810
   31 O                    8.0000    -1.89974145    -2.20956603    -1.23318117
   32 C                    6.0000     1.82292339    -1.99788532     1.09339932
   33 O                    8.0000     2.43075619    -2.83728936     1.75800081
   34 N                    7.0000     2.46943155    -1.30297922     0.16379580
   35 H                    1.0000     2.00152926    -0.57417543    -0.36335738
   36 H                    1.0000     3.44995646    -1.46368259     0.02622275

      Atomic Mass 
      ----------- 

      H                  1.007825
      C                 12.000000
      O                 15.994910
      N                 14.003070


 Effective nuclear repulsion energy (a.u.)    1780.6943999424

            Nuclear Dipole moment (a.u.) 
            ----------------------------
        X                 Y               Z
 ---------------- ---------------- ----------------
    -0.0000000000     0.0000000000     0.0000000000



                                Z-matrix (autoz)
                                -------- 

 Units are Angstrom for bonds and degrees for angles

      Type          Name      I     J     K     L     M      Value
      ----------- --------  ----- ----- ----- ----- ----- ----------
    1 Stretch                  1     2                       1.08748
    2 Stretch                  2     3                       1.08724
    3 Stretch                  2     4                       1.08876
    4 Stretch                  2     5                       1.50978
    5 Stretch                  5     6                       1.22542
    6 Stretch                  5     7                       1.32588
    7 Stretch                  7     8                       1.01618
    8 Stretch                  7     9                       1.46621
    9 Stretch                  9    10                       1.09040
   10 Stretch                  9    11                       1.54086
   11 Stretch                  9    17                       1.54454
   12 Stretch                 11    12                       1.09048
   13 Stretch                 11    13                       1.09140
   14 Stretch                 11    14                       1.53667
   15 Stretch                 14    15                       1.25559
   16 Stretch                 14    16                       1.25193
   17 Stretch                 17    18                       1.23320
   18 Stretch                 17    19                       1.33589
   19 Stretch                 19    20                       1.02270
   20 Stretch                 19    21                       1.46839
   21 Stretch                 21    22                       1.08939
   22 Stretch                 21    23                       1.54379
   23 Stretch                 21    32                       1.54778
   24 Stretch                 23    24                       1.09133
   25 Stretch                 23    25                       1.09110
   26 Stretch                 23    26                       1.54212
   27 Stretch                 26    27                       1.09179
   28 Stretch                 26    28                       1.09285
   29 Stretch                 26    29                       1.53865
   30 Stretch                 29    30                       1.25309
   31 Stretch                 29    31                       1.25317
   32 Stretch                 32    33                       1.23116
   33 Stretch                 32    34                       1.32854
   34 Stretch                 34    35                       1.01389
   35 Stretch                 34    36                       1.00309
   36 Bend                     1     2     3               110.58549
   37 Bend                     1     2     4               109.67224
   38 Bend                     1     2     5               108.90184
   39 Bend                     2     5     6               119.80430
   40 Bend                     2     5     7               115.51742
   41 Bend                     3     2     4               110.25403
   42 Bend                     3     2     5               109.09960
   43 Bend                     4     2     5               108.27923
   44 Bend                     5     7     8               118.81076
   45 Bend                     5     7     9               126.38022
   46 Bend                     6     5     7               124.66230
   47 Bend                     7     9    10               109.52853
   48 Bend                     7     9    11               108.45254
   49 Bend                     7     9    17               112.61407
   50 Bend                     8     7     9               114.23570
   51 Bend                     9    11    12               109.52437
   52 Bend                     9    11    13               108.38391
   53 Bend                     9    11    14               113.38674
   54 Bend                     9    17    18               121.98486
   55 Bend                     9    17    19               116.85696
   56 Bend                    10     9    11               108.36438
   57 Bend                    10     9    17               107.54462
   58 Bend                    11     9    17               110.25333
   59 Bend                    11    14    15               117.83473
   60 Bend                    11    14    16               117.40346
   61 Bend                    12    11    13               107.18806
   62 Bend                    12    11    14               109.82414
   63 Bend                    13    11    14               108.33029
   64 Bend                    15    14    16               124.74953
   65 Bend                    17    19    20               118.76557
   66 Bend                    17    19    21               124.33474
   67 Bend                    18    17    19               121.14771
   68 Bend                    19    21    22               107.22247
   69 Bend                    19    21    23               109.87719
   70 Bend                    19    21    32               114.59050
   71 Bend                    20    19    21               116.86604
   72 Bend                    21    23    24               107.16569
   73 Bend                    21    23    25               109.35058
   74 Bend                    21    23    26               116.44910
   75 Bend                    21    32    33               120.37882
   76 Bend                    21    32    34               120.01083
   77 Bend                    22    21    23               107.10195
   78 Bend                    22    21    32               105.53124
   79 Bend                    23    21    32               112.04027
   80 Bend                    23    26    27               110.26965
   81 Bend                    23    26    28               107.50237
   82 Bend                    23    26    29               113.43511
   83 Bend                    24    23    25               106.36652
   84 Bend                    24    23    26               107.54235
   85 Bend                    25    23    26               109.47050
   86 Bend                    26    29    30               117.42354
   87 Bend                    26    29    31               118.19265
   88 Bend                    27    26    28               106.96809
   89 Bend                    27    26    29               109.78904
   90 Bend                    28    26    29               108.63443
   91 Bend                    30    29    31               124.38380
   92 Bend                    32    34    35               121.01162
   93 Bend                    32    34    36               119.19945
   94 Bend                    33    32    34               119.60958
   95 Bend                    35    34    36               119.66739
   96 Torsion                  1     2     5     6        -120.85653
   97 Torsion                  1     2     5     7          57.75628
   98 Torsion                  2     5     7     8           0.77300
   99 Torsion                  2     5     7     9         171.55825
  100 Torsion                  3     2     5     6          -0.06845
  101 Torsion                  3     2     5     7         178.54436
  102 Torsion                  4     2     5     6         119.94469
  103 Torsion                  4     2     5     7         -61.44250
  104 Torsion                  5     7     9    10          39.72871
  105 Torsion                  5     7     9    11         157.81203
  106 Torsion                  5     7     9    17         -79.89014
  107 Torsion                  6     5     7     8         179.30955
  108 Torsion                  6     5     7     9          -9.90520
  109 Torsion                  7     9    11    12         178.04886
  110 Torsion                  7     9    11    13         -65.31981
  111 Torsion                  7     9    11    14          54.99811
  112 Torsion                  7     9    17    18         -11.46036
  113 Torsion                  7     9    17    19         169.70430
  114 Torsion                  8     7     9    10        -149.12285
  115 Torsion                  8     7     9    11         -31.03952
  116 Torsion                  8     7     9    17          91.25831
  117 Torsion                  9    11    14    15         -69.10800
  118 Torsion                  9    11    14    16         112.10566
  119 Torsion                  9    17    19    20          -4.75823
  120 Torsion                  9    17    19    21         173.06172
  121 Torsion                 10     9    11    12         -63.13030
  122 Torsion                 10     9    11    13          53.50103
  123 Torsion                 10     9    11    14         173.81895
  124 Torsion                 10     9    17    18        -132.22267
  125 Torsion                 10     9    17    19          48.94199
  126 Torsion                 11     9    17    18         109.81681
  127 Torsion                 11     9    17    19         -69.01853
  128 Torsion                 12    11     9    17          54.32442
  129 Torsion                 12    11    14    15         168.00650
  130 Torsion                 12    11    14    16         -10.77985
  131 Torsion                 13    11     9    17         170.95574
  132 Torsion                 13    11    14    15          51.24034
  133 Torsion                 13    11    14    16        -127.54601
  134 Torsion                 14    11     9    17         -68.72633
  135 Torsion                 17    19    21    22          41.75412
  136 Torsion                 17    19    21    23         157.82314
  137 Torsion                 17    19    21    32         -74.99935
  138 Torsion                 18    17    19    20         176.39602
  139 Torsion                 18    17    19    21          -5.78403
  140 Torsion                 19    21    23    24        -172.00688
  141 Torsion                 19    21    23    25         -57.10563
  142 Torsion                 19    21    23    26          67.59473
  143 Torsion                 19    21    32    33         179.73863
  144 Torsion                 19    21    32    34           0.05936
  145 Torsion                 20    19    21    22        -140.38811
  146 Torsion                 20    19    21    23         -24.31908
  147 Torsion                 20    19    21    32         102.85842
  148 Torsion                 21    23    26    27          28.66350
  149 Torsion                 21    23    26    28         144.93764
  150 Torsion                 21    23    26    29         -94.93973
  151 Torsion                 21    32    34    35           2.79892
  152 Torsion                 21    32    34    36         178.77737
  153 Torsion                 22    21    23    24         -55.86190
  154 Torsion                 22    21    23    25          59.03935
  155 Torsion                 22    21    23    26        -176.26029
  156 Torsion                 22    21    32    33          62.01954
  157 Torsion                 22    21    32    34        -117.65973
  158 Torsion                 23    21    32    33         -54.19878
  159 Torsion                 23    21    32    34         126.12195
  160 Torsion                 23    26    29    30        -128.73642
  161 Torsion                 23    26    29    31          51.30061
  162 Torsion                 24    23    21    32          59.40276
  163 Torsion                 24    23    26    27         -91.53344
  164 Torsion                 24    23    26    28          24.74070
  165 Torsion                 24    23    26    29         144.86333
  166 Torsion                 25    23    21    32         174.30401
  167 Torsion                 25    23    26    27         153.30277
  168 Torsion                 25    23    26    28         -90.42310
  169 Torsion                 25    23    26    29          29.69954
  170 Torsion                 26    23    21    32         -60.99563
  171 Torsion                 27    26    29    30         107.39798
  172 Torsion                 27    26    29    31         -72.56499
  173 Torsion                 28    26    29    30          -9.25867
  174 Torsion                 28    26    29    31         170.77836
  175 Torsion                 33    32    34    35        -176.88283
  176 Torsion                 33    32    34    36          -0.90438


            XYZ format geometry
            -------------------
    36
 geometry
 H                    -0.95794620     5.56807989     0.18678316
 C                    -1.08297225     4.97969063     1.09275257
 H                    -1.86242519     5.40492440     1.72022635
 H                    -0.14080345     4.93999062     1.63694267
 C                    -1.46936268     3.57086056     0.71153181
 O                    -2.52560582     3.09858634     1.11522536
 N                    -0.61618726     2.93987074    -0.08339181
 H                     0.23073655     3.42093879    -0.37308060
 C                    -0.66201289     1.52323733    -0.45863546
 H                    -1.69654197     1.22530500    -0.63174205
 C                     0.12197203     1.34114266    -1.77258492
 H                     0.12844799     0.28654418    -2.04995493
 H                    -0.40261642     1.87952375    -2.56384958
 C                     1.56295923     1.87014047    -1.70140749
 O                     1.72822256     3.11224427    -1.62165673
 O                     2.48872806     1.02880583    -1.75084519
 C                    -0.08878630     0.59940879     0.63842748
 O                     0.53579834     1.04264165     1.60497425
 N                    -0.27946354    -0.71352557     0.48211194
 H                    -0.84997026    -1.03804949    -0.30219113
 C                     0.31614755    -1.74496213     1.34091988
 H                     0.24489578    -1.38983819     2.36833954
 C                    -0.51183182    -3.04485562     1.25143192
 H                    -0.12118585    -3.72824089     2.00732429
 H                    -1.54538335    -2.83515813     1.53126794
 C                    -0.48553955    -3.78419297    -0.10165123
 H                     0.45698424    -3.59346062    -0.61863679
 H                    -0.52273523    -4.85597130     0.10866682
 C                    -1.66588245    -3.42210435    -1.01986497
 O                    -2.33004453    -4.36706920    -1.50582810
 O                    -1.89974145    -2.20956603    -1.23318117
 C                     1.82292339    -1.99788532     1.09339932
 O                     2.43075619    -2.83728936     1.75800081
 N                     2.46943155    -1.30297922     0.16379580
 H                     2.00152926    -0.57417543    -0.36335738
 H                     3.44995646    -1.46368259     0.02622275

 ==============================================================================
                                internuclear distances
 ------------------------------------------------------------------------------
       center one      |      center two      | atomic units |  angstroms
 ------------------------------------------------------------------------------
    2 C                |   1 H                |     2.05504  |     1.08748
    3 H                |   2 C                |     2.05459  |     1.08724
    4 H                |   2 C                |     2.05746  |     1.08876
    5 C                |   2 C                |     2.85307  |     1.50978
    6 O                |   5 C                |     2.31571  |     1.22542
    7 N                |   5 C                |     2.50555  |     1.32588
    8 H                |   7 N                |     1.92031  |     1.01618
    9 C                |   7 N                |     2.77073  |     1.46621
   10 H                |   9 C                |     2.06056  |     1.09040
   11 C                |   9 C                |     2.91181  |     1.54086
   12 H                |  11 C                |     2.06071  |     1.09048
   13 H                |  11 C                |     2.06244  |     1.09140
   14 C                |  11 C                |     2.90388  |     1.53667
   15 O                |  14 C                |     2.37271  |     1.25559
   16 O                |  14 C                |     2.36581  |     1.25193
   17 C                |   9 C                |     2.91875  |     1.54454
   18 O                |  17 C                |     2.33040  |     1.23320
   19 N                |  17 C                |     2.52446  |     1.33589
   20 H                |  19 N                |     1.93263  |     1.02270
   21 C                |  19 N                |     2.77485  |     1.46839
   22 H                |  21 C                |     2.05866  |     1.08939
   23 C                |  21 C                |     2.91734  |     1.54379
   24 H                |  23 C                |     2.06231  |     1.09133
   25 H                |  23 C                |     2.06189  |     1.09110
   26 C                |  23 C                |     2.91419  |     1.54212
   27 H                |  26 C                |     2.06318  |     1.09179
   28 H                |  26 C                |     2.06519  |     1.09285
   29 C                |  26 C                |     2.90762  |     1.53865
   30 O                |  29 C                |     2.36799  |     1.25309
   31 O                |  29 C                |     2.36815  |     1.25317
   32 C                |  21 C                |     2.92487  |     1.54778
   33 O                |  32 C                |     2.32656  |     1.23116
   34 N                |  32 C                |     2.51058  |     1.32854
   35 H                |  34 N                |     1.91598  |     1.01389
   36 H                |  34 N                |     1.89556  |     1.00309
 ------------------------------------------------------------------------------
                         number of included internuclear distances:         35
 ==============================================================================



 ==============================================================================
                                 internuclear angles
 ------------------------------------------------------------------------------
        center 1       |       center 2       |       center 3       |  degrees
 ------------------------------------------------------------------------------
    1 H                |   2 C                |   3 H                |   110.59
    1 H                |   2 C                |   4 H                |   109.67
    1 H                |   2 C                |   5 C                |   108.90
    3 H                |   2 C                |   4 H                |   110.25
    3 H                |   2 C                |   5 C                |   109.10
    4 H                |   2 C                |   5 C                |   108.28
    2 C                |   5 C                |   6 O                |   119.80
    2 C                |   5 C                |   7 N                |   115.52
    6 O                |   5 C                |   7 N                |   124.66
    5 C                |   7 N                |   8 H                |   118.81
    5 C                |   7 N                |   9 C                |   126.38
    8 H                |   7 N                |   9 C                |   114.24
    7 N                |   9 C                |  10 H                |   109.53
    7 N                |   9 C                |  11 C                |   108.45
    7 N                |   9 C                |  17 C                |   112.61
   10 H                |   9 C                |  11 C                |   108.36
   10 H                |   9 C                |  17 C                |   107.54
   11 C                |   9 C                |  17 C                |   110.25
    9 C                |  11 C                |  12 H                |   109.52
    9 C                |  11 C                |  13 H                |   108.38
    9 C                |  11 C                |  14 C                |   113.39
   12 H                |  11 C                |  13 H                |   107.19
   12 H                |  11 C                |  14 C                |   109.82
   13 H                |  11 C                |  14 C                |   108.33
   11 C                |  14 C                |  15 O                |   117.83
   11 C                |  14 C                |  16 O                |   117.40
   15 O                |  14 C                |  16 O                |   124.75
    9 C                |  17 C                |  18 O                |   121.98
    9 C                |  17 C                |  19 N                |   116.86
   18 O                |  17 C                |  19 N                |   121.15
   17 C                |  19 N                |  20 H                |   118.77
   17 C                |  19 N                |  21 C                |   124.33
   20 H                |  19 N                |  21 C                |   116.87
   19 N                |  21 C                |  22 H                |   107.22
   19 N                |  21 C                |  23 C                |   109.88
   19 N                |  21 C                |  32 C                |   114.59
   22 H                |  21 C                |  23 C                |   107.10
   22 H                |  21 C                |  32 C                |   105.53
   23 C                |  21 C                |  32 C                |   112.04
   21 C                |  23 C                |  24 H                |   107.17
   21 C                |  23 C                |  25 H                |   109.35
   21 C                |  23 C                |  26 C                |   116.45
   24 H                |  23 C                |  25 H                |   106.37
   24 H                |  23 C                |  26 C                |   107.54
   25 H                |  23 C                |  26 C                |   109.47
   23 C                |  26 C                |  27 H                |   110.27
   23 C                |  26 C                |  28 H                |   107.50
   23 C                |  26 C                |  29 C                |   113.44
   27 H                |  26 C                |  28 H                |   106.97
   27 H                |  26 C                |  29 C                |   109.79
   28 H                |  26 C                |  29 C                |   108.63
   26 C                |  29 C                |  30 O                |   117.42
   26 C                |  29 C                |  31 O                |   118.19
   30 O                |  29 C                |  31 O                |   124.38
   21 C                |  32 C                |  33 O                |   120.38
   21 C                |  32 C                |  34 N                |   120.01
   33 O                |  32 C                |  34 N                |   119.61
   32 C                |  34 N                |  35 H                |   121.01
   32 C                |  34 N                |  36 H                |   119.20
   35 H                |  34 N                |  36 H                |   119.67
 ------------------------------------------------------------------------------
                            number of included internuclear angles:         60
 ==============================================================================



  library name resolved from: environment
  library file name is: </opt/rit/el9/20230413/app/linux-rhel9-x86_64_v3/gcc-11.2.1/nwchem-7.2.0-oxtctbuhfuzyfaoziquq6bki22grib3g/share/nwchem/libraries/>
  


 Summary of "ao basis" -> "" (cartesian)
 ------------------------------------------------------------------------------
       Tag                 Description            Shells   Functions and Types
 ---------------- ------------------------------  ------  ---------------------
 *                        aug-cc-pvdz                 on all atoms 


                      Basis "ao basis" -> "ao basis" (cartesian)
                      -----
  H (Hydrogen)
  ------------
            Exponent  Coefficients 
       -------------- ---------------------------------------------------------
  1 S  1.30100000E+01  0.019685
  1 S  1.96200000E+00  0.137977
  1 S  4.44600000E-01  0.478148

  2 S  1.22000000E-01  1.000000

  3 S  2.97400000E-02  1.000000

  4 P  7.27000000E-01  1.000000

  5 P  1.41000000E-01  1.000000

  C (Carbon)
  ----------
            Exponent  Coefficients 
       -------------- ---------------------------------------------------------
  1 S  6.66500000E+03  0.000692
  1 S  1.00000000E+03  0.005329
  1 S  2.28000000E+02  0.027077
  1 S  6.47100000E+01  0.101718
  1 S  2.10600000E+01  0.274740
  1 S  7.49500000E+00  0.448564
  1 S  2.79700000E+00  0.285074
  1 S  5.21500000E-01  0.015204

  2 S  6.66500000E+03 -0.000146
  2 S  1.00000000E+03 -0.001154
  2 S  2.28000000E+02 -0.005725
  2 S  6.47100000E+01 -0.023312
  2 S  2.10600000E+01 -0.063955
  2 S  7.49500000E+00 -0.149981
  2 S  2.79700000E+00 -0.127262
  2 S  5.21500000E-01  0.544529

  3 S  1.59600000E-01  1.000000

  4 S  4.69000000E-02  1.000000

  5 P  9.43900000E+00  0.038109
  5 P  2.00200000E+00  0.209480
  5 P  5.45600000E-01  0.508557

  6 P  1.51700000E-01  1.000000

  7 P  4.04100000E-02  1.000000

  8 D  5.50000000E-01  1.000000

  9 D  1.51000000E-01  1.000000

  O (Oxygen)
  ----------
            Exponent  Coefficients 
       -------------- ---------------------------------------------------------
  1 S  1.17200000E+04  0.000710
  1 S  1.75900000E+03  0.005470
  1 S  4.00800000E+02  0.027837
  1 S  1.13700000E+02  0.104800
  1 S  3.70300000E+01  0.283062
  1 S  1.32700000E+01  0.448719
  1 S  5.02500000E+00  0.270952
  1 S  1.01300000E+00  0.015458

  2 S  1.17200000E+04 -0.000160
  2 S  1.75900000E+03 -0.001263
  2 S  4.00800000E+02 -0.006267
  2 S  1.13700000E+02 -0.025716
  2 S  3.70300000E+01 -0.070924
  2 S  1.32700000E+01 -0.165411
  2 S  5.02500000E+00 -0.116955
  2 S  1.01300000E+00  0.557368

  3 S  3.02300000E-01  1.000000

  4 S  7.89600000E-02  1.000000

  5 P  1.77000000E+01  0.043018
  5 P  3.85400000E+00  0.228913
  5 P  1.04600000E+00  0.508728

  6 P  2.75300000E-01  1.000000

  7 P  6.85600000E-02  1.000000

  8 D  1.18500000E+00  1.000000

  9 D  3.32000000E-01  1.000000

  N (Nitrogen)
  ------------
            Exponent  Coefficients 
       -------------- ---------------------------------------------------------
  1 S  9.04600000E+03  0.000700
  1 S  1.35700000E+03  0.005389
  1 S  3.09300000E+02  0.027406
  1 S  8.77300000E+01  0.103207
  1 S  2.85600000E+01  0.278723
  1 S  1.02100000E+01  0.448540
  1 S  3.83800000E+00  0.278238
  1 S  7.46600000E-01  0.015440

  2 S  9.04600000E+03 -0.000153
  2 S  1.35700000E+03 -0.001208
  2 S  3.09300000E+02 -0.005992
  2 S  8.77300000E+01 -0.024544
  2 S  2.85600000E+01 -0.067459
  2 S  1.02100000E+01 -0.158078
  2 S  3.83800000E+00 -0.121831
  2 S  7.46600000E-01  0.549003

  3 S  2.24800000E-01  1.000000

  4 S  6.12400000E-02  1.000000

  5 P  1.35500000E+01  0.039919
  5 P  2.91700000E+00  0.217169
  5 P  7.97300000E-01  0.510319

  6 P  2.18500000E-01  1.000000

  7 P  5.61100000E-02  1.000000

  8 D  8.17000000E-01  1.000000

  9 D  2.30000000E-01  1.000000



 Summary of "ao basis" -> "ao basis" (cartesian)
 ------------------------------------------------------------------------------
       Tag                 Description            Shells   Functions and Types
 ---------------- ------------------------------  ------  ---------------------
 H                        aug-cc-pvdz                5        9   3s2p
 C                        aug-cc-pvdz                9       25   4s3p2d
 O                        aug-cc-pvdz                9       25   4s3p2d
 N                        aug-cc-pvdz                9       25   4s3p2d


                                 NWChem SCF Module
                                 -----------------



  ao basis        = "ao basis"
  functions       =   660
  atoms           =    36
  closed shells   =    79
  open shells     =     0
  charge          =   0.00
  wavefunction    = RHF 
  input vectors   = atomic
  output vectors  = ./ASP_GLU_1.movecs
  use symmetry    = F
  symmetry adapt  = F


 Summary of "ao basis" -> "ao basis" (cartesian)
 ------------------------------------------------------------------------------
       Tag                 Description            Shells   Functions and Types
 ---------------- ------------------------------  ------  ---------------------
 H                        aug-cc-pvdz                5        9   3s2p
 C                        aug-cc-pvdz                9       25   4s3p2d
 O                        aug-cc-pvdz                9       25   4s3p2d
 N                        aug-cc-pvdz                9       25   4s3p2d



 Forming initial guess at       0.7s


 !! The overlap matrix has   6 vectors deemed linearly dependent with
    eigenvalues:
 2.30D-06 4.06D-06 5.65D-06 8.61D-06 9.21D-06 9.83D-06


      Superposition of Atomic Density Guess
      -------------------------------------

 Sum of atomic energies:       -1108.10309820

      Non-variational initial energy
      ------------------------------

 Total energy =   -1120.044362
 1-e energy   =   -5054.099455
 2-e energy   =    2153.360693
 HOMO         =      -0.317902
 LUMO         =      -0.305309


 Starting SCF solution at     263.6s



 ----------------------------------------------
         Quadratically convergent ROHF

 Convergence threshold     :          1.000E-04
 Maximum no. of iterations :           30
 Final Fock-matrix accuracy:          1.000E-10
 ----------------------------------------------


              iter       energy          gnorm     gmax       time
             ----- ------------------- --------- --------- --------
                 1    -1111.7188813026  3.55D+00  2.09D-01    536.9
  Setting level-shift to   2.86 to force positive preconditioner
                 2    -1112.3964696527  1.14D+00  7.86D-02    812.0
  ga_iter_lsolve: convergence stagnant ... aborting solve

 Disabled NR: increased maxiter to  40

                 3    -1112.4735376275  6.17D-01  6.24D-02   2131.9
                 4    -1112.4981451036  3.59D-01  2.75D-02   2679.3
                 5    -1112.5060217919  1.40D-01  2.57D-02   3227.7
                 6    -1112.5111381120  2.00D-01  2.15D-02   3775.1
                 7    -1112.5153269876  1.37D-01  1.36D-02   4321.6
                 8    -1112.5173693632  7.75D-02  1.11D-02   4594.9
                 9    -1112.5183231019  6.24D-02  8.25D-03   4868.1
                10    -1112.5190310008  5.62D-02  1.02D-02   5416.5
                11    -1112.5194393737  4.99D-02  8.66D-03   5963.0
                12    -1112.5197606270  3.82D-02  5.31D-03   6237.3
                13    -1112.5201725713  4.91D-02  4.99D-03   6784.6
                14    -1112.5205121759  4.79D-02  6.74D-03   7331.1
                15    -1112.5207033934  3.39D-02  3.79D-03   7879.6
                16    -1112.5208527547  3.19D-02  6.46D-03   8153.8
                17    -1112.5209712489  2.60D-02  1.62D-03   8428.2
                18    -1112.5210590406  1.68D-02  2.51D-03   8975.6
                19    -1112.5211026017  1.63D-02  1.37D-03   9524.0
                20    -1112.5211267768  1.06D-02  1.58D-03  10070.4
                21    -1112.5211382612  9.44D-03  9.61D-04  10617.8
                22    -1112.5211463867  6.82D-03  3.96D-04  10891.2
                23    -1112.5211500747  4.02D-03  4.78D-04  11165.4
                24    -1112.5211516127  2.47D-03  3.29D-04  11438.6
                25    -1112.5211526024  2.45D-03  3.69D-04  11986.0
                26    -1112.5211532617  3.00D-03  4.05D-04  12259.2
                27    -1112.5211543058  2.71D-03  2.34D-04  12533.4
                28    -1112.5211552100  2.31D-03  2.46D-04  13079.7
                29    -1112.5211556669  2.26D-03  3.46D-04  13352.9
                30    -1112.5211560041  1.88D-03  1.24D-04  13899.3
                31    -1112.5211563468  1.24D-03  1.51D-04  14172.4
                32    -1112.5211565078  9.80D-04  1.93D-04  14718.7
                33    -1112.5211566147  9.37D-04  9.89D-05  15265.2
                34    -1112.5211567052  7.65D-04  9.12D-05  15811.6
                35    -1112.5211567583  7.88D-04  9.67D-05  16358.0
                36    -1112.5211568054  5.08D-04  1.02D-04  16906.2
                37    -1112.5211568455  4.52D-04  5.30D-05  17179.4
                38    -1112.5211568769  5.08D-04  8.83D-05  17452.5
                39    -1112.5211569122  4.72D-04  8.76D-05  17725.8
                40    -1112.5211569389  3.82D-04  3.88D-05  17999.0

      Calculation failed to converge
      ------------------------------



       Final RHF  results 
       ------------------ 

         Total SCF energy =  -1112.521156938857
      One-electron energy =  -5061.667256846997
      Two-electron energy =   2168.451699965769
 Nuclear repulsion energy =   1780.694399942370

        Time for solution =  17736.6s


             Final eigenvalues
             -----------------

              1      
    1  -20.6374
    2  -20.6326
    3  -20.6237
    4  -20.6161
    5  -20.6028
    6  -20.5792
    7  -20.5461
    8  -15.7224
    9  -15.6340
   10  -15.6281
   11  -11.4355
   12  -11.4160
   13  -11.4156
   14  -11.4129
   15  -11.3727
   16  -11.3686
   17  -11.3638
   18  -11.3130
   19  -11.3044
   20  -11.2984
   21  -11.2501
   22   -1.4795
   23   -1.4746
   24   -1.4635
   25   -1.4319
   26   -1.4045
   27   -1.3709
   28   -1.3566
   29   -1.3366
   30   -1.2788
   31   -1.2581
   32   -1.1471
   33   -1.1147
   34   -1.0468
   35   -1.0180
   36   -0.9653
   37   -0.9244
   38   -0.8947
   39   -0.8548
   40   -0.8340
   41   -0.8029
   42   -0.7993
   43   -0.7884
   44   -0.7650
   45   -0.7530
   46   -0.7280
   47   -0.7165
   48   -0.7076
   49   -0.7013
   50   -0.6979
   51   -0.6879
   52   -0.6764
   53   -0.6687
   54   -0.6630
   55   -0.6557
   56   -0.6461
   57   -0.6285
   58   -0.6258
   59   -0.6170
   60   -0.6103
   61   -0.5987
   62   -0.5908
   63   -0.5828
   64   -0.5797
   65   -0.5648
   66   -0.5561
   67   -0.5517
   68   -0.5364
   69   -0.5095
   70   -0.4989
   71   -0.4880
   72   -0.4861
   73   -0.4801
   74   -0.4744
   75   -0.4530
   76   -0.4397
   77   -0.4261
   78   -0.4173
   79   -0.3803
   80   -0.2806
   81    0.0256
   82    0.0316
   83    0.0349
   84    0.0406
   85    0.0455
   86    0.0521
   87    0.0570
   88    0.0611
   89    0.0632

                       ROHF Final Molecular Orbital Analysis
                       -------------------------------------

 Vector   22  Occ=2.000000D+00  E=-1.479522D+00
              MO Center= -1.7D+00, -2.8D+00, -1.0D+00, r^2= 3.1D+00
   Bfn.  Coefficient  Atom+Function         Bfn.  Coefficient  Atom+Function  
  ----- ------------  ---------------      ----- ------------  ---------------
   545      0.303014  31 O  s               544      0.283582  31 O  s         
   520      0.247408  30 O  s               494      0.243095  29 C  s         
   519      0.227233  30 O  s         

 Vector   23  Occ=2.000000D+00  E=-1.474565D+00
              MO Center=  1.1D-01,  3.5D-01,  8.6D-01, r^2= 3.6D+00
   Bfn.  Coefficient  Atom+Function         Bfn.  Coefficient  Atom+Function  
  ----- ------------  ---------------      ----- ------------  ---------------
   316      0.341814  18 O  s               315      0.322138  18 O  s         
   290      0.229869  17 C  s         

 Vector   24  Occ=2.000000D+00  E=-1.463501D+00
              MO Center=  1.9D+00,  1.9D+00, -1.6D+00, r^2= 1.6D+00
   Bfn.  Coefficient  Atom+Function         Bfn.  Coefficient  Atom+Function  
  ----- ------------  ---------------      ----- ------------  ---------------
   266      0.296383  16 O  s               265      0.275804  16 O  s         
   241      0.274428  15 O  s               215      0.255337  14 C  s         
   240      0.248685  15 O  s               217     -0.234493  14 C  s         

 Vector   25  Occ=2.000000D+00  E=-1.431917D+00
              MO Center=  2.2D+00, -2.4D+00,  1.4D+00, r^2= 1.1D+00
   Bfn.  Coefficient  Atom+Function         Bfn.  Coefficient  Atom+Function  
  ----- ------------  ---------------      ----- ------------  ---------------
   595      0.385446  33 O  s               594      0.351191  33 O  s         
   569      0.247264  32 C  s         

 Vector   26  Occ=2.000000D+00  E=-1.404460D+00
              MO Center= -1.9D+00,  3.2D+00,  8.3D-01, r^2= 1.1D+00
   Bfn.  Coefficient  Atom+Function         Bfn.  Coefficient  Atom+Function  
  ----- ------------  ---------------      ----- ------------  ---------------
    80      0.347246   6 O  s                79      0.343662   6 O  s         
    54      0.247229   5 C  s         

 Vector   27  Occ=2.000000D+00  E=-1.370877D+00
              MO Center= -2.0D+00, -3.4D+00, -1.3D+00, r^2= 1.7D+00
   Bfn.  Coefficient  Atom+Function         Bfn.  Coefficient  Atom+Function  
  ----- ------------  ---------------      ----- ------------  ---------------
   520      0.369330  30 O  s               519      0.330851  30 O  s         
   545     -0.295525  31 O  s               544     -0.278501  31 O  s         
   498     -0.242332  29 C  py        

 Vector   28  Occ=2.000000D+00  E=-1.356573D+00
              MO Center=  1.9D+00,  2.1D+00, -1.7D+00, r^2= 1.5D+00
   Bfn.  Coefficient  Atom+Function         Bfn.  Coefficient  Atom+Function  
  ----- ------------  ---------------      ----- ------------  ---------------
   241      0.343267  15 O  s               240      0.315742  15 O  s         
   266     -0.314509  16 O  s               265     -0.295706  16 O  s         
   219      0.242711  14 C  py        

 Vector   29  Occ=2.000000D+00  E=-1.336618D+00
              MO Center= -5.8D-02, -5.3D-01,  6.9D-01, r^2= 2.2D+00
   Bfn.  Coefficient  Atom+Function         Bfn.  Coefficient  Atom+Function  
  ----- ------------  ---------------      ----- ------------  ---------------
   341      0.360608  19 N  s               340      0.341112  19 N  s         
   316     -0.247183  18 O  s               315     -0.197856  18 O  s         
   375     -0.169591  21 C  s               294     -0.154649  17 C  py        

 Vector   30  Occ=2.000000D+00  E=-1.278846D+00
              MO Center= -8.7D-01,  2.8D+00,  8.1D-02, r^2= 2.1D+00
   Bfn.  Coefficient  Atom+Function         Bfn.  Coefficient  Atom+Function  
  ----- ------------  ---------------      ----- ------------  ---------------
   105      0.409052   7 N  s               104      0.330090   7 N  s         
    80     -0.221231   6 O  s                79     -0.190377   6 O  s         
   138      0.165639   9 C  s                57      0.164056   5 C  px        

 Vector   31  Occ=2.000000D+00  E=-1.258111D+00
              MO Center=  2.3D+00, -1.5D+00,  4.7D-01, r^2= 1.5D+00
   Bfn.  Coefficient  Atom+Function         Bfn.  Coefficient  Atom+Function  
  ----- ------------  ---------------      ----- ------------  ---------------
   620      0.396284  34 N  s               619      0.370122  34 N  s         
   375     -0.242876  21 C  s               595     -0.213985  33 O  s         
   594     -0.177573  33 O  s               643      0.162555  35 H  s         
   574     -0.157365  32 C  pz              652      0.156210  36 H  s         

 Vector   32  Occ=2.000000D+00  E=-1.147149D+00
              MO Center= -2.1D-01, -1.4D+00,  5.7D-01, r^2= 6.3D+00
   Bfn.  Coefficient  Atom+Function         Bfn.  Coefficient  Atom+Function  
  ----- ------------  ---------------      ----- ------------  ---------------
   408      0.216551  23 C  s               374      0.200031  21 C  s         
   451      0.152481  26 C  s         

 Vector   33  Occ=2.000000D+00  E=-1.114748D+00
              MO Center= -3.4D-01,  5.4D-01, -4.4D-01, r^2= 8.3D+00
   Bfn.  Coefficient  Atom+Function         Bfn.  Coefficient  Atom+Function  
  ----- ------------  ---------------      ----- ------------  ---------------
   172      0.226341  11 C  s               138      0.192652   9 C  s         
   173      0.175912  11 C  s         

 Vector   34  Occ=2.000000D+00  E=-1.046814D+00
              MO Center= -1.0D-01, -2.1D+00,  2.6D-01, r^2= 5.8D+00
   Bfn.  Coefficient  Atom+Function         Bfn.  Coefficient  Atom+Function  
  ----- ------------  ---------------      ----- ------------  ---------------
   451      0.245085  26 C  s               374     -0.222407  21 C  s         

 Vector   35  Occ=2.000000D+00  E=-1.018042D+00
              MO Center= -8.1D-01,  3.9D+00,  3.9D-01, r^2= 4.9D+00
   Bfn.  Coefficient  Atom+Function         Bfn.  Coefficient  Atom+Function  
  ----- ------------  ---------------      ----- ------------  ---------------
    11      0.309351   2 C  s               172      0.159783  11 C  s         
    58      0.152199   5 C  py        

 Vector   36  Occ=2.000000D+00  E=-9.653421D-01
              MO Center= -2.5D-01,  1.2D+00, -1.9D-01, r^2= 8.3D+00
   Bfn.  Coefficient  Atom+Function         Bfn.  Coefficient  Atom+Function  
  ----- ------------  ---------------      ----- ------------  ---------------
   138      0.187625   9 C  s               146      0.171434   9 C  pz        
   172     -0.165739  11 C  s               178     -0.161236  11 C  px        
   173     -0.159802  11 C  s         

 Vector   37  Occ=2.000000D+00  E=-9.243751D-01
              MO Center=  4.4D-02, -2.5D+00,  6.1D-01, r^2= 5.1D+00
   Bfn.  Coefficient  Atom+Function         Bfn.  Coefficient  Atom+Function  
  ----- ------------  ---------------      ----- ------------  ---------------
   375      0.276842  21 C  s               408     -0.225601  23 C  s         
   380      0.212481  21 C  px              452      0.173650  26 C  s         

 Vector   38  Occ=2.000000D+00  E=-8.946595D-01
              MO Center= -3.0D-01, -5.8D-02,  3.9D-01, r^2= 5.4D+00
   Bfn.  Coefficient  Atom+Function         Bfn.  Coefficient  Atom+Function  
  ----- ------------  ---------------      ----- ------------  ---------------
   344      0.306491  19 N  py              291      0.249527  17 C  s         
   364     -0.226259  20 H  s               365     -0.222187  20 H  s         
   375      0.210426  21 C  s               453     -0.200580  26 C  s         
   294     -0.180921  17 C  py              290      0.175866  17 C  s         
   316     -0.157578  18 O  s               452     -0.154243  26 C  s         

 Vector   39  Occ=2.000000D+00  E=-8.548409D-01
              MO Center=  7.5D-01, -7.5D-01,  3.8D-01, r^2= 7.6D+00
   Bfn.  Coefficient  Atom+Function         Bfn.  Coefficient  Atom+Function  
  ----- ------------  ---------------      ----- ------------  ---------------
   380      0.337092  21 C  px              575      0.253873  32 C  px        
   291     -0.239656  17 C  s               345     -0.195119  19 N  pz        
   569      0.194526  32 C  s               587     -0.168442  32 C  dxx       
   595     -0.166487  33 O  s               364      0.159680  20 H  s         
   624      0.155616  34 N  pz              652     -0.154978  36 H  s         

 Vector   40  Occ=2.000000D+00  E=-8.340091D-01
              MO Center= -3.8D-01,  2.0D+00,  5.9D-02, r^2= 7.1D+00
   Bfn.  Coefficient  Atom+Function         Bfn.  Coefficient  Atom+Function  
  ----- ------------  ---------------      ----- ------------  ---------------
   107      0.274081   7 N  px              128      0.243148   8 H  s         
   105      0.203761   7 N  s                55     -0.191934   5 C  s         
   109     -0.178096   7 N  pz               54     -0.176229   5 C  s         
    80      0.161033   6 O  s               129      0.154165   8 H  s         

 Vector   41  Occ=2.000000D+00  E=-8.029403D-01
              MO Center=  6.3D-01, -1.5D+00, -8.5D-02, r^2= 8.1D+00
   Bfn.  Coefficient  Atom+Function         Bfn.  Coefficient  Atom+Function  
  ----- ------------  ---------------      ----- ------------  ---------------
   643      0.227807  35 H  s               623      0.197146  34 N  py        
   570     -0.186223  32 C  s               572     -0.184873  32 C  px        
   624     -0.177390  34 N  pz              548      0.168747  31 O  py        
   644      0.158020  35 H  s         

 Vector   42  Occ=2.000000D+00  E=-7.992573D-01
              MO Center=  6.7D-01,  1.1D+00, -8.4D-01, r^2= 5.9D+00
   Bfn.  Coefficient  Atom+Function         Bfn.  Coefficient  Atom+Function  
  ----- ------------  ---------------      ----- ------------  ---------------
   215      0.212734  14 C  s               291     -0.199552  17 C  s         
   146      0.181336   9 C  pz              175      0.181383  11 C  px        
   266     -0.179029  16 O  s               294      0.168580  17 C  py        
   143      0.161215   9 C  pz              241     -0.155255  15 O  s         
   244     -0.151056  15 O  py        

 Vector   43  Occ=2.000000D+00  E=-7.883898D-01
              MO Center= -4.9D-01, -1.4D+00, -6.6D-01, r^2= 1.0D+01
   Bfn.  Coefficient  Atom+Function         Bfn.  Coefficient  Atom+Function  
  ----- ------------  ---------------      ----- ------------  ---------------
   548      0.225130  31 O  py              545      0.207729  31 O  s         
   494     -0.198606  29 C  s               520      0.165734  30 O  s         

 Vector   44  Occ=2.000000D+00  E=-7.649749D-01
              MO Center=  1.0D+00, -2.3D-01,  1.1D-01, r^2= 8.8D+00
   Bfn.  Coefficient  Atom+Function         Bfn.  Coefficient  Atom+Function  
  ----- ------------  ---------------      ----- ------------  ---------------
   622      0.244209  34 N  px              652      0.210739  36 H  s         
   643     -0.191340  35 H  s               571     -0.177899  32 C  s         
   644     -0.170153  35 H  s               575     -0.155289  32 C  px        
   145     -0.150491   9 C  py        

 Vector   45  Occ=2.000000D+00  E=-7.530321D-01
              MO Center=  5.8D-01, -2.5D-01,  7.8D-01, r^2= 6.3D+00
   Bfn.  Coefficient  Atom+Function         Bfn.  Coefficient  Atom+Function  
  ----- ------------  ---------------      ----- ------------  ---------------
   320      0.236412  18 O  pz              316      0.197352  18 O  s         
   344      0.168936  19 N  py              294     -0.166014  17 C  py        
   379      0.164765  21 C  pz              163      0.153051  10 H  s         

 Vector   46  Occ=2.000000D+00  E=-7.279600D-01
              MO Center= -5.6D-01, -2.8D+00, -1.4D-01, r^2= 5.3D+00
   Bfn.  Coefficient  Atom+Function         Bfn.  Coefficient  Atom+Function  
  ----- ------------  ---------------      ----- ------------  ---------------
   548      0.238019  31 O  py              454     -0.201186  26 C  px        
   499      0.167546  29 C  pz        

 Vector   47  Occ=2.000000D+00  E=-7.164820D-01
              MO Center=  3.5D-01,  1.2D+00, -1.3D-01, r^2= 8.6D+00
   Bfn.  Coefficient  Atom+Function         Bfn.  Coefficient  Atom+Function  
  ----- ------------  ---------------      ----- ------------  ---------------
   145      0.165093   9 C  py              142      0.154207   9 C  py        
    55      0.151241   5 C  s               295      0.150047  17 C  pz        

 Vector   48  Occ=2.000000D+00  E=-7.076155D-01
              MO Center= -1.3D+00, -2.7D+00, -9.1D-01, r^2= 8.5D+00
   Bfn.  Coefficient  Atom+Function         Bfn.  Coefficient  Atom+Function  
  ----- ------------  ---------------      ----- ------------  ---------------
   523     -0.250717  30 O  py              520      0.232332  30 O  s         
   547      0.215409  31 O  px              498      0.207381  29 C  py        
   497      0.176137  29 C  px              455      0.166140  26 C  py        
   484     -0.150626  28 H  s         

 Vector   49  Occ=2.000000D+00  E=-7.012837D-01
              MO Center=  1.8D-01,  5.0D-01, -6.2D-01, r^2= 1.1D+01
   Bfn.  Coefficient  Atom+Function         Bfn.  Coefficient  Atom+Function  
  ----- ------------  ---------------      ----- ------------  ---------------
   218      0.221620  14 C  px              269      0.220780  16 O  py        
   320     -0.185453  18 O  pz              316     -0.156590  18 O  s         

 Vector   50  Occ=2.000000D+00  E=-6.979303D-01
              MO Center= -3.4D-01,  2.3D+00, -4.3D-02, r^2= 1.0D+01
   Bfn.  Coefficient  Atom+Function         Bfn.  Coefficient  Atom+Function  
  ----- ------------  ---------------      ----- ------------  ---------------
    80      0.188326   6 O  s                83     -0.185212   6 O  py        
   244      0.175642  15 O  py              219     -0.173953  14 C  py        
    18      0.162531   2 C  py               82     -0.158584   6 O  px        
   268     -0.157063  16 O  px        

 Vector   51  Occ=2.000000D+00  E=-6.878672D-01
              MO Center=  8.7D-01,  8.9D-02, -1.8D-01, r^2= 1.1D+01
   Bfn.  Coefficient  Atom+Function         Bfn.  Coefficient  Atom+Function  
  ----- ------------  ---------------      ----- ------------  ---------------
   219      0.175013  14 C  py              244     -0.171498  15 O  py        
   268      0.158748  16 O  px        

 Vector   52  Occ=2.000000D+00  E=-6.763933D-01
              MO Center=  6.1D-02,  1.2D+00, -2.4D-03, r^2= 1.2D+01
   Bfn.  Coefficient  Atom+Function         Bfn.  Coefficient  Atom+Function  
  ----- ------------  ---------------      ----- ------------  ---------------
   219      0.198315  14 C  py              244     -0.194555  15 O  py        
   268      0.183933  16 O  px               83     -0.155544   6 O  py        
   173     -0.154537  11 C  s                80      0.151322   6 O  s         

 Vector   53  Occ=2.000000D+00  E=-6.686719D-01
              MO Center= -1.8D-01, -3.7D-01, -1.6D-01, r^2= 1.1D+01
   Bfn.  Coefficient  Atom+Function         Bfn.  Coefficient  Atom+Function  
  ----- ------------  ---------------      ----- ------------  ---------------
   453      0.184813  26 C  s               163      0.156387  10 H  s         

 Vector   54  Occ=2.000000D+00  E=-6.630325D-01
              MO Center= -4.3D-02, -9.2D-01,  2.0D-01, r^2= 1.1D+01
   Bfn.  Coefficient  Atom+Function         Bfn.  Coefficient  Atom+Function  
  ----- ------------  ---------------      ----- ------------  ---------------
   598      0.159107  33 O  py        

 Vector   55  Occ=2.000000D+00  E=-6.556800D-01
              MO Center= -4.1D-02,  4.8D-01,  2.9D-02, r^2= 1.1D+01
   Bfn.  Coefficient  Atom+Function         Bfn.  Coefficient  Atom+Function  
  ----- ------------  ---------------      ----- ------------  ---------------
   163      0.184704  10 H  s               177      0.161191  11 C  pz        
   320     -0.157952  18 O  pz              139     -0.154935   9 C  s         
   293      0.151100  17 C  px        

 Vector   56  Occ=2.000000D+00  E=-6.461450D-01
              MO Center=  1.1D+00, -1.3D+00,  6.4D-01, r^2= 1.0D+01
   Bfn.  Coefficient  Atom+Function         Bfn.  Coefficient  Atom+Function  
  ----- ------------  ---------------      ----- ------------  ---------------
   598      0.219186  33 O  py              599     -0.207177  33 O  pz        
   595     -0.188681  33 O  s               573     -0.175924  32 C  py        
   380     -0.158210  21 C  px              572      0.157908  32 C  px        

 Vector   57  Occ=2.000000D+00  E=-6.285113D-01
              MO Center= -7.2D-01, -1.2D+00, -2.7D-01, r^2= 1.1D+01
   Bfn.  Coefficient  Atom+Function         Bfn.  Coefficient  Atom+Function  
  ----- ------------  ---------------      ----- ------------  ---------------
   547     -0.205787  31 O  px              173      0.191589  11 C  s         
   452      0.179617  26 C  s               139     -0.165812   9 C  s         
   350      0.158104  19 N  py              409     -0.155029  23 C  s         
   399      0.152690  22 H  s               432     -0.152685  24 H  s         
   497     -0.153002  29 C  px              413     -0.151361  23 C  pz        

 Vector   58  Occ=2.000000D+00  E=-6.257519D-01
              MO Center= -3.2D-01,  2.4D+00,  4.5D-01, r^2= 1.1D+01
   Bfn.  Coefficient  Atom+Function         Bfn.  Coefficient  Atom+Function  
  ----- ------------  ---------------      ----- ------------  ---------------
   291     -0.192083  17 C  s                44      0.182658   4 H  s         
    16      0.173887   2 C  pz                1     -0.164049   1 H  s         

 Vector   59  Occ=2.000000D+00  E=-6.169900D-01
              MO Center=  4.9D-01, -1.5D+00,  5.2D-01, r^2= 1.2D+01
   Bfn.  Coefficient  Atom+Function         Bfn.  Coefficient  Atom+Function  
  ----- ------------  ---------------      ----- ------------  ---------------
   571      0.193523  32 C  s               599      0.177681  33 O  pz        
   455      0.167753  26 C  py              573      0.163643  32 C  py        

 Vector   60  Occ=2.000000D+00  E=-6.103034D-01
              MO Center=  2.1D-01,  1.1D+00, -1.0D+00, r^2= 7.4D+00
   Bfn.  Coefficient  Atom+Function         Bfn.  Coefficient  Atom+Function  
  ----- ------------  ---------------      ----- ------------  ---------------
   197      0.352855  12 H  s               176     -0.300875  11 C  py        
   196      0.262920  12 H  s               205     -0.203218  13 H  s         
   206     -0.175838  13 H  s               217      0.167226  14 C  s         
   244     -0.165323  15 O  py              409      0.161776  23 C  s         
    55     -0.150694   5 C  s         

 Vector   61  Occ=2.000000D+00  E=-5.987269D-01
              MO Center=  1.3D-01,  5.8D-01, -3.8D-02, r^2= 1.2D+01
   Bfn.  Coefficient  Atom+Function         Bfn.  Coefficient  Atom+Function  
  ----- ------------  ---------------      ----- ------------  ---------------
   163      0.238184  10 H  s               173     -0.234180  11 C  s         
   409     -0.205234  23 C  s               245     -0.167453  15 O  pz        
   293      0.158902  17 C  px              197      0.157349  12 H  s         
   270     -0.153109  16 O  pz        

 Vector   62  Occ=2.000000D+00  E=-5.908038D-01
              MO Center= -1.2D+00,  3.0D+00,  6.5D-01, r^2= 6.2D+00
   Bfn.  Coefficient  Atom+Function         Bfn.  Coefficient  Atom+Function  
  ----- ------------  ---------------      ----- ------------  ---------------
    82      0.313802   6 O  px               58     -0.218526   5 C  py        
    57     -0.198607   5 C  px               85      0.169770   6 O  px        
   128      0.167872   8 H  s                84     -0.162349   6 O  pz        
   129      0.159896   8 H  s                80     -0.158647   6 O  s         
    44      0.157786   4 H  s                14      0.151772   2 C  px        

 Vector   63  Occ=2.000000D+00  E=-5.828198D-01
              MO Center=  4.1D-03, -2.3D+00,  7.3D-01, r^2= 7.3D+00
   Bfn.  Coefficient  Atom+Function         Bfn.  Coefficient  Atom+Function  
  ----- ------------  ---------------      ----- ------------  ---------------
   411      0.297886  23 C  px              441     -0.257101  25 H  s         
   442     -0.257563  25 H  s               433      0.219928  24 H  s         
   453      0.209637  26 C  s               598      0.179078  33 O  py        
   432      0.162425  24 H  s               524      0.160849  30 O  pz        
   572      0.159264  32 C  px        

 Vector   64  Occ=2.000000D+00  E=-5.797469D-01
              MO Center= -8.9D-02,  2.1D+00,  3.1D-02, r^2= 1.2D+01
   Bfn.  Coefficient  Atom+Function         Bfn.  Coefficient  Atom+Function  
  ----- ------------  ---------------      ----- ------------  ---------------
    35      0.214233   3 H  s                36      0.203224   3 H  s         
   375      0.186937  21 C  s                14     -0.181806   2 C  px        
   409     -0.178422  23 C  s               197     -0.174570  12 H  s         
   270      0.175220  16 O  pz              177     -0.173207  11 C  pz        
   141     -0.160738   9 C  px               16      0.158085   2 C  pz        

 Vector   65  Occ=2.000000D+00  E=-5.648422D-01
              MO Center= -6.4D-01,  3.1D+00,  3.5D-01, r^2= 9.8D+00
   Bfn.  Coefficient  Atom+Function         Bfn.  Coefficient  Atom+Function  
  ----- ------------  ---------------      ----- ------------  ---------------
    35      0.291041   3 H  s                36      0.250934   3 H  s         
    16      0.221214   2 C  pz               13     -0.209755   2 C  s         
    14     -0.199234   2 C  px              300      0.185909  17 C  py        
   177      0.162530  11 C  pz               73     -0.161535   5 C  dxy       

 Vector   66  Occ=2.000000D+00  E=-5.561181D-01
              MO Center= -2.0D-01, -2.6D+00,  5.8D-01, r^2= 6.5D+00
   Bfn.  Coefficient  Atom+Function         Bfn.  Coefficient  Atom+Function  
  ----- ------------  ---------------      ----- ------------  ---------------
   485      0.265870  28 H  s               412      0.259904  23 C  py        
   378     -0.236228  21 C  py              455     -0.227353  26 C  py        
   484      0.195356  28 H  s               476     -0.192302  27 H  s         
   398     -0.179095  22 H  s               381     -0.167334  21 C  py        
   523     -0.160359  30 O  py              415      0.158515  23 C  py        

 Vector   67  Occ=2.000000D+00  E=-5.517316D-01
              MO Center= -4.4D-01, -3.0D+00,  2.7D-01, r^2= 5.4D+00
   Bfn.  Coefficient  Atom+Function         Bfn.  Coefficient  Atom+Function  
  ----- ------------  ---------------      ----- ------------  ---------------
   475      0.255998  27 H  s               456     -0.251838  26 C  pz        
   413      0.250412  23 C  pz              381      0.201558  21 C  py        
   454      0.176064  26 C  px              476      0.171885  27 H  s         
   375     -0.167397  21 C  s               432      0.151413  24 H  s         

 Vector   68  Occ=2.000000D+00  E=-5.364076D-01
              MO Center= -9.6D-01,  3.4D+00,  8.2D-01, r^2= 5.3D+00
   Bfn.  Coefficient  Atom+Function         Bfn.  Coefficient  Atom+Function  
  ----- ------------  ---------------      ----- ------------  ---------------
   319      0.223364  18 O  py               44      0.221878   4 H  s         
   109     -0.203293   7 N  pz                1     -0.193533   1 H  s         
    84     -0.194450   6 O  pz               16      0.186722   2 C  pz        
   112     -0.181598   7 N  pz                2     -0.179052   1 H  s         
   322      0.172617  18 O  py               45      0.165554   4 H  s         

 Vector   69  Occ=2.000000D+00  E=-5.094566D-01
              MO Center= -9.9D-02,  7.5D-01,  7.0D-01, r^2= 6.8D+00
   Bfn.  Coefficient  Atom+Function         Bfn.  Coefficient  Atom+Function  
  ----- ------------  ---------------      ----- ------------  ---------------
   319      0.364400  18 O  py              322      0.293581  18 O  py        
   173     -0.240527  11 C  s               320     -0.239684  18 O  pz        
   143     -0.186066   9 C  pz              323     -0.181135  18 O  pz        
   146     -0.178949   9 C  pz        

 Vector   70  Occ=2.000000D+00  E=-4.989259D-01
              MO Center= -1.4D+00, -2.7D+00, -6.9D-01, r^2= 4.9D+00
   Bfn.  Coefficient  Atom+Function         Bfn.  Coefficient  Atom+Function  
  ----- ------------  ---------------      ----- ------------  ---------------
   547      0.371894  31 O  px              550      0.298760  31 O  px        
   409      0.288592  23 C  s               523      0.257637  30 O  py        
   549      0.234465  31 O  pz              552      0.196455  31 O  pz        
   526      0.183817  30 O  py              452     -0.173140  26 C  s         
   476      0.172744  27 H  s               453     -0.157060  26 C  s         

 Vector   71  Occ=2.000000D+00  E=-4.879966D-01
              MO Center=  2.3D-01, -9.3D-01, -7.6D-01, r^2= 1.3D+01
   Bfn.  Coefficient  Atom+Function         Bfn.  Coefficient  Atom+Function  
  ----- ------------  ---------------      ----- ------------  ---------------
   524      0.258634  30 O  pz              268     -0.219137  16 O  px        
   375      0.200695  21 C  s               527      0.187875  30 O  pz        
    56     -0.185912   5 C  s               269     -0.186225  16 O  py        
   245     -0.177824  15 O  pz              547      0.168113  31 O  px        
   271     -0.165213  16 O  px              139     -0.160072   9 C  s         

 Vector   72  Occ=2.000000D+00  E=-4.861044D-01
              MO Center= -3.3D-01, -1.6D+00, -1.0D+00, r^2= 1.3D+01
   Bfn.  Coefficient  Atom+Function         Bfn.  Coefficient  Atom+Function  
  ----- ------------  ---------------      ----- ------------  ---------------
   524      0.297532  30 O  pz              527      0.222331  30 O  pz        
   268      0.203018  16 O  px              269      0.190079  16 O  py        
   523     -0.180830  30 O  py              272      0.158703  16 O  py        
   271      0.156998  16 O  px              245      0.154995  15 O  pz        
   453      0.154982  26 C  s         

 Vector   73  Occ=2.000000D+00  E=-4.800902D-01
              MO Center=  1.6D+00,  2.1D+00, -1.4D+00, r^2= 4.6D+00
   Bfn.  Coefficient  Atom+Function         Bfn.  Coefficient  Atom+Function  
  ----- ------------  ---------------      ----- ------------  ---------------
   243      0.489835  15 O  px              246      0.397899  15 O  px        
   269     -0.270669  16 O  py              206     -0.202222  13 H  s         
   272     -0.202604  16 O  py              139     -0.160397   9 C  s         

 Vector   74  Occ=2.000000D+00  E=-4.744318D-01
              MO Center=  1.3D+00, -2.7D-01,  2.5D-01, r^2= 1.0D+01
   Bfn.  Coefficient  Atom+Function         Bfn.  Coefficient  Atom+Function  
  ----- ------------  ---------------      ----- ------------  ---------------
   597      0.301173  33 O  px              600      0.244943  33 O  px        
   399     -0.223017  22 H  s               245      0.187380  15 O  pz        
   270     -0.181846  16 O  pz              318     -0.155094  18 O  px        
   319      0.151779  18 O  py        

 Vector   75  Occ=2.000000D+00  E=-4.529921D-01
              MO Center=  2.3D+00, -2.0D+00,  8.5D-01, r^2= 2.4D+00
   Bfn.  Coefficient  Atom+Function         Bfn.  Coefficient  Atom+Function  
  ----- ------------  ---------------      ----- ------------  ---------------
   599      0.319916  33 O  pz              623     -0.320112  34 N  py        
   626     -0.279607  34 N  py              624     -0.272736  34 N  pz        
   598      0.254465  33 O  py              602      0.249747  33 O  pz        
   627     -0.238410  34 N  pz              601      0.200540  33 O  py        
   399      0.161991  22 H  s         

 Vector   76  Occ=2.000000D+00  E=-4.397472D-01
              MO Center= -2.0D+00,  3.4D+00,  9.5D-01, r^2= 2.2D+00
   Bfn.  Coefficient  Atom+Function         Bfn.  Coefficient  Atom+Function  
  ----- ------------  ---------------      ----- ------------  ---------------
    83      0.459314   6 O  py               86      0.359313   6 O  py        
    84      0.297511   6 O  pz               13      0.283366   2 C  s         
    87      0.236903   6 O  pz              105      0.225039   7 N  s         
    64     -0.208553   5 C  py               18      0.201521   2 C  py        
    15      0.196981   2 C  py              300     -0.180747  17 C  py        

 Vector   77  Occ=2.000000D+00  E=-4.261099D-01
              MO Center= -5.4D-01,  1.2D+00,  5.7D-01, r^2= 1.0D+01
   Bfn.  Coefficient  Atom+Function         Bfn.  Coefficient  Atom+Function  
  ----- ------------  ---------------      ----- ------------  ---------------
   109      0.301065   7 N  pz              112      0.271470   7 N  pz        
    84     -0.216938   6 O  pz              597      0.212129  33 O  px        
   600      0.164423  33 O  px               87     -0.162346   6 O  pz        
   107      0.162555   7 N  px               83      0.160762   6 O  py        

 Vector   78  Occ=2.000000D+00  E=-4.172948D-01
              MO Center= -9.1D-03,  2.9D-01,  1.1D-01, r^2= 1.1D+01
   Bfn.  Coefficient  Atom+Function         Bfn.  Coefficient  Atom+Function  
  ----- ------------  ---------------      ----- ------------  ---------------
   109      0.206721   7 N  pz              346      0.193868  19 N  px        
   343      0.190797  19 N  px              112      0.182758   7 N  pz        
   597     -0.177248  33 O  px              318     -0.167119  18 O  px        

 Vector   79  Occ=2.000000D+00  E=-3.802823D-01
              MO Center= -1.5D-03, -5.4D-01, -1.4D+00, r^2= 1.3D+01
   Bfn.  Coefficient  Atom+Function         Bfn.  Coefficient  Atom+Function  
  ----- ------------  ---------------      ----- ------------  ---------------
   522      0.266075  30 O  px              549      0.261825  31 O  pz        
   245      0.232738  15 O  pz              270     -0.232781  16 O  pz        
   552      0.210981  31 O  pz              525      0.198413  30 O  px        
   248      0.193072  15 O  pz              273     -0.189655  16 O  pz        
   268     -0.163517  16 O  px              243     -0.150247  15 O  px        

 Vector   80  Occ=0.000000D+00  E=-2.806376D-01
              MO Center= -6.1D-02, -6.9D-01, -6.6D-01, r^2= 1.1D+01
   Bfn.  Coefficient  Atom+Function         Bfn.  Coefficient  Atom+Function  
  ----- ------------  ---------------      ----- ------------  ---------------
   549      0.244734  31 O  pz              522      0.220786  30 O  px        
   346      0.202204  19 N  px              343      0.196909  19 N  px        
   552      0.195792  31 O  pz              270      0.179206  16 O  pz        
   217      0.169492  14 C  s               245     -0.166313  15 O  pz        
   409     -0.165867  23 C  s               525      0.165005  30 O  px        

 Vector   81  Occ=0.000000D+00  E= 2.564894D-02
              MO Center= -8.9D-01, -1.6D+00,  1.5D-01, r^2= 3.4D+01
   Bfn.  Coefficient  Atom+Function         Bfn.  Coefficient  Atom+Function  
  ----- ------------  ---------------      ----- ------------  ---------------
   366      5.890483  20 H  s               496      4.690429  29 C  s         
   453     -3.423041  26 C  s               148      2.913190   9 C  py        
   217      2.723786  14 C  s               164     -2.318197  10 H  s         
   443     -2.299464  25 H  s               198     -2.228742  12 H  s         
   292      2.021279  17 C  s               645      1.983100  35 H  s         

 Vector   82  Occ=0.000000D+00  E= 3.164318D-02
              MO Center= -9.0D-01, -8.2D-01, -5.1D-02, r^2= 3.6D+01
   Bfn.  Coefficient  Atom+Function         Bfn.  Coefficient  Atom+Function  
  ----- ------------  ---------------      ----- ------------  ---------------
   621      3.031912  34 N  s               207      2.566927  13 H  s         
   400     -2.028733  22 H  s                56     -1.878159   5 C  s         
   443     -1.854703  25 H  s               477      1.847174  27 H  s         
   434     -1.789484  24 H  s               106      1.684553   7 N  s         
   580      1.664241  32 C  pz              410     -1.595377  23 C  s         

 Vector   83  Occ=0.000000D+00  E= 3.486074D-02
              MO Center=  5.1D-01, -1.7D-01, -4.6D-01, r^2= 4.5D+01
   Bfn.  Coefficient  Atom+Function         Bfn.  Coefficient  Atom+Function  
  ----- ------------  ---------------      ----- ------------  ---------------
   453      3.493626  26 C  s               621      3.441632  34 N  s         
   571     -3.121319  32 C  s               477      2.865718  27 H  s         
   496     -2.342841  29 C  s               376     -2.072120  21 C  s         
   580      2.020129  32 C  pz              654      1.961562  36 H  s         
   461      1.951506  26 C  py               64      1.936047   5 C  py        

 Vector   84  Occ=0.000000D+00  E= 4.059877D-02
              MO Center=  4.1D-01,  2.5D+00,  6.8D-01, r^2= 3.9D+01
   Bfn.  Coefficient  Atom+Function         Bfn.  Coefficient  Atom+Function  
  ----- ------------  ---------------      ----- ------------  ---------------
    64      3.936672   5 C  py              148      2.321504   9 C  py        
   453      2.256443  26 C  s                46     -2.163388   4 H  s         
   496     -1.974307  29 C  s               164      1.943048  10 H  s         
   400     -1.914478  22 H  s               207      1.870096  13 H  s         
   376      1.866670  21 C  s               385      1.803966  21 C  pz        

 Vector   85  Occ=0.000000D+00  E= 4.554766D-02
              MO Center=  1.1D-01, -1.9D+00,  1.1D+00, r^2= 4.6D+01
   Bfn.  Coefficient  Atom+Function         Bfn.  Coefficient  Atom+Function  
  ----- ------------  ---------------      ----- ------------  ---------------
   486      4.158061  28 H  s               453      3.633484  26 C  s         
   400     -3.500429  22 H  s               461      3.202716  26 C  py        
   496     -2.860506  29 C  s               385      2.719932  21 C  pz        
   571     -2.294045  32 C  s                64     -1.704762   5 C  py        
     3      1.663334   1 H  s               654     -1.613129  36 H  s         

 Vector   86  Occ=0.000000D+00  E= 5.212107D-02
              MO Center= -1.1D+00, -2.4D-02,  2.9D-01, r^2= 4.3D+01
   Bfn.  Coefficient  Atom+Function         Bfn.  Coefficient  Atom+Function  
  ----- ------------  ---------------      ----- ------------  ---------------
   434      3.797173  24 H  s               207      3.536445  13 H  s         
   443     -3.505962  25 H  s               198     -3.039262  12 H  s         
   164     -2.939841  10 H  s               477     -2.481560  27 H  s         
    37     -2.455386   3 H  s               496      2.406516  29 C  s         
   147     -2.368286   9 C  px              417     -2.232653  23 C  px        

 Vector   87  Occ=0.000000D+00  E= 5.701282D-02
              MO Center=  8.3D-01, -6.9D-02, -2.1D-01, r^2= 3.8D+01
   Bfn.  Coefficient  Atom+Function         Bfn.  Coefficient  Atom+Function  
  ----- ------------  ---------------      ----- ------------  ---------------
   198      4.215431  12 H  s               453     -4.119704  26 C  s         
   400      3.589569  22 H  s               621     -3.601358  34 N  s         
   164     -3.211794  10 H  s               410      2.751646  23 C  s         
   571      2.529773  32 C  s               443     -2.512713  25 H  s         
   654     -2.327638  36 H  s                46      2.250089   4 H  s         

 Vector   88  Occ=0.000000D+00  E= 6.106841D-02
              MO Center= -6.7D-01,  2.5D+00,  1.4D+00, r^2= 4.1D+01
   Bfn.  Coefficient  Atom+Function         Bfn.  Coefficient  Atom+Function  
[...]
   181      6.302878  11 C  px              342     -6.165991  19 N  s         
   645     -6.119186  35 H  s               149     -6.006116   9 C  pz        

 Vector  188  Occ=0.000000D+00  E= 4.213102D-01
              MO Center=  8.4D-02,  2.0D-02, -4.7D-01, r^2= 2.0D+01
   Bfn.  Coefficient  Atom+Function         Bfn.  Coefficient  Atom+Function  
  ----- ------------  ---------------      ----- ------------  ---------------
   496     13.925365  29 C  s                13    -10.475076   2 C  s         
   453     -9.638044  26 C  s               173     -9.330780  11 C  s         
   147     -8.289829   9 C  px              342      7.976573  19 N  s         
    64      7.842061   5 C  py              197      7.761403  12 H  s         
   148      7.672842   9 C  py              300      7.527218  17 C  py        

 Vector  189  Occ=0.000000D+00  E= 4.239895D-01
              MO Center=  9.1D-02,  1.3D+00,  3.1D-01, r^2= 2.4D+01
   Bfn.  Coefficient  Atom+Function         Bfn.  Coefficient  Atom+Function  
  ----- ------------  ---------------      ----- ------------  ---------------
   366     20.082262  20 H  s               571    -15.182917  32 C  s         
   383     11.830474  21 C  px              350     -9.533942  19 N  py        
    64      9.391887   5 C  py              174      8.693835  11 C  s         
   148      8.207863   9 C  py              453      8.000288  26 C  s         
   300      7.886912  17 C  py              376     -7.597665  21 C  s         

 Vector  190  Occ=0.000000D+00  E= 4.290219D-01
              MO Center= -2.4D-01,  3.9D-01,  3.0D-01, r^2= 2.5D+01
   Bfn.  Coefficient  Atom+Function         Bfn.  Coefficient  Atom+Function  
  ----- ------------  ---------------      ----- ------------  ---------------
   217     11.177301  14 C  s               571    -10.180856  32 C  s         
    56     -9.147042   5 C  s               385      6.447046  21 C  pz        
   148      6.377978   9 C  py              409     -5.748658  23 C  s         
   149      5.321229   9 C  pz               13     -4.780304   2 C  s         
     2      4.724675   1 H  s               350      4.619991  19 N  py        

 Vector  191  Occ=0.000000D+00  E= 4.321313D-01
              MO Center= -3.3D-01,  3.3D-01,  8.9D-02, r^2= 2.4D+01
   Bfn.  Coefficient  Atom+Function         Bfn.  Coefficient  Atom+Function  
  ----- ------------  ---------------      ----- ------------  ---------------
   366      8.494884  20 H  s               496     -8.497652  29 C  s         
   350     -7.283852  19 N  py              174      7.074858  11 C  s         
   383      6.909510  21 C  px              571     -6.734448  32 C  s         
   106     -6.674450   7 N  s               385      6.492761  21 C  pz        
   546      6.025138  31 O  s               299     -5.474422  17 C  px        

 Vector  192  Occ=0.000000D+00  E= 4.345608D-01
              MO Center= -6.9D-01,  3.8D-01,  2.1D-01, r^2= 2.2D+01
   Bfn.  Coefficient  Atom+Function         Bfn.  Coefficient  Atom+Function  
  ----- ------------  ---------------      ----- ------------  ---------------
    56     15.707434   5 C  s               453    -15.292606  26 C  s         
   148    -14.653986   9 C  py              149    -13.413795   9 C  pz        
   217    -13.079599  14 C  s               106     10.700026   7 N  s         
   384     -9.051717  21 C  py               12      8.142548   2 C  s         
   301      8.045694  17 C  pz              181      7.319291  11 C  px        

 Vector  193  Occ=0.000000D+00  E= 4.386898D-01
              MO Center=  3.0D-01,  1.5D+00,  2.7D-01, r^2= 2.8D+01
   Bfn.  Coefficient  Atom+Function         Bfn.  Coefficient  Atom+Function  
  ----- ------------  ---------------      ----- ------------  ---------------
   366     10.806078  20 H  s               300      9.450913  17 C  py        
    13     -8.855351   2 C  s               571      8.836012  32 C  s         
   453     -7.784529  26 C  s                 2      6.558055   1 H  s         
   217     -6.543343  14 C  s               114      6.425134   7 N  py        
   149     -5.484926   9 C  pz              376      5.510803  21 C  s         

 Vector  194  Occ=0.000000D+00  E= 4.435730D-01
              MO Center= -4.9D-01,  2.8D+00,  4.0D-01, r^2= 2.3D+01
   Bfn.  Coefficient  Atom+Function         Bfn.  Coefficient  Atom+Function  
  ----- ------------  ---------------      ----- ------------  ---------------
   571    -14.661768  32 C  s               148     14.474585   9 C  py        
   342     11.178107  19 N  s                13     -9.987324   2 C  s         
    56     -9.839197   5 C  s               410     -9.297326  23 C  s         
   217      9.172253  14 C  s               115      7.000069   7 N  pz        
   106      6.590251   7 N  s                64      6.023477   5 C  py        

 Vector  195  Occ=0.000000D+00  E= 4.445091D-01
              MO Center= -4.2D-01, -3.6D-01,  2.1D-01, r^2= 2.7D+01
   Bfn.  Coefficient  Atom+Function         Bfn.  Coefficient  Atom+Function  
  ----- ------------  ---------------      ----- ------------  ---------------
   366     15.460005  20 H  s               571     -9.747008  32 C  s         
   300     -8.735573  17 C  py              299      7.170548  17 C  px        
   521      6.406562  30 O  s               217     -6.178383  14 C  s         
   496     -5.383883  29 C  s               148      4.572257   9 C  py        
   174      4.581551  11 C  s               114     -4.503267   7 N  py        

 Vector  196  Occ=0.000000D+00  E= 4.498191D-01
              MO Center=  3.1D-01, -8.6D-01,  2.7D-01, r^2= 1.9D+01
   Bfn.  Coefficient  Atom+Function         Bfn.  Coefficient  Atom+Function  
  ----- ------------  ---------------      ----- ------------  ---------------
   571     -8.259676  32 C  s               106      7.701641   7 N  s         
   148     -6.719128   9 C  py              217     -6.404942  14 C  s         
   299      6.001016  17 C  px              453     -5.908204  26 C  s         
   300     -5.441779  17 C  py              384     -5.255997  21 C  py        
   149     -5.084995   9 C  pz              301      5.081499  17 C  pz        

 Vector  197  Occ=0.000000D+00  E= 4.553283D-01
              MO Center=  1.7D-01,  1.0D+00, -2.8D-01, r^2= 2.5D+01
   Bfn.  Coefficient  Atom+Function         Bfn.  Coefficient  Atom+Function  
  ----- ------------  ---------------      ----- ------------  ---------------
   496     14.787730  29 C  s                56    -11.867659   5 C  s         
   453    -11.882272  26 C  s                13     11.477614   2 C  s         
   292    -10.075491  17 C  s               197      9.340226  12 H  s         
   106      8.458015   7 N  s               173     -7.800784  11 C  s         
   571      6.929421  32 C  s               149      5.933239   9 C  pz        

 Vector  198  Occ=0.000000D+00  E= 4.585310D-01
              MO Center=  4.1D-01,  6.5D-02, -2.8D-01, r^2= 2.0D+01
   Bfn.  Coefficient  Atom+Function         Bfn.  Coefficient  Atom+Function  
  ----- ------------  ---------------      ----- ------------  ---------------
   300     12.290012  17 C  py               56    -10.700034   5 C  s         
   645     -9.796125  35 H  s               217      9.585742  14 C  s         
   366      9.482063  20 H  s               571      8.340139  32 C  s         
   301     -7.667372  17 C  pz              292     -7.301162  17 C  s         
   351      6.744367  19 N  pz              453      6.641591  26 C  s         

 Vector  199  Occ=0.000000D+00  E= 4.613199D-01
              MO Center=  4.7D-01, -1.0D+00,  1.1D-01, r^2= 2.2D+01
   Bfn.  Coefficient  Atom+Function         Bfn.  Coefficient  Atom+Function  
  ----- ------------  ---------------      ----- ------------  ---------------
   571     19.065153  32 C  s                13     12.417942   2 C  s         
   453    -12.413648  26 C  s               496     11.937649  29 C  s         
   366    -10.148906  20 H  s               621     -9.195840  34 N  s         
   292     -9.115767  17 C  s               148     -8.732249   9 C  py        
   174     -8.288494  11 C  s               384      7.670899  21 C  py        

 Vector  200  Occ=0.000000D+00  E= 4.674285D-01
              MO Center= -2.3D-01, -1.2D-01,  3.8D-01, r^2= 2.3D+01
   Bfn.  Coefficient  Atom+Function         Bfn.  Coefficient  Atom+Function  
  ----- ------------  ---------------      ----- ------------  ---------------
   571    -17.832359  32 C  s               453     16.669844  26 C  s         
    13    -14.548692   2 C  s               410    -13.910865  23 C  s         
   496     13.643598  29 C  s                64     11.111158   5 C  py        
   621     10.691318  34 N  s               148     10.147676   9 C  py        
   174      9.723570  11 C  s               217     -9.735526  14 C  s         

 Vector  201  Occ=0.000000D+00  E= 4.685098D-01
              MO Center= -4.2D-01, -8.6D-01,  2.4D-02, r^2= 2.1D+01
   Bfn.  Coefficient  Atom+Function         Bfn.  Coefficient  Atom+Function  
  ----- ------------  ---------------      ----- ------------  ---------------
   300    -13.233725  17 C  py               13     12.366388   2 C  s         
   217     12.289734  14 C  s               301      9.940432  17 C  pz        
   384     -9.853968  21 C  py              571     -7.578277  32 C  s         
    64     -7.525770   5 C  py              351     -6.789571  19 N  pz        
    12      6.527390   2 C  s               366     -5.919690  20 H  s         

 Vector  202  Occ=0.000000D+00  E= 4.748907D-01
              MO Center=  8.4D-02, -9.2D-01, -6.4D-02, r^2= 1.8D+01
   Bfn.  Coefficient  Atom+Function         Bfn.  Coefficient  Atom+Function  
  ----- ------------  ---------------      ----- ------------  ---------------
   453     28.577022  26 C  s               376    -12.694754  21 C  s         
   419     10.622686  23 C  pz               13     10.455899   2 C  s         
   571    -10.339483  32 C  s               383     10.215503  21 C  px        
   410    -10.107656  23 C  s               217      9.106378  14 C  s         
   366     -8.882086  20 H  s               301      8.554658  17 C  pz        

 Vector  203  Occ=0.000000D+00  E= 4.756091D-01
              MO Center=  7.2D-02,  5.8D-02,  9.4D-02, r^2= 2.1D+01
   Bfn.  Coefficient  Atom+Function         Bfn.  Coefficient  Atom+Function  
  ----- ------------  ---------------      ----- ------------  ---------------
   453     16.074777  26 C  s               571    -15.264208  32 C  s         
   410    -13.960758  23 C  s               350    -13.890123  19 N  py        
   300     10.547712  17 C  py              342      9.775882  19 N  s         
   149      8.488226   9 C  pz              299     -7.998855  17 C  px        
   621      7.190603  34 N  s               301     -6.708708  17 C  pz        

 Vector  204  Occ=0.000000D+00  E= 4.843398D-01
              MO Center= -1.1D-02,  2.4D-01,  2.8D-02, r^2= 2.1D+01
   Bfn.  Coefficient  Atom+Function         Bfn.  Coefficient  Atom+Function  
  ----- ------------  ---------------      ----- ------------  ---------------
   300     24.187038  17 C  py              571     17.508920  32 C  s         
   217    -17.236879  14 C  s               453     15.097691  26 C  s         
   148    -11.958435   9 C  py              149    -11.867705   9 C  pz        
   366    -11.248630  20 H  s               173      9.831056  11 C  s         
   147      9.502142   9 C  px              342     -8.939700  19 N  s         

 Vector  205  Occ=0.000000D+00  E= 4.879028D-01
              MO Center= -2.0D-02, -8.7D-01,  1.5D-01, r^2= 2.0D+01
   Bfn.  Coefficient  Atom+Function         Bfn.  Coefficient  Atom+Function  
  ----- ------------  ---------------      ----- ------------  ---------------
   496     19.291475  29 C  s               453    -15.098143  26 C  s         
   217     12.028277  14 C  s               148     10.523356   9 C  py        
   410     -9.729128  23 C  s               299     -9.598052  17 C  px        
   350     -8.437249  19 N  py               13     -7.195343   2 C  s         
   106     -7.102633   7 N  s               300      6.702332  17 C  py        

 Vector  206  Occ=0.000000D+00  E= 4.891216D-01
              MO Center= -2.2D-01,  4.0D-01,  1.3D-01, r^2= 2.1D+01
   Bfn.  Coefficient  Atom+Function         Bfn.  Coefficient  Atom+Function  
  ----- ------------  ---------------      ----- ------------  ---------------
    56     16.193820   5 C  s               217    -14.565827  14 C  s         
   300     12.723538  17 C  py              148    -12.648697   9 C  py        
   149    -11.780096   9 C  pz              181      8.150464  11 C  px        
   173      7.898303  11 C  s               206     -7.498444  13 H  s         
   571      7.252634  32 C  s               197     -6.486595  12 H  s         

 Vector  207  Occ=0.000000D+00  E= 4.980754D-01
              MO Center=  3.0D-01,  7.2D-01, -2.8D-01, r^2= 1.9D+01
   Bfn.  Coefficient  Atom+Function         Bfn.  Coefficient  Atom+Function  
  ----- ------------  ---------------      ----- ------------  ---------------
   300     15.949016  17 C  py              217    -14.477675  14 C  s         
    13    -13.095924   2 C  s               384     11.373605  21 C  py        
   301     -8.645593  17 C  pz               56      7.672918   5 C  s         
   366      6.940527  20 H  s               267      6.128504  16 O  s         
   571      6.125611  32 C  s               496      5.939512  29 C  s         

 Vector  208  Occ=0.000000D+00  E= 5.010192D-01
              MO Center=  7.9D-02, -5.5D-01, -5.9D-02, r^2= 2.1D+01
   Bfn.  Coefficient  Atom+Function         Bfn.  Coefficient  Atom+Function  
  ----- ------------  ---------------      ----- ------------  ---------------
   453     27.537530  26 C  s               571    -24.602514  32 C  s         
   410    -13.672752  23 C  s               292     11.090108  17 C  s         
    13    -10.055933   2 C  s               174      9.467823  11 C  s         
   621      8.546191  34 N  s               376     -8.054959  21 C  s         
    64      7.467847   5 C  py              485     -7.407389  28 H  s         


 center of mass
 --------------
 x =   0.00989950 y =  -0.02016393 z =  -0.01664419

 moments of inertia (a.u.)
 ------------------
        9609.476765645695           0.000000000001           0.000000000004
           0.000000000001        4392.885022984047           0.000000000002
           0.000000000004           0.000000000002       10693.235664790674

  Mulliken analysis of the total density
  --------------------------------------

    Atom       Charge   Shell Charges
 -----------   ------   -------------------------------------------------------
    1 H    1     0.83   0.76  0.10 -0.00  0.03 -0.06
    2 C    6     6.35   2.01  0.66  0.28  0.17  2.07  1.00 -0.00  0.06  0.10
    3 H    1     1.05   0.76  0.29  0.02  0.03 -0.05
    4 H    1     0.86   0.76  0.13  0.00  0.03 -0.06
    5 C    6     5.19   2.01  0.68  0.14 -0.02  1.90  0.29 -0.04  0.24 -0.01
    6 O    8     8.71   2.01  0.82  1.00  0.17  2.78  1.81  0.13  0.01 -0.02
    7 N    7     7.59   2.01  0.72  0.81 -0.05  2.45  1.42  0.15  0.05  0.02
    8 H    1     0.89   0.73  0.20  0.00  0.06 -0.11
    9 C    6     6.41   2.01  0.66  0.22 -0.02  1.99  1.26  0.01  0.14  0.16
   10 H    1     1.03   0.76  0.27 -0.01  0.03 -0.01
   11 C    6     6.16   2.01  0.67  0.58 -0.13  2.03  0.72  0.09  0.09  0.11
   12 H    1     0.96   0.77  0.23 -0.03  0.03 -0.05
   13 H    1     0.97   0.76  0.25 -0.02  0.03 -0.06
   14 C    6     4.32   2.01  0.68  0.02 -0.24  1.86 -0.01 -0.03  0.26 -0.23
   15 O    8     8.76   2.01  0.83  1.02  0.19  2.74  1.83  0.15  0.01 -0.02
   16 O    8     8.69   2.01  0.83  1.01  0.17  2.74  1.80  0.15  0.01 -0.03
   17 C    6     4.76   2.01  0.68  0.04  0.08  1.90  0.16  0.04  0.22 -0.38
   18 O    8     8.71   2.01  0.83  1.04  0.17  2.74  1.81  0.11  0.01 -0.01
   19 N    7     7.14   2.01  0.74  0.76 -0.11  2.38  1.40 -0.08  0.05 -0.01
   20 H    1     0.91   0.71  0.30  0.02  0.06 -0.18
   21 C    6     6.32   2.01  0.67  0.02  0.04  1.99  1.26  0.13  0.13  0.08
   22 H    1     0.99   0.76  0.21 -0.01  0.03  0.01
   23 C    6     5.96   2.01  0.66  0.26  0.05  2.03  0.74  0.02  0.09  0.11
   24 H    1     1.08   0.77  0.34  0.01  0.03 -0.06
   25 H    1     1.08   0.78  0.35 -0.01  0.03 -0.06
   26 C    6     5.86   2.01  0.66  0.24 -0.19  2.03  0.93  0.02  0.09  0.07
   27 H    1     0.99   0.77  0.23 -0.02  0.03 -0.01
   28 H    1     1.08   0.77  0.35 -0.00  0.03 -0.06
   29 C    6     4.68   2.01  0.68  0.09 -0.13  1.87  0.11 -0.03  0.26 -0.17
   30 O    8     8.61   2.01  0.84  1.04  0.16  2.72  1.74  0.12  0.01 -0.02
   31 O    8     8.68   2.01  0.83  0.99  0.15  2.75  1.83  0.14  0.01 -0.03
   32 C    6     4.44   2.01  0.68  0.07 -0.07  1.88 -0.20  0.00  0.23 -0.16
   33 O    8     8.80   2.01  0.82  1.05  0.19  2.77  1.83  0.12  0.01 -0.00
   34 N    7     7.21   2.01  0.72  0.84 -0.16  2.46  1.21  0.10  0.04 -0.01
   35 H    1     0.89   0.74  0.26 -0.01  0.06 -0.15
   36 H    1     1.01   0.75  0.24 -0.01  0.06 -0.03

       Multipole analysis of the density wrt the origin
       ------------------------------------------------

     L   x y z        total         open         nuclear
     -   - - -        -----         ----         -------
     0   0 0 0     -0.000000      0.000000    158.000000

     1   1 0 0      0.013971      0.000000     -0.000000
     1   0 1 0     -0.178539      0.000000      0.000000
     1   0 0 1      0.019162      0.000000      0.000000

     2   2 0 0   -112.765840      0.000000   1417.414648
     2   1 1 0     -4.359868      0.000000    -31.875360
     2   1 0 1     -2.365723      0.000000     -8.180222
     2   0 2 0    -97.264742      0.000000   4270.874756
     2   0 1 1     -4.588972      0.000000     -3.411238
     2   0 0 2    -97.484751      0.000000    879.889992

 ------------------------------------------------------------------------
 scf energy failed                                                                                  0
 ------------------------------------------------------------------------
 ------------------------------------------------------------------------
  current input line : 
    51: task scf energy
 ------------------------------------------------------------------------
 ------------------------------------------------------------------------
 This type of error is most commonly associated with calculations not reaching convergence criteria
 ------------------------------------------------------------------------
 For more information see the NWChem manual at https://nwchemgit.github.io


 For further details see manual section:                                                                                                                                                                                                                                                                
0:scf energy failed:Received an Error in Communication
--------------------------------------------------------------------------
MPI_ABORT was invoked on rank 0 in communicator MPI COMMUNICATOR 3 DUP FROM 0
with errorcode -1.

NOTE: invoking MPI_ABORT causes Open MPI to kill all MPI processes.
You may or may not see output from other processes, depending on
exactly when Open MPI kills them.
--------------------------------------------------------------------------
slurmstepd: error: *** STEP 6619389.111 ON nova21-swift-2 CANCELLED AT 2025-07-11T08:01:04 ***
srun: Job step aborted: Waiting up to 32 seconds for job step to finish.
srun: error: nova21-swift-2: task 0: Exited with exit code 255
srun: error: nova21-swift-2: tasks 1-7: Killed
