export TMOUT=5400
export TMPDIR=/tmp
export PTMPDIR=/tmp/ptmp
 argument  1 = inputs/ASP_ASP_4.nw



============================== echo of input deck ==============================
start ASP_ASP_4
geometry
H          7.87300        0.46300       15.91700
C          7.35500        0.39200       14.96300
H          6.68100       -0.46200       14.96400
H          8.06800        0.29600       14.14700
C          6.53700        1.64300       14.75200
O          6.53800        2.52500       15.60400
N          5.87800        1.71000       13.60400
H          5.95500        0.93800       12.94600
C          4.89000        2.72400       13.22900
H          5.19200        3.68600       13.64300
C          4.86900        2.85200       11.69200
H          4.10800        3.57800       11.39900
H          5.83200        3.25300       11.37000
C          4.63300        1.52500       10.95200
O          3.60600        1.43900       10.24400
O          5.50200        0.62400       11.06600
C          3.47700        2.41400       13.77400
O          3.20200        1.32900       14.28900
N          2.56600        3.38300       13.65400
H          2.81900        4.25600       13.19600
C          1.13100        3.24600       13.93800
H          1.01300        2.50400       14.72700
C          0.56500        4.57900       14.48000
H         -0.51000        4.47000       14.63200
H          1.00600        4.74500       15.46400
C          0.82500        5.84700       13.64300
O          1.66900        5.81600       12.71700
O          0.19400        6.87500       13.97900
C          0.31300        2.71400       12.73700
O         -0.90300        2.54400       12.82800
N          0.93600        2.39900       11.60600
H          1.94100        2.47700       11.53400
H          0.40200        2.03400       10.84000
end

basis
 * library aug-cc-pvdz
end

echo

scf
 direct
end

task scf energy
================================================================================


                                         
                                         


             Northwest Computational Chemistry Package (NWChem) 7.2.0
             --------------------------------------------------------


                    Environmental Molecular Sciences Laboratory
                       Pacific Northwest National Laboratory
                                Richland, WA 99352

                              Copyright (c) 1994-2022
                       Pacific Northwest National Laboratory
                            Battelle Memorial Institute

             NWChem is an open-source computational chemistry package
                        distributed under the terms of the
                      Educational Community License (ECL) 2.0
             A copy of the license is included with this distribution
                              in the LICENSE.TXT file

                                  ACKNOWLEDGMENT
                                  --------------

            This software and its documentation were developed at the
            EMSL at Pacific Northwest National Laboratory, a multiprogram
            national laboratory, operated for the U.S. Department of Energy
            by Battelle under Contract Number DE-AC05-76RL01830. Support
            for this work was provided by the Department of Energy Office
            of Biological and Environmental Research, Office of Basic
            Energy Sciences, and the Office of Advanced Scientific Computing.


           Job information
           ---------------

    hostname        = nova21-speedy-11
    program         = /opt/rit/el9/20230413/app/linux-rhel9-x86_64_v3/gcc-11.2.1/nwchem-7.2.0-oxtctbuhfuzyfaoziquq6bki22grib3g/bin/nwchem
    date            = Thu Jul 10 22:20:18 2025

    compiled        = Wed_May_17_23:46:39_2023
    source          = /tmp/root/spack-stage/spack-stage-nwchem-7.2.0-oxtctbuhfuzyfaoziquq6bki22grib3g/spack-src
    nwchem branch   = 7.2.0
    nwchem revision = d0d141fd
    ga revision     = 5.8.0
    use scalapack   = T
    input           = inputs/ASP_ASP_4.nw
    prefix          = ASP_ASP_4.
    data base       = ./ASP_ASP_4.db
    status          = startup
    nproc           =        8
    time left       =     -1s



           Memory information
           ------------------

    heap     =   26214396 doubles =    200.0 Mbytes
    stack    =   26214401 doubles =    200.0 Mbytes
    global   =   52428800 doubles =    400.0 Mbytes (distinct from heap & stack)
    total    =  104857597 doubles =    800.0 Mbytes
    verify   = yes
    hardfail = no 


           Directory information
           ---------------------

  0 permanent = .
  0 scratch   = .




                                NWChem Input Module
                                -------------------



 Scaling coordinates for geometry "geometry" by  1.889725989
 (inverse scale =  0.529177249)

 C1  symmetry detected

          ------
          auto-z
          ------
  no constraints, skipping    0.0000000000000000     
  no constraints, skipping    0.0000000000000000     


                             Geometry "geometry" -> ""
                             -------------------------

 Output coordinates in angstroms (scale by  1.889725989 to convert to a.u.)

  No.       Tag          Charge          X              Y              Z
 ---- ---------------- ---------- -------------- -------------- --------------
    1 H                    1.0000     2.36627029     5.28221555    -1.08852505
    2 C                    6.0000     1.39541957     4.84357532    -0.86824195
    3 H                    1.0000     0.83472452     4.69070562    -1.78794022
    4 H                    1.0000     0.82981563     5.48489574    -0.19575306
    5 C                    6.0000     1.59929664     3.50192716    -0.20713655
    6 O                    8.0000     2.73515261     3.08326516    -0.01122239
    7 N                    7.0000     0.49331263     2.86663014     0.15323971
    8 H                    1.0000    -0.40727735     3.30282422    -0.02992527
    9 C                    6.0000     0.40594547     1.49266733     0.65279770
   10 H                    1.0000     1.27956186     1.28151402     1.26944402
   11 C                    6.0000    -0.84744836     1.36695785     1.54296343
   12 H                    1.0000    -0.94389914     0.33622350     1.88984951
   13 H                    1.0000    -0.70049568     1.98825479     2.42854178
   14 C                    6.0000    -2.15234049     1.80949193     0.86058149
   15 O                    8.0000    -3.04466745     0.94556340     0.71646662
   16 O                    8.0000    -2.26340597     3.01649137     0.52775300
   17 C                    6.0000     0.38164687     0.44311034    -0.48189773
   18 O                    8.0000     0.24784732     0.76555098    -1.66350880
   19 N                    7.0000     0.50904762    -0.83453424    -0.11491632
   20 H                    1.0000     0.58730005    -1.06778387     0.87269351
   21 C                    6.0000     0.33784642    -1.99742083    -0.99641216
   22 H                    1.0000     0.63507988    -1.70410220    -2.00270509
   23 C                    6.0000     1.28195062    -3.14141830    -0.55943842
   24 H                    1.0000     1.09903744    -4.01107556    -1.19256480
   25 H                    1.0000     2.30382585    -2.81622496    -0.76022013
   26 C                    6.0000     1.22329937    -3.57788384     0.91773823
   27 O                    8.0000     0.62622212    -2.85916198     1.75302899
   28 O                    8.0000     1.83430513    -4.63047189     1.21196834
   29 C                    6.0000    -1.13078476    -2.47039220    -1.11460503
   30 O                    8.0000    -1.42830376    -3.43290860    -1.82233494
   31 N                    7.0000    -2.08828195    -1.80556654    -0.47607471
   32 H                    1.0000    -1.86875526    -0.97854916     0.06164574
   33 H                    1.0000    -3.03992433    -2.10491924    -0.57558221

      Atomic Mass 
      ----------- 

      H                  1.007825
      C                 12.000000
      O                 15.994910
      N                 14.003070


 Effective nuclear repulsion energy (a.u.)    1631.6829307180

            Nuclear Dipole moment (a.u.) 
            ----------------------------
        X                 Y               Z
 ---------------- ---------------- ----------------
     0.0000000000     0.0000000000     0.0000000000



                                Z-matrix (autoz)
                                -------- 

 Units are Angstrom for bonds and degrees for angles

      Type          Name      I     J     K     L     M      Value
      ----------- --------  ----- ----- ----- ----- ----- ----------
    1 Stretch                  1     2                       1.08788
    2 Stretch                  2     3                       1.08793
    3 Stretch                  2     4                       1.08786
    4 Stretch                  2     5                       1.50952
    5 Stretch                  5     6                       1.22631
    6 Stretch                  5     7                       1.32540
    7 Stretch                  7     8                       1.01729
    8 Stretch                  7     9                       1.46457
    9 Stretch                  9    10                       1.08997
   10 Stretch                  9    11                       1.54246
   11 Stretch                  9    17                       1.54586
   12 Stretch                 11    12                       1.09181
   13 Stretch                 11    13                       1.09172
   14 Stretch                 11    14                       1.53760
   15 Stretch                 14    15                       1.25036
   16 Stretch                 14    16                       1.25696
   17 Stretch                 17    18                       1.23210
   18 Stretch                 17    19                       1.33540
   19 Stretch                 19    20                       1.01779
   20 Stretch                 19    21                       1.46923
   21 Stretch                 21    22                       1.08950
   22 Stretch                 21    23                       1.54629
   23 Stretch                 21    29                       1.54743
   24 Stretch                 23    24                       1.09115
   25 Stretch                 23    25                       1.09101
   26 Stretch                 23    26                       1.54143
   27 Stretch                 26    27                       1.25330
   28 Stretch                 26    28                       1.25213
   29 Stretch                 29    30                       1.23119
   30 Stretch                 29    31                       1.32910
   31 Stretch                 31    32                       1.01059
   32 Stretch                 31    33                       1.00257
   33 Bend                     1     2     3               110.20716
   34 Bend                     1     2     4               110.57699
   35 Bend                     1     2     5               109.05748
   36 Bend                     2     5     6               119.90089
   37 Bend                     2     5     7               115.61997
   38 Bend                     3     2     4               109.72242
   39 Bend                     3     2     5               108.35801
   40 Bend                     4     2     5               108.87177
   41 Bend                     5     7     8               118.96323
   42 Bend                     5     7     9               126.31292
   43 Bend                     6     5     7               124.45967
   44 Bend                     7     9    10               109.08062
   45 Bend                     7     9    11               108.77059
   46 Bend                     7     9    17               112.79956
   47 Bend                     8     7     9               114.25876
   48 Bend                     9    11    12               109.39516
   49 Bend                     9    11    13               108.20236
   50 Bend                     9    11    14               114.20706
   51 Bend                     9    17    18               121.86826
   52 Bend                     9    17    19               116.51083
   53 Bend                    10     9    11               107.99966
   54 Bend                    10     9    17               107.23782
   55 Bend                    11     9    17               110.82420
   56 Bend                    11    14    15               117.25429
   57 Bend                    11    14    16               117.96071
   58 Bend                    12    11    13               106.94364
   59 Bend                    12    11    14               109.73919
   60 Bend                    13    11    14               108.08575
   61 Bend                    15    14    16               124.74346
   62 Bend                    17    19    20               119.55492
   63 Bend                    17    19    21               125.53973
   64 Bend                    18    17    19               121.62057
   65 Bend                    19    21    22               108.01533
   66 Bend                    19    21    23               110.17441
   67 Bend                    19    21    29               113.47410
   68 Bend                    20    19    21               114.18903
   69 Bend                    21    23    24               108.86456
   70 Bend                    21    23    25               107.41834
   71 Bend                    21    23    26               117.19843
   72 Bend                    21    29    30               120.81045
   73 Bend                    21    29    31               119.61306
   74 Bend                    22    21    23               107.07495
   75 Bend                    22    21    29               105.70382
   76 Bend                    23    21    29               112.01961
   77 Bend                    23    26    27               119.63273
   78 Bend                    23    26    28               116.40112
   79 Bend                    24    23    25               106.72574
   80 Bend                    24    23    26               108.90469
   81 Bend                    25    23    26               107.24161
   82 Bend                    27    26    28               123.91298
   83 Bend                    29    31    32               120.56251
   84 Bend                    29    31    33               119.12909
   85 Bend                    30    29    31               119.54609
   86 Bend                    32    31    33               120.22204
   87 Torsion                  1     2     5     6          -0.29508
   88 Torsion                  1     2     5     7         178.17109
   89 Torsion                  2     5     7     8           0.06130
   90 Torsion                  2     5     7     9         171.75986
   91 Torsion                  3     2     5     6         119.68347
   92 Torsion                  3     2     5     7         -61.85035
   93 Torsion                  4     2     5     6        -121.02916
   94 Torsion                  4     2     5     7          57.43702
   95 Torsion                  5     7     9    10          36.04651
   96 Torsion                  5     7     9    11         153.62087
   97 Torsion                  5     7     9    17         -83.00157
   98 Torsion                  6     5     7     8         178.44865
   99 Torsion                  6     5     7     9          -9.85279
  100 Torsion                  7     9    11    12         177.82587
  101 Torsion                  7     9    11    13         -66.00596
  102 Torsion                  7     9    11    14          54.40034
  103 Torsion                  7     9    17    18         -10.11446
  104 Torsion                  7     9    17    19         170.09573
  105 Torsion                  8     7     9    10        -151.91792
  106 Torsion                  8     7     9    11         -34.34356
  107 Torsion                  8     7     9    17          89.03400
  108 Torsion                  9    11    14    15         118.10266
  109 Torsion                  9    11    14    16         -64.12907
  110 Torsion                  9    17    19    20           1.77892
  111 Torsion                  9    17    19    21         171.49455
  112 Torsion                 10     9    11    12         -63.91554
  113 Torsion                 10     9    11    13          52.25263
  114 Torsion                 10     9    11    14         172.65893
  115 Torsion                 10     9    17    18        -130.22743
  116 Torsion                 10     9    17    19          49.98275
  117 Torsion                 11     9    17    18         112.11612
  118 Torsion                 11     9    17    19         -67.67369
  119 Torsion                 12    11     9    17          53.27461
  120 Torsion                 12    11    14    15          -5.13695
  121 Torsion                 12    11    14    16         172.63132
  122 Torsion                 13    11     9    17         169.44278
  123 Torsion                 13    11    14    15        -121.42601
  124 Torsion                 13    11    14    16          56.34226
  125 Torsion                 14    11     9    17         -70.15093
  126 Torsion                 17    19    21    22          30.73261
  127 Torsion                 17    19    21    23         147.37576
  128 Torsion                 17    19    21    29         -86.10938
  129 Torsion                 18    17    19    20        -178.01145
  130 Torsion                 18    17    19    21          -8.29582
  131 Torsion                 19    21    23    24         176.95427
  132 Torsion                 19    21    23    25         -67.83550
  133 Torsion                 19    21    23    26          52.86104
  134 Torsion                 19    21    29    30         179.79343
  135 Torsion                 19    21    29    31           1.80771
  136 Torsion                 20    19    21    22        -159.06985
  137 Torsion                 20    19    21    23         -42.42671
  138 Torsion                 20    19    21    29          84.08816
  139 Torsion                 21    23    26    27         -13.16228
  140 Torsion                 21    23    26    28         169.38578
  141 Torsion                 21    29    31    32           1.89877
  142 Torsion                 21    29    31    33         178.52728
  143 Torsion                 22    21    23    24         -65.81744
  144 Torsion                 22    21    23    25          49.39278
  145 Torsion                 22    21    23    26         170.08933
  146 Torsion                 22    21    29    30          61.60649
  147 Torsion                 22    21    29    31        -116.37923
  148 Torsion                 23    21    29    30         -54.67069
  149 Torsion                 23    21    29    31         127.34359
  150 Torsion                 24    23    21    29          49.62778
  151 Torsion                 24    23    26    27        -137.23522
  152 Torsion                 24    23    26    28          45.31285
  153 Torsion                 25    23    21    29         164.83801
  154 Torsion                 25    23    26    27         107.62698
  155 Torsion                 25    23    26    28         -69.82496
  156 Torsion                 26    23    21    29         -74.46545
  157 Torsion                 30    29    31    32        -176.11265
  158 Torsion                 30    29    31    33           0.51587


            XYZ format geometry
            -------------------
    33
 geometry
 H                     2.36627029     5.28221555    -1.08852505
 C                     1.39541957     4.84357532    -0.86824195
 H                     0.83472452     4.69070562    -1.78794022
 H                     0.82981563     5.48489574    -0.19575306
 C                     1.59929664     3.50192716    -0.20713655
 O                     2.73515261     3.08326516    -0.01122239
 N                     0.49331263     2.86663014     0.15323971
 H                    -0.40727735     3.30282422    -0.02992527
 C                     0.40594547     1.49266733     0.65279770
 H                     1.27956186     1.28151402     1.26944402
 C                    -0.84744836     1.36695785     1.54296343
 H                    -0.94389914     0.33622350     1.88984951
 H                    -0.70049568     1.98825479     2.42854178
 C                    -2.15234049     1.80949193     0.86058149
 O                    -3.04466745     0.94556340     0.71646662
 O                    -2.26340597     3.01649137     0.52775300
 C                     0.38164687     0.44311034    -0.48189773
 O                     0.24784732     0.76555098    -1.66350880
 N                     0.50904762    -0.83453424    -0.11491632
 H                     0.58730005    -1.06778387     0.87269351
 C                     0.33784642    -1.99742083    -0.99641216
 H                     0.63507988    -1.70410220    -2.00270509
 C                     1.28195062    -3.14141830    -0.55943842
 H                     1.09903744    -4.01107556    -1.19256480
 H                     2.30382585    -2.81622496    -0.76022013
 C                     1.22329937    -3.57788384     0.91773823
 O                     0.62622212    -2.85916198     1.75302899
 O                     1.83430513    -4.63047189     1.21196834
 C                    -1.13078476    -2.47039220    -1.11460503
 O                    -1.42830376    -3.43290860    -1.82233494
 N                    -2.08828195    -1.80556654    -0.47607471
 H                    -1.86875526    -0.97854916     0.06164574
 H                    -3.03992433    -2.10491924    -0.57558221

 ==============================================================================
                                internuclear distances
 ------------------------------------------------------------------------------
       center one      |      center two      | atomic units |  angstroms
 ------------------------------------------------------------------------------
    2 C                |   1 H                |     2.05579  |     1.08788
    3 H                |   2 C                |     2.05589  |     1.08793
    4 H                |   2 C                |     2.05576  |     1.08786
    5 C                |   2 C                |     2.85258  |     1.50952
    6 O                |   5 C                |     2.31738  |     1.22631
    7 N                |   5 C                |     2.50463  |     1.32540
    8 H                |   7 N                |     1.92240  |     1.01729
    9 C                |   7 N                |     2.76764  |     1.46457
   10 H                |   9 C                |     2.05975  |     1.08997
   11 C                |   9 C                |     2.91483  |     1.54246
   12 H                |  11 C                |     2.06322  |     1.09181
   13 H                |  11 C                |     2.06305  |     1.09172
   14 C                |  11 C                |     2.90565  |     1.53760
   15 O                |  14 C                |     2.36283  |     1.25036
   16 O                |  14 C                |     2.37532  |     1.25696
   17 C                |   9 C                |     2.92126  |     1.54586
   18 O                |  17 C                |     2.32833  |     1.23210
   19 N                |  17 C                |     2.52353  |     1.33540
   20 H                |  19 N                |     1.92335  |     1.01779
   21 C                |  19 N                |     2.77645  |     1.46923
   22 H                |  21 C                |     2.05886  |     1.08950
   23 C                |  21 C                |     2.92206  |     1.54629
   24 H                |  23 C                |     2.06198  |     1.09115
   25 H                |  23 C                |     2.06170  |     1.09101
   26 C                |  23 C                |     2.91287  |     1.54143
   27 O                |  26 C                |     2.36840  |     1.25330
   28 O                |  26 C                |     2.36619  |     1.25213
   29 C                |  21 C                |     2.92422  |     1.54743
   30 O                |  29 C                |     2.32662  |     1.23119
   31 N                |  29 C                |     2.51164  |     1.32910
   32 H                |  31 N                |     1.90974  |     1.01059
   33 H                |  31 N                |     1.89457  |     1.00257
 ------------------------------------------------------------------------------
                         number of included internuclear distances:         32
 ==============================================================================



 ==============================================================================
                                 internuclear angles
 ------------------------------------------------------------------------------
        center 1       |       center 2       |       center 3       |  degrees
 ------------------------------------------------------------------------------
    1 H                |   2 C                |   3 H                |   110.21
    1 H                |   2 C                |   4 H                |   110.58
    1 H                |   2 C                |   5 C                |   109.06
    3 H                |   2 C                |   4 H                |   109.72
    3 H                |   2 C                |   5 C                |   108.36
    4 H                |   2 C                |   5 C                |   108.87
    2 C                |   5 C                |   6 O                |   119.90
    2 C                |   5 C                |   7 N                |   115.62
    6 O                |   5 C                |   7 N                |   124.46
    5 C                |   7 N                |   8 H                |   118.96
    5 C                |   7 N                |   9 C                |   126.31
    8 H                |   7 N                |   9 C                |   114.26
    7 N                |   9 C                |  10 H                |   109.08
    7 N                |   9 C                |  11 C                |   108.77
    7 N                |   9 C                |  17 C                |   112.80
   10 H                |   9 C                |  11 C                |   108.00
   10 H                |   9 C                |  17 C                |   107.24
   11 C                |   9 C                |  17 C                |   110.82
    9 C                |  11 C                |  12 H                |   109.40
    9 C                |  11 C                |  13 H                |   108.20
    9 C                |  11 C                |  14 C                |   114.21
   12 H                |  11 C                |  13 H                |   106.94
   12 H                |  11 C                |  14 C                |   109.74
   13 H                |  11 C                |  14 C                |   108.09
   11 C                |  14 C                |  15 O                |   117.25
   11 C                |  14 C                |  16 O                |   117.96
   15 O                |  14 C                |  16 O                |   124.74
    9 C                |  17 C                |  18 O                |   121.87
    9 C                |  17 C                |  19 N                |   116.51
   18 O                |  17 C                |  19 N                |   121.62
   17 C                |  19 N                |  20 H                |   119.55
   17 C                |  19 N                |  21 C                |   125.54
   20 H                |  19 N                |  21 C                |   114.19
   19 N                |  21 C                |  22 H                |   108.02
   19 N                |  21 C                |  23 C                |   110.17
   19 N                |  21 C                |  29 C                |   113.47
   22 H                |  21 C                |  23 C                |   107.07
   22 H                |  21 C                |  29 C                |   105.70
   23 C                |  21 C                |  29 C                |   112.02
   21 C                |  23 C                |  24 H                |   108.86
   21 C                |  23 C                |  25 H                |   107.42
   21 C                |  23 C                |  26 C                |   117.20
   24 H                |  23 C                |  25 H                |   106.73
   24 H                |  23 C                |  26 C                |   108.90
   25 H                |  23 C                |  26 C                |   107.24
   23 C                |  26 C                |  27 O                |   119.63
   23 C                |  26 C                |  28 O                |   116.40
   27 O                |  26 C                |  28 O                |   123.91
   21 C                |  29 C                |  30 O                |   120.81
   21 C                |  29 C                |  31 N                |   119.61
   30 O                |  29 C                |  31 N                |   119.55
   29 C                |  31 N                |  32 H                |   120.56
   29 C                |  31 N                |  33 H                |   119.13
   32 H                |  31 N                |  33 H                |   120.22
 ------------------------------------------------------------------------------
                            number of included internuclear angles:         54
 ==============================================================================



  library name resolved from: environment
  library file name is: </opt/rit/el9/20230413/app/linux-rhel9-x86_64_v3/gcc-11.2.1/nwchem-7.2.0-oxtctbuhfuzyfaoziquq6bki22grib3g/share/nwchem/libraries/>
  


 Summary of "ao basis" -> "" (cartesian)
 ------------------------------------------------------------------------------
       Tag                 Description            Shells   Functions and Types
 ---------------- ------------------------------  ------  ---------------------
 *                        aug-cc-pvdz                 on all atoms 


                      Basis "ao basis" -> "ao basis" (cartesian)
                      -----
  H (Hydrogen)
  ------------
            Exponent  Coefficients 
       -------------- ---------------------------------------------------------
  1 S  1.30100000E+01  0.019685
  1 S  1.96200000E+00  0.137977
  1 S  4.44600000E-01  0.478148

  2 S  1.22000000E-01  1.000000

  3 S  2.97400000E-02  1.000000

  4 P  7.27000000E-01  1.000000

  5 P  1.41000000E-01  1.000000

  C (Carbon)
  ----------
            Exponent  Coefficients 
       -------------- ---------------------------------------------------------
  1 S  6.66500000E+03  0.000692
  1 S  1.00000000E+03  0.005329
  1 S  2.28000000E+02  0.027077
  1 S  6.47100000E+01  0.101718
  1 S  2.10600000E+01  0.274740
  1 S  7.49500000E+00  0.448564
  1 S  2.79700000E+00  0.285074
  1 S  5.21500000E-01  0.015204

  2 S  6.66500000E+03 -0.000146
  2 S  1.00000000E+03 -0.001154
  2 S  2.28000000E+02 -0.005725
  2 S  6.47100000E+01 -0.023312
  2 S  2.10600000E+01 -0.063955
  2 S  7.49500000E+00 -0.149981
  2 S  2.79700000E+00 -0.127262
  2 S  5.21500000E-01  0.544529

  3 S  1.59600000E-01  1.000000

  4 S  4.69000000E-02  1.000000

  5 P  9.43900000E+00  0.038109
  5 P  2.00200000E+00  0.209480
  5 P  5.45600000E-01  0.508557

  6 P  1.51700000E-01  1.000000

  7 P  4.04100000E-02  1.000000

  8 D  5.50000000E-01  1.000000

  9 D  1.51000000E-01  1.000000

  O (Oxygen)
  ----------
            Exponent  Coefficients 
       -------------- ---------------------------------------------------------
  1 S  1.17200000E+04  0.000710
  1 S  1.75900000E+03  0.005470
  1 S  4.00800000E+02  0.027837
  1 S  1.13700000E+02  0.104800
  1 S  3.70300000E+01  0.283062
  1 S  1.32700000E+01  0.448719
  1 S  5.02500000E+00  0.270952
  1 S  1.01300000E+00  0.015458

  2 S  1.17200000E+04 -0.000160
  2 S  1.75900000E+03 -0.001263
  2 S  4.00800000E+02 -0.006267
  2 S  1.13700000E+02 -0.025716
  2 S  3.70300000E+01 -0.070924
  2 S  1.32700000E+01 -0.165411
  2 S  5.02500000E+00 -0.116955
  2 S  1.01300000E+00  0.557368

  3 S  3.02300000E-01  1.000000

  4 S  7.89600000E-02  1.000000

  5 P  1.77000000E+01  0.043018
  5 P  3.85400000E+00  0.228913
  5 P  1.04600000E+00  0.508728

  6 P  2.75300000E-01  1.000000

  7 P  6.85600000E-02  1.000000

  8 D  1.18500000E+00  1.000000

  9 D  3.32000000E-01  1.000000

  N (Nitrogen)
  ------------
            Exponent  Coefficients 
       -------------- ---------------------------------------------------------
  1 S  9.04600000E+03  0.000700
  1 S  1.35700000E+03  0.005389
  1 S  3.09300000E+02  0.027406
  1 S  8.77300000E+01  0.103207
  1 S  2.85600000E+01  0.278723
  1 S  1.02100000E+01  0.448540
  1 S  3.83800000E+00  0.278238
  1 S  7.46600000E-01  0.015440

  2 S  9.04600000E+03 -0.000153
  2 S  1.35700000E+03 -0.001208
  2 S  3.09300000E+02 -0.005992
  2 S  8.77300000E+01 -0.024544
  2 S  2.85600000E+01 -0.067459
  2 S  1.02100000E+01 -0.158078
  2 S  3.83800000E+00 -0.121831
  2 S  7.46600000E-01  0.549003

  3 S  2.24800000E-01  1.000000

  4 S  6.12400000E-02  1.000000

  5 P  1.35500000E+01  0.039919
  5 P  2.91700000E+00  0.217169
  5 P  7.97300000E-01  0.510319

  6 P  2.18500000E-01  1.000000

  7 P  5.61100000E-02  1.000000

  8 D  8.17000000E-01  1.000000

  9 D  2.30000000E-01  1.000000



 Summary of "ao basis" -> "ao basis" (cartesian)
 ------------------------------------------------------------------------------
       Tag                 Description            Shells   Functions and Types
 ---------------- ------------------------------  ------  ---------------------
 H                        aug-cc-pvdz                5        9   3s2p
 C                        aug-cc-pvdz                9       25   4s3p2d
 O                        aug-cc-pvdz                9       25   4s3p2d
 N                        aug-cc-pvdz                9       25   4s3p2d


                                 NWChem SCF Module
                                 -----------------



  ao basis        = "ao basis"
  functions       =   617
  atoms           =    33
  closed shells   =    75
  open shells     =     0
  charge          =   0.00
  wavefunction    = RHF 
  input vectors   = atomic
  output vectors  = ./ASP_ASP_4.movecs
  use symmetry    = F
  symmetry adapt  = F


 Summary of "ao basis" -> "ao basis" (cartesian)
 ------------------------------------------------------------------------------
       Tag                 Description            Shells   Functions and Types
 ---------------- ------------------------------  ------  ---------------------
 H                        aug-cc-pvdz                5        9   3s2p
 C                        aug-cc-pvdz                9       25   4s3p2d
 O                        aug-cc-pvdz                9       25   4s3p2d
 N                        aug-cc-pvdz                9       25   4s3p2d



 Forming initial guess at       0.8s


 !! The overlap matrix has   4 vectors deemed linearly dependent with
    eigenvalues:
 2.62D-06 5.06D-06 5.85D-06 9.66D-06


      Superposition of Atomic Density Guess
      -------------------------------------

 Sum of atomic energies:       -1069.43740700

      Non-variational initial energy
      ------------------------------

 Total energy =   -1080.530908
 1-e energy   =   -4705.439884
 2-e energy   =    1993.226045
 HOMO         =      -0.317150
 LUMO         =      -0.306111


 Starting SCF solution at     223.6s



 ----------------------------------------------
         Quadratically convergent ROHF

 Convergence threshold     :          1.000E-04
 Maximum no. of iterations :           30
 Final Fock-matrix accuracy:          1.000E-10
 ----------------------------------------------


              iter       energy          gnorm     gmax       time
             ----- ------------------- --------- --------- --------
                 1    -1072.6651981007  3.59D+00  2.34D-01    465.9
  Setting level-shift to   2.81 to force positive preconditioner
                 2    -1073.3545212066  1.17D+00  7.59D-02    706.5
                 3    -1073.4625679289  2.62D-01  2.88D-02   1839.7
                 4    -1073.4745802580  4.49D-02  9.16D-03   3216.6
  ga_iter_lsolve: convergence stagnant ... aborting solve

 Disabled NR: increased maxiter to  40

                 5    -1073.4748993108  4.87D-02  9.22D-03   4816.6
                 6    -1073.4755991144  7.29D-02  8.25D-03   5305.5
                 7    -1073.4764218213  5.58D-02  6.67D-03   5786.2
                 8    -1073.4770160202  5.17D-02  5.05D-03   6268.1
                 9    -1073.4773548745  3.51D-02  6.91D-03   6509.7
                10    -1073.4775779366  4.13D-02  9.26D-03   6754.4
                11    -1073.4779241325  3.74D-02  5.36D-03   6999.2
                12    -1073.4782935435  5.26D-02  8.34D-03   7487.6
                13    -1073.4786597236  5.31D-02  6.13D-03   7729.7
                14    -1073.4789017684  3.46D-02  5.88D-03   8210.7
                15    -1073.4790971810  3.48D-02  4.04D-03   8452.9
                16    -1073.4792177579  2.89D-02  5.43D-03   8694.7
                17    -1073.4792957725  2.47D-02  2.98D-03   9182.2
                18    -1073.4793677976  1.89D-02  2.09D-03   9427.0
                19    -1073.4794147125  1.41D-02  2.41D-03   9667.3
                20    -1073.4794427358  1.27D-02  2.82D-03   9912.8
                21    -1073.4794703481  1.26D-02  3.38D-03  10148.7
                22    -1073.4795007713  1.44D-02  1.51D-03  10390.8
                23    -1073.4795337694  1.40D-02  1.47D-03  10870.7
                24    -1073.4795571448  1.31D-02  1.42D-03  11114.1
                25    -1073.4795701264  8.97D-03  1.21D-03  11603.3
                26    -1073.4795765170  5.06D-03  6.04D-04  12092.0
                27    -1073.4795795470  3.48D-03  4.69D-04  12338.7
                28    -1073.4795810680  3.21D-03  4.98D-04  12578.1
                29    -1073.4795823918  3.12D-03  5.04D-04  13055.2
                30    -1073.4795834696  2.63D-03  4.07D-04  13298.2
                31    -1073.4795843720  2.28D-03  2.59D-04  13789.0
                32    -1073.4795849709  2.51D-03  2.94D-04  14033.5
                33    -1073.4795855069  2.10D-03  2.32D-04  14518.3
                34    -1073.4795860632  1.40D-03  1.70D-04  14757.5
                35    -1073.4795864162  1.51D-03  1.68D-04  15238.5
                36    -1073.4795866587  1.46D-03  1.63D-04  15481.0
                37    -1073.4795868375  1.11D-03  1.08D-04  15969.8
                38    -1073.4795869681  8.70D-04  6.05D-05  16214.1
                39    -1073.4795870401  5.14D-04  4.40D-05  16457.9
                40    -1073.4795870671  2.49D-04  5.10D-05  16700.8

      Calculation failed to converge
      ------------------------------



       Final RHF  results 
       ------------------ 

         Total SCF energy =  -1073.479587067081
      One-electron energy =  -4711.921278929049
      Two-electron energy =   2006.758761144011
 Nuclear repulsion energy =   1631.682930717957

        Time for solution =  16478.7s


             Final eigenvalues
             -----------------

              1      
    1  -20.6861
    2  -20.6296
    3  -20.6220
    4  -20.6165
    5  -20.6126
    6  -20.5872
    7  -20.5399
    8  -15.7140
    9  -15.6441
   10  -15.6208
   11  -11.4374
   12  -11.4287
   13  -11.4206
   14  -11.4144
   15  -11.3757
   16  -11.3690
   17  -11.3581
   18  -11.3236
   19  -11.3133
   20  -11.2477
   21   -1.5054
   22   -1.4694
   23   -1.4636
   24   -1.4382
   25   -1.3991
   26   -1.3884
   27   -1.3617
   28   -1.3342
   29   -1.2733
   30   -1.2652
   31   -1.1410
   32   -1.1065
   33   -1.0164
   34   -1.0029
   35   -0.9567
   36   -0.8942
   37   -0.8631
   38   -0.8367
   39   -0.8219
   40   -0.8040
   41   -0.7992
   42   -0.7694
   43   -0.7509
   44   -0.7289
   45   -0.7178
   46   -0.7131
   47   -0.7018
   48   -0.6986
   49   -0.6928
   50   -0.6793
   51   -0.6707
   52   -0.6635
   53   -0.6522
   54   -0.6424
   55   -0.6351
   56   -0.6223
   57   -0.6101
   58   -0.6005
   59   -0.5961
   60   -0.5863
   61   -0.5842
   62   -0.5755
   63   -0.5629
   64   -0.5342
   65   -0.5232
   66   -0.5037
   67   -0.4994
   68   -0.4918
   69   -0.4883
   70   -0.4810
   71   -0.4561
   72   -0.4352
   73   -0.4311
   74   -0.4202
   75   -0.3811
   76   -0.2838
   77    0.0227
   78    0.0316
   79    0.0385
   80    0.0390
   81    0.0496
   82    0.0555
   83    0.0574
   84    0.0614
   85    0.0634

                       ROHF Final Molecular Orbital Analysis
                       -------------------------------------

 Vector   22  Occ=2.000000D+00  E=-1.469424D+00
              MO Center= -2.2D+00,  1.7D+00,  5.2D-01, r^2= 2.4D+00
   Bfn.  Coefficient  Atom+Function         Bfn.  Coefficient  Atom+Function  
  ----- ------------  ---------------      ----- ------------  ---------------
   241      0.282889  15 O  s               266      0.265925  16 O  s         
   240      0.263436  15 O  s               215      0.245150  14 C  s         
   265      0.241531  16 O  s               217     -0.206378  14 C  s         

 Vector   23  Occ=2.000000D+00  E=-1.463622D+00
              MO Center= -2.0D-03,  4.9D-01, -8.9D-01, r^2= 2.7D+00
   Bfn.  Coefficient  Atom+Function         Bfn.  Coefficient  Atom+Function  
  ----- ------------  ---------------      ----- ------------  ---------------
   316      0.335889  18 O  s               315      0.317059  18 O  s         
   290      0.230771  17 C  s         

 Vector   24  Occ=2.000000D+00  E=-1.438206D+00
              MO Center= -1.3D+00, -2.9D+00, -1.5D+00, r^2= 1.3D+00
   Bfn.  Coefficient  Atom+Function         Bfn.  Coefficient  Atom+Function  
  ----- ------------  ---------------      ----- ------------  ---------------
   552      0.380011  30 O  s               551      0.349520  30 O  s         
   526      0.244602  29 C  s         

 Vector   25  Occ=2.000000D+00  E=-1.399130D+00
              MO Center=  2.1D+00,  3.1D+00, -4.8D-02, r^2= 1.2D+00
   Bfn.  Coefficient  Atom+Function         Bfn.  Coefficient  Atom+Function  
  ----- ------------  ---------------      ----- ------------  ---------------
    80      0.346947   6 O  s                79      0.342852   6 O  s         
    54      0.247136   5 C  s         

 Vector   26  Occ=2.000000D+00  E=-1.388371D+00
              MO Center=  1.4D+00, -3.9D+00,  1.2D+00, r^2= 1.4D+00
   Bfn.  Coefficient  Atom+Function         Bfn.  Coefficient  Atom+Function  
  ----- ------------  ---------------      ----- ------------  ---------------
   502      0.385370  28 O  s               501      0.351745  28 O  s         
   477     -0.269113  27 O  s               476     -0.253509  27 O  s         
   455     -0.207077  26 C  py        

 Vector   27  Occ=2.000000D+00  E=-1.361658D+00
              MO Center= -2.5D+00,  2.0D+00,  6.7D-01, r^2= 1.5D+00
   Bfn.  Coefficient  Atom+Function         Bfn.  Coefficient  Atom+Function  
  ----- ------------  ---------------      ----- ------------  ---------------
   266      0.343672  16 O  s               241     -0.317009  15 O  s         
   265      0.315661  16 O  s               240     -0.297501  15 O  s         
   219      0.240159  14 C  py        

 Vector   28  Occ=2.000000D+00  E=-1.334159D+00
              MO Center=  3.5D-01, -6.9D-01, -4.6D-01, r^2= 2.1D+00
   Bfn.  Coefficient  Atom+Function         Bfn.  Coefficient  Atom+Function  
  ----- ------------  ---------------      ----- ------------  ---------------
   341      0.344532  19 N  s               340      0.335865  19 N  s         
   316     -0.245197  18 O  s               315     -0.202221  18 O  s         
   375     -0.173432  21 C  s         

 Vector   29  Occ=2.000000D+00  E=-1.273259D+00
              MO Center=  7.7D-01,  2.6D+00,  1.5D-01, r^2= 2.5D+00
   Bfn.  Coefficient  Atom+Function         Bfn.  Coefficient  Atom+Function  
  ----- ------------  ---------------      ----- ------------  ---------------
   105      0.409094   7 N  s               104      0.326689   7 N  s         
    80     -0.218684   6 O  s                57     -0.190567   5 C  px        
    79     -0.189252   6 O  s               138      0.165786   9 C  s         

 Vector   30  Occ=2.000000D+00  E=-1.265214D+00
              MO Center= -1.7D+00, -1.9D+00, -6.7D-01, r^2= 2.1D+00
   Bfn.  Coefficient  Atom+Function         Bfn.  Coefficient  Atom+Function  
  ----- ------------  ---------------      ----- ------------  ---------------
   577      0.399365  31 N  s               576      0.367087  31 N  s         
   375     -0.234746  21 C  s               552     -0.204670  30 O  s         
   551     -0.173546  30 O  s               532      0.169242  29 C  px        
   600      0.162874  32 H  s               609      0.155405  33 H  s         
   530      0.150157  29 C  py        

 Vector   31  Occ=2.000000D+00  E=-1.140959D+00
              MO Center=  4.7D-01, -9.2D-01, -2.4D-01, r^2= 6.5D+00
   Bfn.  Coefficient  Atom+Function         Bfn.  Coefficient  Atom+Function  
  ----- ------------  ---------------      ----- ------------  ---------------
   374      0.219512  21 C  s               408      0.203941  23 C  s         
   139     -0.175310   9 C  s         

 Vector   32  Occ=2.000000D+00  E=-1.106516D+00
              MO Center=  1.7D-01,  4.1D-01,  4.0D-01, r^2= 8.0D+00
   Bfn.  Coefficient  Atom+Function         Bfn.  Coefficient  Atom+Function  
  ----- ------------  ---------------      ----- ------------  ---------------
   172      0.228954  11 C  s               173      0.179493  11 C  s         
   138      0.175463   9 C  s               408      0.172990  23 C  s         
    12     -0.151138   2 C  s         

 Vector   33  Occ=2.000000D+00  E=-1.016444D+00
              MO Center=  7.4D-01,  3.5D+00, -1.5D-01, r^2= 6.0D+00
   Bfn.  Coefficient  Atom+Function         Bfn.  Coefficient  Atom+Function  
  ----- ------------  ---------------      ----- ------------  ---------------
    11      0.295486   2 C  s                12      0.187248   2 C  s         
   173      0.181332  11 C  s               172      0.175704  11 C  s         
    56     -0.159992   5 C  s               410     -0.151431  23 C  s         
   178     -0.150466  11 C  px        

 Vector   34  Occ=2.000000D+00  E=-1.002871D+00
              MO Center=  6.3D-01, -1.4D+00, -3.2D-01, r^2= 8.7D+00
   Bfn.  Coefficient  Atom+Function         Bfn.  Coefficient  Atom+Function  
  ----- ------------  ---------------      ----- ------------  ---------------
   408      0.225315  23 C  s               409      0.210308  23 C  s         
   374     -0.166769  21 C  s               380      0.155934  21 C  px        

 Vector   35  Occ=2.000000D+00  E=-9.567244D-01
              MO Center=  4.5D-02,  7.6D-01,  7.3D-02, r^2= 8.8D+00
   Bfn.  Coefficient  Atom+Function         Bfn.  Coefficient  Atom+Function  
  ----- ------------  ---------------      ----- ------------  ---------------
   375      0.201846  21 C  s               138      0.188354   9 C  s         
   178      0.163506  11 C  px              380     -0.156815  21 C  px        
   146     -0.155213   9 C  pz        

 Vector   36  Occ=2.000000D+00  E=-8.942160D-01
              MO Center=  3.5D-01, -2.0D-01, -1.1D-01, r^2= 4.9D+00
   Bfn.  Coefficient  Atom+Function         Bfn.  Coefficient  Atom+Function  
  ----- ------------  ---------------      ----- ------------  ---------------
   344      0.284124  19 N  py              291      0.272412  17 C  s         
   364     -0.244535  20 H  s               345     -0.208194  19 N  pz        
   294     -0.186024  17 C  py              375      0.174951  21 C  s         
   290      0.171445  17 C  s               365     -0.165445  20 H  s         
   316     -0.150310  18 O  s         

 Vector   37  Occ=2.000000D+00  E=-8.631243D-01
              MO Center= -8.4D-01, -1.8D+00, -5.5D-01, r^2= 4.6D+00
   Bfn.  Coefficient  Atom+Function         Bfn.  Coefficient  Atom+Function  
  ----- ------------  ---------------      ----- ------------  ---------------
   532      0.334099  29 C  px              380      0.323274  21 C  px        
   579     -0.243293  31 N  px              526     -0.221628  29 C  s         
   375     -0.220137  21 C  s               609      0.194359  33 H  s         
   291      0.188264  17 C  s               544      0.185801  29 C  dxx       
   345     -0.172474  19 N  pz              552      0.169773  30 O  s         

 Vector   38  Occ=2.000000D+00  E=-8.367247D-01
              MO Center=  6.8D-01,  9.7D-01,  3.1D-01, r^2= 1.0D+01
   Bfn.  Coefficient  Atom+Function         Bfn.  Coefficient  Atom+Function  
  ----- ------------  ---------------      ----- ------------  ---------------
   107      0.278760   7 N  px              128     -0.189972   8 H  s         
    54      0.165938   5 C  s         

 Vector   39  Occ=2.000000D+00  E=-8.218840D-01
              MO Center=  6.6D-01, -1.0D+00,  7.2D-01, r^2= 1.0D+01
   Bfn.  Coefficient  Atom+Function         Bfn.  Coefficient  Atom+Function  
  ----- ------------  ---------------      ----- ------------  ---------------
   477      0.238940  27 O  s               451     -0.199495  26 C  s         
   107     -0.196785   7 N  px              481      0.176272  27 O  pz        
   480      0.169687  27 O  py              452     -0.164553  26 C  s         
   128      0.162897   8 H  s               502      0.163104  28 O  s         
    55     -0.158171   5 C  s         

 Vector   40  Occ=2.000000D+00  E=-8.039798D-01
              MO Center= -1.1D+00, -1.3D+00, -4.0D-01, r^2= 5.1D+00
   Bfn.  Coefficient  Atom+Function         Bfn.  Coefficient  Atom+Function  
  ----- ------------  ---------------      ----- ------------  ---------------
   600      0.281154  32 H  s               528      0.277600  29 C  s         
   580      0.264596  31 N  py              529      0.229555  29 C  px        
   527     -0.207345  29 C  s               601      0.196115  32 H  s         
   581      0.194784  31 N  pz              197      0.183782  12 H  s         
   291     -0.173187  17 C  s               380     -0.159013  21 C  px        

 Vector   41  Occ=2.000000D+00  E=-7.992002D-01
              MO Center= -1.5D+00,  1.3D+00,  6.9D-01, r^2= 5.5D+00
   Bfn.  Coefficient  Atom+Function         Bfn.  Coefficient  Atom+Function  
  ----- ------------  ---------------      ----- ------------  ---------------
   215      0.252914  14 C  s               241     -0.217876  15 O  s         
   269     -0.202137  16 O  py              266     -0.200423  16 O  s         
   243      0.168676  15 O  px              146     -0.161518   9 C  pz        

 Vector   42  Occ=2.000000D+00  E=-7.693836D-01
              MO Center= -4.6D-01, -4.2D-01,  5.1D-02, r^2= 9.3D+00
   Bfn.  Coefficient  Atom+Function         Bfn.  Coefficient  Atom+Function  
  ----- ------------  ---------------      ----- ------------  ---------------
   145      0.210547   9 C  py              609     -0.179418  33 H  s         
   579      0.177020  31 N  px               55      0.173531   5 C  s         
   291      0.172376  17 C  s               163      0.167208  10 H  s         
   292     -0.165348  17 C  s               600      0.150593  32 H  s         

 Vector   43  Occ=2.000000D+00  E=-7.508573D-01
              MO Center= -4.3D-02, -4.4D-01, -5.6D-01, r^2= 7.3D+00
   Bfn.  Coefficient  Atom+Function         Bfn.  Coefficient  Atom+Function  
  ----- ------------  ---------------      ----- ------------  ---------------
   320      0.246658  18 O  pz              316     -0.202551  18 O  s         
   344     -0.170993  19 N  py              294      0.167673  17 C  py        
   163     -0.154499  10 H  s               345     -0.151220  19 N  pz        

 Vector   44  Occ=2.000000D+00  E=-7.288994D-01
              MO Center= -8.1D-02, -2.5D+00, -1.8D-01, r^2= 6.2D+00
   Bfn.  Coefficient  Atom+Function         Bfn.  Coefficient  Atom+Function  
  ----- ------------  ---------------      ----- ------------  ---------------
   579      0.248496  31 N  px              456      0.224221  26 C  pz        
   609     -0.215579  33 H  s               480     -0.192071  27 O  py        
   441      0.158900  25 H  s               413     -0.156046  23 C  pz        
   506      0.154699  28 O  pz        

 Vector   45  Occ=2.000000D+00  E=-7.178147D-01
              MO Center=  1.1D+00, -3.2D+00,  1.0D+00, r^2= 7.0D+00
   Bfn.  Coefficient  Atom+Function         Bfn.  Coefficient  Atom+Function  
  ----- ------------  ---------------      ----- ------------  ---------------
   455      0.279632  26 C  py              505     -0.274688  28 O  py        
   502      0.257754  28 O  s               481     -0.239484  27 O  pz        
   504      0.203857  28 O  px              506      0.151802  28 O  pz        

 Vector   46  Occ=2.000000D+00  E=-7.130884D-01
              MO Center= -3.7D-01,  6.1D-01,  4.3D-01, r^2= 1.1D+01
   Bfn.  Coefficient  Atom+Function         Bfn.  Coefficient  Atom+Function  
  ----- ------------  ---------------      ----- ------------  ---------------
   244      0.193860  15 O  py              145     -0.158494   9 C  py        
   218     -0.158345  14 C  px               55     -0.154035   5 C  s         

 Vector   47  Occ=2.000000D+00  E=-7.017970D-01
              MO Center= -2.9D-01, -6.0D-01,  7.2D-02, r^2= 1.0D+01
   Bfn.  Coefficient  Atom+Function         Bfn.  Coefficient  Atom+Function  
  ----- ------------  ---------------      ----- ------------  ---------------
   320      0.186707  18 O  pz              244      0.171466  15 O  py        
   218     -0.169542  14 C  px              480     -0.165387  27 O  py        
   410     -0.158692  23 C  s               379      0.150216  21 C  pz        

 Vector   48  Occ=2.000000D+00  E=-6.986397D-01
              MO Center= -3.6D-01,  2.4D+00,  3.2D-01, r^2= 8.4D+00
   Bfn.  Coefficient  Atom+Function         Bfn.  Coefficient  Atom+Function  
  ----- ------------  ---------------      ----- ------------  ---------------
   219      0.201479  14 C  py              243     -0.196594  15 O  px        
   269     -0.176750  16 O  py              241      0.173152  15 O  s         
   173     -0.170120  11 C  s                80     -0.168689   6 O  s         
    18     -0.159636   2 C  py        

 Vector   49  Occ=2.000000D+00  E=-6.927683D-01
              MO Center= -3.1D-01, -7.0D-02,  2.6D-01, r^2= 1.2D+01
   Bfn.  Coefficient  Atom+Function         Bfn.  Coefficient  Atom+Function  
  ----- ------------  ---------------      ----- ------------  ---------------
   219      0.187116  14 C  py              269     -0.184068  16 O  py        
   409     -0.171540  23 C  s               243     -0.168427  15 O  px        

 Vector   50  Occ=2.000000D+00  E=-6.792524D-01
              MO Center=  1.8D-01,  3.1D-01, -2.5D-01, r^2= 1.3D+01
   Bfn.  Coefficient  Atom+Function         Bfn.  Coefficient  Atom+Function  
  ----- ------------  ---------------      ----- ------------  ---------------
   139      0.178555   9 C  s               410     -0.174169  23 C  s         
   555     -0.160954  30 O  py               80      0.157783   6 O  s         
    82      0.155818   6 O  px              320     -0.151968  18 O  pz        

 Vector   51  Occ=2.000000D+00  E=-6.707133D-01
              MO Center=  2.4D-01,  1.1D+00, -8.9D-02, r^2= 9.1D+00
   Bfn.  Coefficient  Atom+Function         Bfn.  Coefficient  Atom+Function  
  ----- ------------  ---------------      ----- ------------  ---------------
   343      0.178959  19 N  px              293      0.173053  17 C  px        
   173      0.172109  11 C  s               318      0.156999  18 O  px        
   399      0.152400  22 H  s         

 Vector   52  Occ=2.000000D+00  E=-6.634859D-01
              MO Center= -1.9D-01, -2.7D-01, -3.2D-01, r^2= 1.2D+01
   Bfn.  Coefficient  Atom+Function         Bfn.  Coefficient  Atom+Function  
  ----- ------------  ---------------      ----- ------------  ---------------
   556     -0.192509  30 O  pz              530      0.187183  29 C  py        
   552      0.162760  30 O  s               555     -0.159453  30 O  py        
   108     -0.151708   7 N  py              163     -0.151880  10 H  s         

 Vector   53  Occ=2.000000D+00  E=-6.522375D-01
              MO Center= -5.7D-02,  3.6D-01, -5.0D-01, r^2= 1.0D+01
   Bfn.  Coefficient  Atom+Function         Bfn.  Coefficient  Atom+Function  
  ----- ------------  ---------------      ----- ------------  ---------------
   163      0.231736  10 H  s               320      0.176619  18 O  pz        
   556     -0.168876  30 O  pz              139     -0.166584   9 C  s         
   530      0.163695  29 C  py               56     -0.160929   5 C  s         
   345      0.151562  19 N  pz        

 Vector   54  Occ=2.000000D+00  E=-6.423680D-01
              MO Center= -5.2D-02, -2.6D+00, -2.0D-01, r^2= 6.5D+00
   Bfn.  Coefficient  Atom+Function         Bfn.  Coefficient  Atom+Function  
  ----- ------------  ---------------      ----- ------------  ---------------
   555      0.236690  30 O  py              454     -0.200201  26 C  px        
   531     -0.184692  29 C  pz              505     -0.177502  28 O  py        

 Vector   55  Occ=2.000000D+00  E=-6.351249D-01
              MO Center= -2.0D-01, -3.3D-01, -2.4D-02, r^2= 1.1D+01
   Bfn.  Coefficient  Atom+Function         Bfn.  Coefficient  Atom+Function  
  ----- ------------  ---------------      ----- ------------  ---------------
   197      0.165883  12 H  s               220     -0.150975  14 C  pz        

 Vector   56  Occ=2.000000D+00  E=-6.223108D-01
              MO Center=  6.9D-01,  2.6D+00, -3.8D-01, r^2= 1.0D+01
   Bfn.  Coefficient  Atom+Function         Bfn.  Coefficient  Atom+Function  
  ----- ------------  ---------------      ----- ------------  ---------------
    16      0.217007   2 C  pz               35     -0.187850   3 H  s         
    44      0.186746   4 H  s                59      0.179645   5 C  pz        
    15      0.152461   2 C  py        

 Vector   57  Occ=2.000000D+00  E=-6.100677D-01
              MO Center= -3.8D-01,  1.1D+00,  7.2D-01, r^2= 8.1D+00
   Bfn.  Coefficient  Atom+Function         Bfn.  Coefficient  Atom+Function  
  ----- ------------  ---------------      ----- ------------  ---------------
   197      0.369915  12 H  s               176     -0.294546  11 C  py        
   196      0.266148  12 H  s               205     -0.170871  13 H  s         
   206     -0.169345  13 H  s               269     -0.154982  16 O  py        

 Vector   58  Occ=2.000000D+00  E=-6.005092D-01
              MO Center= -4.5D-01,  8.1D-01, -1.6D-01, r^2= 9.6D+00
   Bfn.  Coefficient  Atom+Function         Bfn.  Coefficient  Atom+Function  
  ----- ------------  ---------------      ----- ------------  ---------------
   173      0.295244  11 C  s               197     -0.224505  12 H  s         
   163     -0.216890  10 H  s               270     -0.194136  16 O  pz        
   380     -0.182167  21 C  px              409      0.175375  23 C  s         
   319      0.168024  18 O  py              375     -0.166791  21 C  s         
   245     -0.162873  15 O  pz              220     -0.160807  14 C  pz        

 Vector   59  Occ=2.000000D+00  E=-5.960591D-01
              MO Center=  4.5D-01, -2.1D+00, -4.4D-01, r^2= 8.7D+00
   Bfn.  Coefficient  Atom+Function         Bfn.  Coefficient  Atom+Function  
  ----- ------------  ---------------      ----- ------------  ---------------
   412      0.245514  23 C  py              432     -0.238951  24 H  s         
   442      0.202961  25 H  s               433     -0.182345  24 H  s         
   479     -0.181107  27 O  px              556     -0.181888  30 O  pz        

 Vector   60  Occ=2.000000D+00  E=-5.863351D-01
              MO Center=  1.3D+00,  2.6D+00, -2.7D-01, r^2= 8.2D+00
   Bfn.  Coefficient  Atom+Function         Bfn.  Coefficient  Atom+Function  
  ----- ------------  ---------------      ----- ------------  ---------------
    82      0.356403   6 O  px               57     -0.202974   5 C  px        
    58      0.200020   5 C  py               85      0.194389   6 O  px        
    80      0.160415   6 O  s               128     -0.160055   8 H  s         

 Vector   61  Occ=2.000000D+00  E=-5.841714D-01
              MO Center=  2.9D-01, -2.4D+00, -3.9D-01, r^2= 7.1D+00
   Bfn.  Coefficient  Atom+Function         Bfn.  Coefficient  Atom+Function  
  ----- ------------  ---------------      ----- ------------  ---------------
   411      0.256635  23 C  px              410      0.205001  23 C  s         
   433     -0.205781  24 H  s               441      0.202901  25 H  s         
   350      0.198041  19 N  py              480     -0.170979  27 O  py        
   555     -0.167236  30 O  py        

 Vector   62  Occ=2.000000D+00  E=-5.755079D-01
              MO Center= -2.3D-01,  1.9D+00,  7.7D-02, r^2= 9.2D+00
   Bfn.  Coefficient  Atom+Function         Bfn.  Coefficient  Atom+Function  
  ----- ------------  ---------------      ----- ------------  ---------------
   197      0.261562  12 H  s                14     -0.202677   2 C  px        
     1     -0.193592   1 H  s               177     -0.191057  11 C  pz        
   375     -0.191339  21 C  s               141     -0.189591   9 C  px        
   205     -0.167518  13 H  s               318      0.167306  18 O  px        
     2     -0.165275   1 H  s               180     -0.161912  11 C  pz        

 Vector   63  Occ=2.000000D+00  E=-5.628904D-01
              MO Center=  8.2D-01,  3.5D+00, -2.9D-01, r^2= 7.9D+00
   Bfn.  Coefficient  Atom+Function         Bfn.  Coefficient  Atom+Function  
  ----- ------------  ---------------      ----- ------------  ---------------
     1      0.307256   1 H  s                14      0.293967   2 C  px        
     2      0.250517   1 H  s               300      0.197252  17 C  py        
    73      0.195893   5 C  dxy             113      0.183971   7 N  px        
    13     -0.170077   2 C  s               108      0.154121   7 N  py        
    44     -0.152006   4 H  s               141     -0.151091   9 C  px        

 Vector   64  Occ=2.000000D+00  E=-5.341764D-01
              MO Center=  1.2D+00,  2.9D+00, -3.8D-01, r^2= 7.8D+00
   Bfn.  Coefficient  Atom+Function         Bfn.  Coefficient  Atom+Function  
  ----- ------------  ---------------      ----- ------------  ---------------
   109     -0.234026   7 N  pz               35     -0.220015   3 H  s         
    16      0.216051   2 C  pz               84     -0.214988   6 O  pz        
   112     -0.201586   7 N  pz              319     -0.201218  18 O  py        
    44      0.186463   4 H  s                45      0.173205   4 H  s         
    36     -0.168334   3 H  s                59     -0.156838   5 C  pz        

 Vector   65  Occ=2.000000D+00  E=-5.232218D-01
              MO Center=  1.3D+00, -3.0D+00,  1.0D+00, r^2= 7.3D+00
   Bfn.  Coefficient  Atom+Function         Bfn.  Coefficient  Atom+Function  
  ----- ------------  ---------------      ----- ------------  ---------------
   504     -0.334103  28 O  px              480      0.316674  27 O  py        
   350     -0.267406  19 N  py              506      0.261812  28 O  pz        
   483      0.257031  27 O  py              507     -0.250610  28 O  px        
   409      0.244382  23 C  s               481     -0.223662  27 O  pz        
   509      0.216344  28 O  pz              484     -0.204266  27 O  pz        

 Vector   66  Occ=2.000000D+00  E=-5.036896D-01
              MO Center=  8.2D-01, -2.3D+00,  9.8D-02, r^2= 9.3D+00
   Bfn.  Coefficient  Atom+Function         Bfn.  Coefficient  Atom+Function  
  ----- ------------  ---------------      ----- ------------  ---------------
   506      0.344805  28 O  pz              509      0.250363  28 O  pz        
   319     -0.232043  18 O  py              342      0.189859  19 N  s         
   322     -0.188574  18 O  py              410     -0.179038  23 C  s         
   481      0.177292  27 O  pz              554     -0.167866  30 O  px        
   413      0.166285  23 C  pz        

 Vector   67  Occ=2.000000D+00  E=-4.994485D-01
              MO Center=  6.6D-01, -9.7D-01, -1.6D-01, r^2= 1.0D+01
   Bfn.  Coefficient  Atom+Function         Bfn.  Coefficient  Atom+Function  
  ----- ------------  ---------------      ----- ------------  ---------------
   319      0.336072  18 O  py              506      0.320879  28 O  pz        
   322      0.265525  18 O  py              509      0.236793  28 O  pz        
   173     -0.151829  11 C  s         

 Vector   68  Occ=2.000000D+00  E=-4.917814D-01
              MO Center= -1.8D+00,  7.3D-01,  2.3D-01, r^2= 7.0D+00
   Bfn.  Coefficient  Atom+Function         Bfn.  Coefficient  Atom+Function  
  ----- ------------  ---------------      ----- ------------  ---------------
   243      0.309128  15 O  px              244     -0.304526  15 O  py        
    56     -0.269256   5 C  s               247     -0.250840  15 O  py        
   139     -0.248956   9 C  s               246      0.240403  15 O  px        
   173      0.215981  11 C  s               554     -0.191935  30 O  px        
   268     -0.174700  16 O  px              318      0.168694  18 O  px        

 Vector   69  Occ=2.000000D+00  E=-4.882523D-01
              MO Center= -1.6D+00,  1.1D+00,  5.7D-02, r^2= 8.2D+00
   Bfn.  Coefficient  Atom+Function         Bfn.  Coefficient  Atom+Function  
  ----- ------------  ---------------      ----- ------------  ---------------
   268      0.371298  16 O  px              271      0.303486  16 O  px        
   554     -0.213289  30 O  px              244      0.202156  15 O  py        
   270      0.197354  16 O  pz              163     -0.177699  10 H  s         
   557     -0.168688  30 O  px              245     -0.161726  15 O  pz        
   139      0.158524   9 C  s               318      0.150982  18 O  px        

 Vector   70  Occ=2.000000D+00  E=-4.810221D-01
              MO Center= -1.3D+00,  4.6D-01, -1.4D-01, r^2= 9.1D+00
   Bfn.  Coefficient  Atom+Function         Bfn.  Coefficient  Atom+Function  
  ----- ------------  ---------------      ----- ------------  ---------------
   270      0.270066  16 O  pz              554      0.261414  30 O  px        
   243      0.215219  15 O  px              557      0.209003  30 O  px        
   273      0.198798  16 O  pz              319     -0.184560  18 O  py        
   206      0.175960  13 H  s               268      0.163707  16 O  px        
   221     -0.158935  14 C  px              322     -0.154121  18 O  py        

 Vector   71  Occ=2.000000D+00  E=-4.560727D-01
              MO Center= -1.7D+00, -2.3D+00, -1.0D+00, r^2= 2.9D+00
   Bfn.  Coefficient  Atom+Function         Bfn.  Coefficient  Atom+Function  
  ----- ------------  ---------------      ----- ------------  ---------------
   581     -0.345024  31 N  pz              556      0.322871  30 O  pz        
   584     -0.291893  31 N  pz              580      0.262079  31 N  py        
   559      0.250485  30 O  pz              555     -0.234040  30 O  py        
   583      0.231918  31 N  py              558     -0.184919  30 O  py        
   410      0.178736  23 C  s         

 Vector   72  Occ=2.000000D+00  E=-4.352453D-01
              MO Center=  2.2D+00,  3.3D+00, -1.2D-01, r^2= 2.2D+00
   Bfn.  Coefficient  Atom+Function         Bfn.  Coefficient  Atom+Function  
  ----- ------------  ---------------      ----- ------------  ---------------
    83      0.433850   6 O  py               13      0.353648   2 C  s         
    86      0.340356   6 O  py               84     -0.295976   6 O  pz        
    64     -0.232539   5 C  py               87     -0.229169   6 O  pz        
   105      0.225940   7 N  s               410     -0.199109  23 C  s         
    18      0.188457   2 C  py               15      0.183319   2 C  py        

 Vector   73  Occ=2.000000D+00  E=-4.311416D-01
              MO Center=  1.6D-02, -1.7D+00, -4.6D-01, r^2= 8.1D+00
   Bfn.  Coefficient  Atom+Function         Bfn.  Coefficient  Atom+Function  
  ----- ------------  ---------------      ----- ------------  ---------------
   554     -0.305874  30 O  px              343      0.285273  19 N  px        
   346      0.274852  19 N  px              557     -0.236696  30 O  px        
   318     -0.207614  18 O  px               56      0.174140   5 C  s         
   321     -0.165237  18 O  px              377     -0.162132  21 C  px        
   479      0.152923  27 O  px        

 Vector   74  Occ=2.000000D+00  E=-4.201843D-01
              MO Center=  1.1D+00,  2.5D+00,  1.1D-01, r^2= 4.5D+00
   Bfn.  Coefficient  Atom+Function         Bfn.  Coefficient  Atom+Function  
  ----- ------------  ---------------      ----- ------------  ---------------
   109      0.391198   7 N  pz              112      0.347818   7 N  pz        
    84     -0.278174   6 O  pz               83     -0.233522   6 O  py        
    87     -0.212332   6 O  pz               86     -0.183750   6 O  py        

 Vector   75  Occ=2.000000D+00  E=-3.811314D-01
              MO Center= -1.0D+00, -2.0D-01,  9.0D-01, r^2= 1.3D+01
   Bfn.  Coefficient  Atom+Function         Bfn.  Coefficient  Atom+Function  
  ----- ------------  ---------------      ----- ------------  ---------------
   245      0.308612  15 O  pz              248      0.245288  15 O  pz        
   268      0.243521  16 O  px              479      0.212149  27 O  px        
   271      0.199136  16 O  px              270     -0.181969  16 O  pz        
   481      0.178979  27 O  pz              482      0.179657  27 O  px        
   505     -0.175082  28 O  py              273     -0.153932  16 O  pz        

 Vector   76  Occ=0.000000D+00  E=-2.838215D-01
              MO Center= -3.4D-01, -1.0D+00,  6.0D-01, r^2= 1.1D+01
   Bfn.  Coefficient  Atom+Function         Bfn.  Coefficient  Atom+Function  
  ----- ------------  ---------------      ----- ------------  ---------------
   245      0.234494  15 O  pz              479     -0.224353  27 O  px        
   481     -0.201972  27 O  pz              343      0.199946  19 N  px        
   346      0.199498  19 N  px              482     -0.190391  27 O  px        
   248      0.185342  15 O  pz              268      0.178734  16 O  px        
   505      0.174742  28 O  py              528      0.169871  29 C  s         

 Vector   77  Occ=0.000000D+00  E= 2.268604D-02
              MO Center=  1.3D+00,  1.1D-01,  1.9D+00, r^2= 2.5D+01
   Bfn.  Coefficient  Atom+Function         Bfn.  Coefficient  Atom+Function  
  ----- ------------  ---------------      ----- ------------  ---------------
   217      3.667535  14 C  s               453      3.325478  26 C  s         
    56      2.987148   5 C  s               198     -2.528341  12 H  s         
   164     -2.377143  10 H  s               292      2.221297  17 C  s         
   183      2.078095  11 C  pz              147      1.995183   9 C  px        
   602      1.950085  32 H  s               443     -1.816648  25 H  s         

 Vector   78  Occ=0.000000D+00  E= 3.161690D-02
              MO Center=  1.6D+00, -8.3D-01, -1.7D-01, r^2= 3.1D+01
   Bfn.  Coefficient  Atom+Function         Bfn.  Coefficient  Atom+Function  
  ----- ------------  ---------------      ----- ------------  ---------------
    56      3.157792   5 C  s               207     -2.678103  13 H  s         
   443      2.364577  25 H  s               400      2.115696  22 H  s         
   183      1.594690  11 C  pz              383     -1.458401  21 C  px        
   417     -1.395144  23 C  px              528     -1.355752  29 C  s         
   173      1.293950  11 C  s               578     -1.220996  31 N  s         

 Vector   79  Occ=0.000000D+00  E= 3.849757D-02
              MO Center=  6.1D-01,  4.3D+00, -5.5D-01, r^2= 3.4D+01
   Bfn.  Coefficient  Atom+Function         Bfn.  Coefficient  Atom+Function  
  ----- ------------  ---------------      ----- ------------  ---------------
    64      4.324139   5 C  py              148      3.152633   9 C  py        
   198      2.300587  12 H  s               410      2.232600  23 C  s         
   453     -2.242967  26 C  s                46     -2.126878   4 H  s         
    65     -2.070638   5 C  pz               12      2.044313   2 C  s         
    37     -1.755579   3 H  s                 3     -1.610995   1 H  s         

 Vector   80  Occ=0.000000D+00  E= 3.903348D-02
              MO Center= -2.2D+00, -1.4D+00, -3.1D-01, r^2= 3.0D+01
   Bfn.  Coefficient  Atom+Function         Bfn.  Coefficient  Atom+Function  
  ----- ------------  ---------------      ----- ------------  ---------------
   217      3.522832  14 C  s               611     -2.886686  33 H  s         
   164      2.465842  10 H  s                64      2.301863   5 C  py        
   148      2.095553   9 C  py              342      2.028882  19 N  s         
   578     -1.896120  31 N  s               198     -1.878100  12 H  s         
   443      1.667474  25 H  s               535     -1.651527  29 C  px        

 Vector   81  Occ=0.000000D+00  E= 4.961349D-02
              MO Center=  7.9D-01,  7.0D-01,  3.9D-01, r^2= 4.1D+01
   Bfn.  Coefficient  Atom+Function         Bfn.  Coefficient  Atom+Function  
  ----- ------------  ---------------      ----- ------------  ---------------
   207      4.237916  13 H  s               410     -4.247515  23 C  s         
   164     -3.001885  10 H  s                56     -2.836636   5 C  s         
   400      2.809221  22 H  s               453      2.576772  26 C  s         
   528      2.422087  29 C  s               183     -2.381750  11 C  pz        
   578     -2.393005  31 N  s               300      2.304716  17 C  py        

 Vector   82  Occ=0.000000D+00  E= 5.546399D-02
              MO Center=  7.8D-01, -1.2D+00, -1.6D+00, r^2= 4.2D+01
   Bfn.  Coefficient  Atom+Function         Bfn.  Coefficient  Atom+Function  
  ----- ------------  ---------------      ----- ------------  ---------------
   434     -4.538401  24 H  s               400      4.183217  22 H  s         
   410     -3.860448  23 C  s               453      3.468014  26 C  s         
   385      3.417637  21 C  pz               37      2.379154   3 H  s         
    46     -2.356977   4 H  s               418     -2.209728  23 C  py        
   300     -2.184382  17 C  py               56     -2.165320   5 C  s         

 Vector   83  Occ=0.000000D+00  E= 5.744014D-02
              MO Center= -5.1D-01,  7.9D-01,  5.3D-01, r^2= 4.2D+01
   Bfn.  Coefficient  Atom+Function         Bfn.  Coefficient  Atom+Function  
  ----- ------------  ---------------      ----- ------------  ---------------
   198      6.617376  12 H  s               453     -5.040271  26 C  s         
   410      3.991248  23 C  s               217      3.937366  14 C  s         
   174     -3.905905  11 C  s               578     -3.149057  31 N  s         
   434      2.707192  24 H  s               182      2.632884  11 C  py        
   300     -2.423022  17 C  py               37      2.297161   3 H  s         

 Vector   84  Occ=0.000000D+00  E= 6.140728D-02
              MO Center=  1.0D+00,  7.0D-01, -2.8D-01, r^2= 4.0D+01
   Bfn.  Coefficient  Atom+Function         Bfn.  Coefficient  Atom+Function  
  ----- ------------  ---------------      ----- ------------  ---------------
   443      4.754188  25 H  s               164     -4.063982  10 H  s         
   217     -3.876055  14 C  s               528     -3.487904  29 C  s         
   400     -3.268464  22 H  s               174      3.209940  11 C  s         
   147      2.962977   9 C  px              198      2.875960  12 H  s         
     3     -2.764578   1 H  s               300     -2.514467  17 C  py        

 Vector   85  Occ=0.000000D+00  E= 6.338838D-02
              MO Center=  1.2D+00,  1.8D+00, -5.7D-01, r^2= 4.4D+01
   Bfn.  Coefficient  Atom+Function         Bfn.  Coefficient  Atom+Function  
  ----- ------------  ---------------      ----- ------------  ---------------
   453      6.038146  26 C  s                13      5.517492   2 C  s         
     3      4.796575   1 H  s               366     -4.528213  20 H  s         
   410     -4.149019  23 C  s               148     -4.015370   9 C  py        
   443      3.334668  25 H  s               198      3.197802  12 H  s         
    64     -3.073801   5 C  py              434     -2.960617  24 H  s         

 Vector   86  Occ=0.000000D+00  E= 7.183898D-02
              MO Center=  1.0D-01,  1.9D+00,  1.0D-01, r^2= 4.2D+01
   Bfn.  Coefficient  Atom+Function         Bfn.  Coefficient  Atom+Function  
  ----- ------------  ---------------      ----- ------------  ---------------
   198      4.521642  12 H  s                46      4.346858   4 H  s         
   207     -4.217602  13 H  s               400      3.975712  22 H  s         
    37     -2.886796   3 H  s               385      2.540454  21 C  pz        
   182      2.477745  11 C  py              528      2.300032  29 C  s         
   217      2.222953  14 C  s               434     -2.073853  24 H  s         

 Vector   87  Occ=0.000000D+00  E= 8.300471D-02
              MO Center= -1.7D+00,  1.4D+00,  4.3D-01, r^2= 3.7D+01
   Bfn.  Coefficient  Atom+Function         Bfn.  Coefficient  Atom+Function  
  ----- ------------  ---------------      ----- ------------  ---------------
   217     15.663140  14 C  s               164     -6.070342  10 H  s         
   602     -5.804328  32 H  s               147      5.332324   9 C  px        
   207      4.667577  13 H  s               224      4.562222  14 C  px        
   130     -4.454688   8 H  s               174     -4.189116  11 C  s         
   366      4.160499  20 H  s               148      3.567644   9 C  py        

 Vector   88  Occ=0.000000D+00  E= 8.353247D-02
              MO Center=  8.0D-01, -1.2D+00,  1.3D+00, r^2= 4.0D+01
   Bfn.  Coefficient  Atom+Function         Bfn.  Coefficient  Atom+Function  
  ----- ------------  ---------------      ----- ------------  ---------------
   453     13.507297  26 C  s               366    -10.574270  20 H  s         
   198      7.538923  12 H  s               410     -6.863982  23 C  s         
   164      5.768926  10 H  s               207     -4.626112  13 H  s         
   384      3.859501  21 C  py              217      3.477836  14 C  s         
   461      3.438217  26 C  py               13     -3.395762   2 C  s         

 Vector   89  Occ=0.000000D+00  E= 9.282014D-02
              MO Center=  3.2D-01,  4.4D-01,  1.5D-01, r^2= 3.4D+01
   Bfn.  Coefficient  Atom+Function         Bfn.  Coefficient  Atom+Function  
  ----- ------------  ---------------      ----- ------------  ---------------
    56     11.204099   5 C  s                13     -6.073084   2 C  s         
   602     -4.891405  32 H  s               366      3.500850  20 H  s         
   351     -2.957279  19 N  pz              139      2.661066   9 C  s         
   300      2.669854  17 C  py              148     -2.568730   9 C  py        
   217     -2.526895  14 C  s                12     -2.487108   2 C  s         

 Vector   90  Occ=0.000000D+00  E= 9.690173D-02
              MO Center=  1.2D+00, -1.1D+00,  1.1D+00, r^2= 2.5D+01
[...]
   410     19.305759  23 C  s                13    -14.241632   2 C  s         
   528    -12.320063  29 C  s                56     11.331154   5 C  s         
    64      7.892677   5 C  py              383     -7.823780  21 C  px        
   385     -7.794589  21 C  pz              300      7.371476  17 C  py        
   417     -7.402080  23 C  px              149      6.477653   9 C  pz        

 Vector  177  Occ=0.000000D+00  E= 4.137758D-01
              MO Center= -2.7D-01,  7.5D-01,  2.3D-01, r^2= 2.2D+01
   Bfn.  Coefficient  Atom+Function         Bfn.  Coefficient  Atom+Function  
  ----- ------------  ---------------      ----- ------------  ---------------
   453     10.276789  26 C  s               410     -8.527071  23 C  s         
   528     -7.157594  29 C  s                56     -6.327659   5 C  s         
   174      5.203138  11 C  s                63      5.092934   5 C  px        
   384      5.106763  21 C  py              366      4.848662  20 H  s         
   148      4.672505   9 C  py              586     -4.550984  31 N  py        

 Vector  178  Occ=0.000000D+00  E= 4.198426D-01
              MO Center=  2.7D-01,  1.8D-02, -2.6D-01, r^2= 2.3D+01
   Bfn.  Coefficient  Atom+Function         Bfn.  Coefficient  Atom+Function  
  ----- ------------  ---------------      ----- ------------  ---------------
   106     15.101063   7 N  s               453    -10.417491  26 C  s         
   528     -9.800162  29 C  s                64      9.356435   5 C  py        
   301     -8.636649  17 C  pz              217      7.849821  14 C  s         
    13     -7.701849   2 C  s               147      7.668870   9 C  px        
   300     -6.725201  17 C  py              384     -5.649359  21 C  py        

 Vector  179  Occ=0.000000D+00  E= 4.240307D-01
              MO Center= -7.0D-01,  7.4D-01,  1.3D-01, r^2= 2.3D+01
   Bfn.  Coefficient  Atom+Function         Bfn.  Coefficient  Atom+Function  
  ----- ------------  ---------------      ----- ------------  ---------------
   342      8.811741  19 N  s               410     -7.941664  23 C  s         
   206      6.684393  13 H  s               578      6.596547  31 N  s         
   173     -6.471537  11 C  s                64      5.645171   5 C  py        
   147      5.572904   9 C  px              535      5.450904  29 C  px        
   149      5.377691   9 C  pz              453      5.237427  26 C  s         

 Vector  180  Occ=0.000000D+00  E= 4.284041D-01
              MO Center=  2.5D-01, -2.4D-01, -1.8D-01, r^2= 2.2D+01
   Bfn.  Coefficient  Atom+Function         Bfn.  Coefficient  Atom+Function  
  ----- ------------  ---------------      ----- ------------  ---------------
    56     12.271960   5 C  s               174    -11.499645  11 C  s         
   300     -9.416483  17 C  py              578     -9.455812  31 N  s         
   217      7.314398  14 C  s               351      6.821005  19 N  pz        
   114     -6.574651   7 N  py              350      6.434725  19 N  py        
   113     -5.917785   7 N  px              410      4.976020  23 C  s         

 Vector  181  Occ=0.000000D+00  E= 4.366740D-01
              MO Center=  6.2D-01,  1.1D+00,  6.7D-02, r^2= 2.4D+01
   Bfn.  Coefficient  Atom+Function         Bfn.  Coefficient  Atom+Function  
  ----- ------------  ---------------      ----- ------------  ---------------
   350    -18.962897  19 N  py              174     18.248865  11 C  s         
    56    -16.080624   5 C  s                13     12.916998   2 C  s         
   149    -12.756464   9 C  pz              106    -11.711067   7 N  s         
   147      8.648273   9 C  px              528     -6.701582  29 C  s         
    64     -6.230553   5 C  py              292      5.700117  17 C  s         

 Vector  182  Occ=0.000000D+00  E= 4.377310D-01
              MO Center=  7.8D-01,  3.0D+00, -6.2D-01, r^2= 2.3D+01
   Bfn.  Coefficient  Atom+Function         Bfn.  Coefficient  Atom+Function  
  ----- ------------  ---------------      ----- ------------  ---------------
   453     13.918204  26 C  s               300      9.897851  17 C  py        
   114      9.545928   7 N  py               56     -9.495672   5 C  s         
    13     -8.865295   2 C  s               410     -7.942099  23 C  s         
   528      7.968692  29 C  s               113      6.322248   7 N  px        
    45      5.944616   4 H  s                64      5.949883   5 C  py        

 Vector  183  Occ=0.000000D+00  E= 4.410530D-01
              MO Center=  4.1D-03,  6.8D-01, -4.8D-01, r^2= 2.3D+01
   Bfn.  Coefficient  Atom+Function         Bfn.  Coefficient  Atom+Function  
  ----- ------------  ---------------      ----- ------------  ---------------
   528     21.740629  29 C  s               300     18.178964  17 C  py        
   453    -16.836525  26 C  s               174    -14.360209  11 C  s         
   366     12.792805  20 H  s               376     12.103078  21 C  s         
   301     10.682093  17 C  pz              578     -8.942649  31 N  s         
   292     -8.791533  17 C  s               342      8.758164  19 N  s         

 Vector  184  Occ=0.000000D+00  E= 4.467930D-01
              MO Center= -2.3D-02,  1.2D-01, -3.7D-01, r^2= 2.2D+01
   Bfn.  Coefficient  Atom+Function         Bfn.  Coefficient  Atom+Function  
  ----- ------------  ---------------      ----- ------------  ---------------
   578     16.260398  31 N  s               453     15.618440  26 C  s         
   300     14.378914  17 C  py              528    -13.795940  29 C  s         
   342     13.486374  19 N  s                13    -12.670080   2 C  s         
   410    -11.420516  23 C  s               409     -8.187964  23 C  s         
   376     -8.110487  21 C  s               442      8.114394  25 H  s         

 Vector  185  Occ=0.000000D+00  E= 4.477119D-01
              MO Center=  5.1D-01,  6.3D-01,  1.2D-03, r^2= 2.5D+01
   Bfn.  Coefficient  Atom+Function         Bfn.  Coefficient  Atom+Function  
  ----- ------------  ---------------      ----- ------------  ---------------
    56     14.524990   5 C  s               174    -14.247071  11 C  s         
    12     -9.661099   2 C  s               114     -9.496042   7 N  py        
   350      7.997074  19 N  py              342      7.527493  19 N  s         
   300      7.375045  17 C  py              115      6.403711   7 N  pz        
   148     -6.009743   9 C  py               45      5.879625   4 H  s         

 Vector  186  Occ=0.000000D+00  E= 4.508604D-01
              MO Center=  1.1D-01,  7.2D-01, -5.4D-01, r^2= 2.2D+01
   Bfn.  Coefficient  Atom+Function         Bfn.  Coefficient  Atom+Function  
  ----- ------------  ---------------      ----- ------------  ---------------
   528     18.645891  29 C  s                56    -13.531167   5 C  s         
   410    -13.274139  23 C  s               342    -11.635126  19 N  s         
    13     10.663694   2 C  s               174     10.218248  11 C  s         
   301      9.174728  17 C  pz              383      8.953179  21 C  px        
   113      8.772724   7 N  px              376      8.630918  21 C  s         

 Vector  187  Occ=0.000000D+00  E= 4.518711D-01
              MO Center= -3.3D-01, -5.4D-02, -3.0D-01, r^2= 2.0D+01
   Bfn.  Coefficient  Atom+Function         Bfn.  Coefficient  Atom+Function  
  ----- ------------  ---------------      ----- ------------  ---------------
   292    -15.996795  17 C  s                13     14.672029   2 C  s         
   528     12.920165  29 C  s               342    -12.248502  19 N  s         
   148    -10.085573   9 C  py               64     -8.199768   5 C  py        
   300      8.239241  17 C  py               56     -7.916565   5 C  s         
   351     -7.830860  19 N  pz              349      6.864763  19 N  px        

 Vector  188  Occ=0.000000D+00  E= 4.600063D-01
              MO Center=  7.3D-01, -1.1D+00, -1.9D-01, r^2= 2.3D+01
   Bfn.  Coefficient  Atom+Function         Bfn.  Coefficient  Atom+Function  
  ----- ------------  ---------------      ----- ------------  ---------------
   453     31.186001  26 C  s               410    -25.852821  23 C  s         
   217     20.081485  14 C  s                56    -12.942014   5 C  s         
    13     10.366311   2 C  s               149     -8.995679   9 C  pz        
   350     -8.965520  19 N  py              478     -8.463238  27 O  s         
   181      8.300218  11 C  px              409     -8.233912  23 C  s         

 Vector  189  Occ=0.000000D+00  E= 4.646750D-01
              MO Center=  1.4D-01, -6.8D-01, -2.2D-01, r^2= 2.0D+01
   Bfn.  Coefficient  Atom+Function         Bfn.  Coefficient  Atom+Function  
  ----- ------------  ---------------      ----- ------------  ---------------
    13     14.237963   2 C  s               342     13.907092  19 N  s         
   410    -10.678718  23 C  s               383     10.618065  21 C  px        
   148     -9.274518   9 C  py              174     -8.143472  11 C  s         
   602      7.951095  32 H  s                64     -7.800339   5 C  py        
   106      7.210502   7 N  s               433      5.971239  24 H  s         

 Vector  190  Occ=0.000000D+00  E= 4.673388D-01
              MO Center=  1.3D-01, -2.7D-01, -1.2D-01, r^2= 2.0D+01
   Bfn.  Coefficient  Atom+Function         Bfn.  Coefficient  Atom+Function  
  ----- ------------  ---------------      ----- ------------  ---------------
   300     11.967740  17 C  py              342      9.589837  19 N  s         
    56     -8.197603   5 C  s               292     -7.213809  17 C  s         
    13      7.024719   2 C  s               174     -6.728774  11 C  s         
   528      6.567411  29 C  s               148     -6.468150   9 C  py        
   139     -5.975012   9 C  s               409     -5.899626  23 C  s         

 Vector  191  Occ=0.000000D+00  E= 4.739491D-01
              MO Center=  2.4D-01,  4.4D-01, -1.7D-01, r^2= 2.0D+01
   Bfn.  Coefficient  Atom+Function         Bfn.  Coefficient  Atom+Function  
  ----- ------------  ---------------      ----- ------------  ---------------
   528     21.018452  29 C  s               292    -16.171361  17 C  s         
    13     14.596093   2 C  s               148    -12.619683   9 C  py        
   300     10.967109  17 C  py              147    -10.102139   9 C  px        
   174     -9.479075  11 C  s               366     -8.370296  20 H  s         
   384      7.731492  21 C  py              106      7.599940   7 N  s         

 Vector  192  Occ=0.000000D+00  E= 4.779975D-01
              MO Center=  4.3D-01, -9.5D-01, -1.7D-01, r^2= 2.1D+01
   Bfn.  Coefficient  Atom+Function         Bfn.  Coefficient  Atom+Function  
  ----- ------------  ---------------      ----- ------------  ---------------
    56     24.440923   5 C  s               410     18.159710  23 C  s         
   174    -15.642807  11 C  s               300    -15.443524  17 C  py        
   528    -11.973169  29 C  s               217      8.491434  14 C  s         
    13     -7.572784   2 C  s               113     -7.598894   7 N  px        
   376     -6.822710  21 C  s               350      6.749394  19 N  py        

 Vector  193  Occ=0.000000D+00  E= 4.818496D-01
              MO Center= -5.1D-01,  2.4D-01,  1.3D-01, r^2= 2.3D+01
   Bfn.  Coefficient  Atom+Function         Bfn.  Coefficient  Atom+Function  
  ----- ------------  ---------------      ----- ------------  ---------------
   384     21.354228  21 C  py              300     20.063115  17 C  py        
    13    -17.947254   2 C  s               453     17.917745  26 C  s         
    56     14.125036   5 C  s               106    -12.595955   7 N  s         
   301     10.895609  17 C  pz              410     10.714008  23 C  s         
   578      9.022210  31 N  s                12     -8.775115   2 C  s         

 Vector  194  Occ=0.000000D+00  E= 4.863694D-01
              MO Center= -4.0D-01,  4.2D-01,  8.3D-02, r^2= 1.9D+01
   Bfn.  Coefficient  Atom+Function         Bfn.  Coefficient  Atom+Function  
  ----- ------------  ---------------      ----- ------------  ---------------
   410     10.242108  23 C  s               174      9.731783  11 C  s         
   384      9.519968  21 C  py              149     -7.769134   9 C  pz        
   217     -6.813235  14 C  s               267      6.607601  16 O  s         
   342     -5.985445  19 N  s               139     -5.719247   9 C  s         
   376     -5.733814  21 C  s               113      5.129748   7 N  px        

 Vector  195  Occ=0.000000D+00  E= 4.892523D-01
              MO Center=  6.7D-02,  7.5D-01, -1.4D-01, r^2= 2.0D+01
   Bfn.  Coefficient  Atom+Function         Bfn.  Coefficient  Atom+Function  
  ----- ------------  ---------------      ----- ------------  ---------------
   410     27.375690  23 C  s               528    -15.776140  29 C  s         
    13    -14.817485   2 C  s                56     13.620147   5 C  s         
   383    -11.893730  21 C  px              376    -10.289392  21 C  s         
   342     -7.185414  19 N  s               300     -6.224036  17 C  py        
   442     -6.244787  25 H  s               366     -6.023732  20 H  s         

 Vector  196  Occ=0.000000D+00  E= 4.923520D-01
              MO Center=  2.0D-01, -2.3D-01,  1.9D-01, r^2= 1.9D+01
   Bfn.  Coefficient  Atom+Function         Bfn.  Coefficient  Atom+Function  
  ----- ------------  ---------------      ----- ------------  ---------------
   217    -21.918129  14 C  s               174     20.737952  11 C  s         
   342    -18.518016  19 N  s               528     13.286722  29 C  s         
   173     12.448661  11 C  s               292     11.026664  17 C  s         
   206    -10.721098  13 H  s               453     -9.899732  26 C  s         
   140      9.620238   9 C  s               197     -8.755806  12 H  s         

 Vector  197  Occ=0.000000D+00  E= 5.025336D-01
              MO Center=  2.2D-01,  6.8D-01, -2.1D-01, r^2= 2.0D+01
   Bfn.  Coefficient  Atom+Function         Bfn.  Coefficient  Atom+Function  
  ----- ------------  ---------------      ----- ------------  ---------------
    13     30.191191   2 C  s                64    -16.944293   5 C  py        
   292    -16.584192  17 C  s                56    -16.069029   5 C  s         
   528     11.976580  29 C  s               410    -10.526963  23 C  s         
    12      8.997445   2 C  s                45     -6.935891   4 H  s         
   553     -6.970516  30 O  s               106      6.822514   7 N  s         


 center of mass
 --------------
 x =  -0.01941059 y =  -0.06313892 z =   0.00722370

 moments of inertia (a.u.)
 ------------------
        8935.205356039836          -0.000000000002           0.000000000001
          -0.000000000002        3653.930685212286          -0.000000000001
           0.000000000001          -0.000000000001       10412.447120387402

  Mulliken analysis of the total density
  --------------------------------------

    Atom       Charge   Shell Charges
 -----------   ------   -------------------------------------------------------
    1 H    1     1.00   0.76  0.25  0.02  0.03 -0.06
    2 C    6     6.56   2.01  0.66  0.38  0.26  2.07  1.00 -0.01  0.06  0.13
    3 H    1     0.81   0.76  0.08  0.00  0.03 -0.07
    4 H    1     0.80   0.76  0.07  0.00  0.03 -0.07
    5 C    6     5.00   2.01  0.68  0.14 -0.15  1.90  0.26 -0.05  0.24 -0.01
    6 O    8     8.73   2.01  0.82  1.00  0.17  2.79  1.82  0.14  0.01 -0.02
    7 N    7     7.70   2.01  0.72  0.81 -0.05  2.46  1.42  0.25  0.05  0.02
    8 H    1     0.89   0.73  0.20  0.00  0.06 -0.11
    9 C    6     6.41   2.01  0.66  0.16 -0.00  1.99  1.29  0.03  0.14  0.14
   10 H    1     1.04   0.77  0.26 -0.00  0.03 -0.01
   11 C    6     6.17   2.01  0.67  0.59 -0.11  2.03  0.73  0.04  0.09  0.12
   12 H    1     0.98   0.78  0.24 -0.02  0.03 -0.05
   13 H    1     0.96   0.77  0.24 -0.01  0.03 -0.06
   14 C    6     4.37   2.01  0.68  0.01 -0.19  1.87 -0.02 -0.03  0.26 -0.22
   15 O    8     8.65   2.01  0.83  1.01  0.17  2.73  1.78  0.14  0.01 -0.03
   16 O    8     8.72   2.01  0.83  1.02  0.18  2.74  1.82  0.14  0.01 -0.02
   17 C    6     4.65   2.01  0.68  0.05  0.05  1.90  0.08 -0.01  0.23 -0.34
   18 O    8     8.70   2.01  0.83  1.04  0.15  2.75  1.82  0.11  0.01 -0.01
   19 N    7     7.35   2.01  0.73  0.74 -0.14  2.40  1.43  0.14  0.05 -0.01
   20 H    1     0.91   0.73  0.25 -0.03  0.06 -0.09
   21 C    6     6.23   2.01  0.67 -0.03  0.03  1.99  1.31  0.02  0.13  0.10
   22 H    1     1.00   0.76  0.22 -0.00  0.03  0.00
   23 C    6     6.82   2.01  0.67  0.63  0.22  2.03  0.92  0.01  0.08  0.25
   24 H    1     0.81   0.75  0.09  0.00  0.03 -0.06
   25 H    1     0.74   0.76  0.00  0.01  0.03 -0.06
   26 C    6     4.51   2.01  0.68  0.05 -0.28  1.87  0.13 -0.04  0.26 -0.18
   27 O    8     8.55   2.01  0.84  1.00  0.13  2.71  1.75  0.13  0.01 -0.04
   28 O    8     8.61   2.01  0.84  1.02  0.17  2.72  1.74  0.12  0.01 -0.03
   29 C    6     4.57   2.01  0.68  0.08  0.05  1.88 -0.20  0.00  0.23 -0.15
   30 O    8     8.73   2.01  0.82  1.04  0.16  2.77  1.81  0.11  0.01 -0.01
   31 N    7     7.11   2.01  0.72  0.83 -0.24  2.45  1.21  0.11  0.04 -0.02
   32 H    1     0.89   0.74  0.25 -0.04  0.06 -0.12
   33 H    1     1.01   0.75  0.24 -0.00  0.06 -0.03

       Multipole analysis of the density wrt the origin
       ------------------------------------------------

     L   x y z        total         open         nuclear
     -   - - -        -----         ----         -------
     0   0 0 0     -0.000000      0.000000    150.000000

     1   1 0 0      0.186431      0.000000      0.000000
     1   0 1 0      0.265424      0.000000      0.000000
     1   0 0 1      0.430954      0.000000      0.000000

     2   2 0 0   -102.568045      0.000000   1336.514384
     2   1 1 0      0.616828      0.000000     26.969601
     2   1 0 1     -4.886212      0.000000    -14.650291
     2   0 2 0   -101.700800      0.000000   4154.900257
     2   0 1 1      3.950015      0.000000      4.038450
     2   0 0 2    -90.223734      0.000000    584.335875

 ------------------------------------------------------------------------
 scf energy failed                                                                                  0
 ------------------------------------------------------------------------
 ------------------------------------------------------------------------
  current input line : 
    48: task scf energy
 ------------------------------------------------------------------------
 ------------------------------------------------------------------------
 This type of error is most commonly associated with calculations not reaching convergence criteria
 ------------------------------------------------------------------------
 For more information see the NWChem manual at https://nwchemgit.github.io


 For further details see manual section:                                                                                                                                                                                                                                                                
0:scf energy failed:Received an Error in Communication
--------------------------------------------------------------------------
MPI_ABORT was invoked on rank 0 in communicator MPI COMMUNICATOR 3 DUP FROM 0
with errorcode -1.

NOTE: invoking MPI_ABORT causes Open MPI to kill all MPI processes.
You may or may not see output from other processes, depending on
exactly when Open MPI kills them.
--------------------------------------------------------------------------
slurmstepd: error: *** STEP 6619389.96 ON nova21-speedy-11 CANCELLED AT 2025-07-11T03:00:03 ***
srun: Job step aborted: Waiting up to 32 seconds for job step to finish.
srun: error: nova21-speedy-11: task 0: Exited with exit code 255
srun: error: nova21-speedy-11: tasks 1-7: Killed
