export TMOUT=5400
export TMPDIR=/tmp
export PTMPDIR=/tmp/ptmp
 argument  1 = inputs/ASP_ASP_0.nw



============================== echo of input deck ==============================
start ASP_ASP_0
geometry
H          3.87600       -4.32800        5.48300
C          3.69300       -3.65100        4.64900
H          4.62700       -3.19600        4.32600
H          2.97700       -2.88900        4.94700
C          3.11200       -4.45600        3.51400
O          1.93500       -4.31400        3.19700
N          3.94400       -5.29200        2.90300
H          4.93200       -5.25100        3.13600
C          3.58400       -6.20200        1.80600
H          3.09300       -5.61500        1.03000
C          4.86300       -6.81600        1.19800
H          5.24000       -7.57900        1.88200
H          4.60000       -7.31700        0.26400
C          5.99900       -5.81300        0.94000
O          6.30800       -5.57900       -0.25100
O          6.57000       -5.30500        1.93500
C          2.60100       -7.32100        2.22200
O          1.99900       -7.96800        1.36500
N          2.41900       -7.54600        3.52800
H          2.90500       -6.94400        4.18800
C          1.38700       -8.40800        4.11600
H          1.23300       -9.26400        3.45900
C          1.86700       -8.94000        5.48400
H          1.08400       -9.57700        5.90000
H          2.73600       -9.57700        5.30900
C          2.26100       -7.88600        6.53700
O          2.38200       -8.29400        7.71500
O          2.47100       -6.70300        6.18000
C          0.01800       -7.70700        4.26000
O         -1.00800       -8.35800        4.45500
N         -0.05100       -6.38700        4.13800
H         -0.93800       -5.93400        4.23900
H          0.79900       -5.85800        3.98200
end

basis
 * library aug-cc-pvdz
end

echo

scf
 direct
end

task scf energy
================================================================================


                                         
                                         


             Northwest Computational Chemistry Package (NWChem) 7.2.0
             --------------------------------------------------------


                    Environmental Molecular Sciences Laboratory
                       Pacific Northwest National Laboratory
                                Richland, WA 99352

                              Copyright (c) 1994-2022
                       Pacific Northwest National Laboratory
                            Battelle Memorial Institute

             NWChem is an open-source computational chemistry package
                        distributed under the terms of the
                      Educational Community License (ECL) 2.0
             A copy of the license is included with this distribution
                              in the LICENSE.TXT file

                                  ACKNOWLEDGMENT
                                  --------------

            This software and its documentation were developed at the
            EMSL at Pacific Northwest National Laboratory, a multiprogram
            national laboratory, operated for the U.S. Department of Energy
            by Battelle under Contract Number DE-AC05-76RL01830. Support
            for this work was provided by the Department of Energy Office
            of Biological and Environmental Research, Office of Basic
            Energy Sciences, and the Office of Advanced Scientific Computing.


           Job information
           ---------------

    hostname        = nova21-speedy-12
    program         = /opt/rit/el9/20230413/app/linux-rhel9-x86_64_v3/gcc-11.2.1/nwchem-7.2.0-oxtctbuhfuzyfaoziquq6bki22grib3g/bin/nwchem
    date            = Thu Jul 10 17:10:02 2025

    compiled        = Wed_May_17_23:46:39_2023
    source          = /tmp/root/spack-stage/spack-stage-nwchem-7.2.0-oxtctbuhfuzyfaoziquq6bki22grib3g/spack-src
    nwchem branch   = 7.2.0
    nwchem revision = d0d141fd
    ga revision     = 5.8.0
    use scalapack   = T
    input           = inputs/ASP_ASP_0.nw
    prefix          = ASP_ASP_0.
    data base       = ./ASP_ASP_0.db
    status          = startup
    nproc           =        8
    time left       =     -1s



           Memory information
           ------------------

    heap     =   26214400 doubles =    200.0 Mbytes
    stack    =   26214397 doubles =    200.0 Mbytes
    global   =   52428800 doubles =    400.0 Mbytes (distinct from heap & stack)
    total    =  104857597 doubles =    800.0 Mbytes
    verify   = yes
    hardfail = no 


           Directory information
           ---------------------

  0 permanent = .
  0 scratch   = .




                                NWChem Input Module
                                -------------------



 Scaling coordinates for geometry "geometry" by  1.889725989
 (inverse scale =  0.529177249)

 C1  symmetry detected

          ------
          auto-z
          ------
  no constraints, skipping    0.0000000000000000     
  no constraints, skipping    0.0000000000000000     


                             Geometry "geometry" -> ""
                             -------------------------

 Output coordinates in angstroms (scale by  1.889725989 to convert to a.u.)

  No.       Tag          Charge          X              Y              Z
 ---- ---------------- ---------- -------------- -------------- --------------
    1 H                    1.0000     3.10651984    -0.27845297    -0.72311602
    2 C                    6.0000     2.77038989    -0.93615853    -1.52424901
    3 H                    1.0000     3.16455036    -1.93899948    -1.37372477
    4 H                    1.0000     3.09077447    -0.53711654    -2.48353167
    5 C                    6.0000     1.26360655    -0.98220137    -1.48826293
    6 O                    8.0000     0.60918273    -0.44288649    -2.37530911
    7 N                    7.0000     0.72188566    -1.63397582    -0.46543863
    8 H                    1.0000     1.33119845    -2.16595954     0.14925255
    9 C                    6.0000    -0.71919237    -1.76675983    -0.20703676
   10 H                    1.0000    -1.18948923    -2.14668851    -1.11384493
   11 C                    6.0000    -0.95366609    -2.79871113     0.91661781
   12 H                    1.0000    -0.69201061    -2.33725857     1.87095105
   13 H                    1.0000    -2.01804389    -3.04024902     0.95246961
   14 C                    6.0000    -0.13775740    -4.09450518     0.78141505
   15 O                    8.0000    -0.76398033    -5.15345765     0.54650549
   16 O                    8.0000     1.10492902    -4.02419562     0.93926636
   17 C                    6.0000    -1.41518232    -0.43067848     0.14223476
   18 O                    8.0000    -2.64224658    -0.34102628     0.10054791
   19 N                    7.0000    -0.64586449     0.61321700     0.47059021
   20 H                    1.0000     0.36320747     0.49151370     0.43650053
   21 C                    6.0000    -1.10002508     1.99991077     0.62753142
   22 H                    1.0000    -2.10105682     1.99138420     1.05876658
   23 C                    6.0000    -0.16819704     2.74793247     1.60579929
   24 H                    1.0000    -0.52605956     3.77451721     1.70566014
   25 H                    1.0000    -0.26751493     2.27943207     2.58671637
   26 C                    6.0000     1.33057220     2.77734925     1.24832705
   27 O                    8.0000     2.03640343     3.60067192     1.87500965
   28 O                    8.0000     1.77866209     1.97782648     0.39333185
   29 C                    6.0000    -1.20022108     2.76282835    -0.71195189
   30 O                    8.0000    -1.83089173     3.81643952    -0.79356085
   31 N                    7.0000    -0.62377087     2.25311728    -1.79359175
   32 H                    1.0000    -0.68363100     2.75280644    -2.65898559
   33 H                    1.0000    -0.10262917     1.38754895    -1.71691189

      Atomic Mass 
      ----------- 

      H                  1.007825
      C                 12.000000
      O                 15.994910
      N                 14.003070


 Effective nuclear repulsion energy (a.u.)    1656.1791622474

            Nuclear Dipole moment (a.u.) 
            ----------------------------
        X                 Y               Z
 ---------------- ---------------- ----------------
     0.0000000000     0.0000000000    -0.0000000000



                                Z-matrix (autoz)
                                -------- 

 Units are Angstrom for bonds and degrees for angles

      Type          Name      I     J     K     L     M      Value
      ----------- --------  ----- ----- ----- ----- ----- ----------
    1 Stretch                  1     2                       1.08967
    2 Stretch                  2     3                       1.08798
    3 Stretch                  2     4                       1.08725
    4 Stretch                  2     5                       1.50792
    5 Stretch                  5     6                       1.22718
    6 Stretch                  5     7                       1.32832
    7 Stretch                  7     8                       1.01593
    8 Stretch                  7     9                       1.47007
    9 Stretch                  9    10                       1.08987
   10 Stretch                  9    11                       1.54354
   11 Stretch                  9    17                       1.54645
   12 Stretch                 11    12                       1.09186
   13 Stretch                 11    13                       1.09203
   14 Stretch                 11    14                       1.53723
   15 Stretch                 14    15                       1.25248
   16 Stretch                 14    16                       1.25464
   17 Stretch                 17    18                       1.23104
   18 Stretch                 17    19                       1.33768
   19 Stretch                 19    20                       1.01696
   20 Stretch                 19    21                       1.46759
   21 Stretch                 21    22                       1.09000
   22 Stretch                 21    23                       1.54430
   23 Stretch                 21    29                       1.54476
   24 Stretch                 23    24                       1.09175
   25 Stretch                 23    25                       1.09158
   26 Stretch                 23    26                       1.54109
   27 Stretch                 26    27                       1.25251
   28 Stretch                 26    28                       1.25341
   29 Stretch                 29    30                       1.23065
   30 Stretch                 29    31                       1.32742
   31 Stretch                 31    32                       1.00109
   32 Stretch                 31    33                       1.01325
   33 Bend                     1     2     3               110.05227
   34 Bend                     1     2     4               109.64870
   35 Bend                     1     2     5               108.00638
   36 Bend                     2     5     6               120.14584
   37 Bend                     2     5     7               116.15975
   38 Bend                     3     2     4               110.70830
   39 Bend                     3     2     5               109.30317
   40 Bend                     4     2     5               109.06961
   41 Bend                     5     7     8               118.57053
   42 Bend                     5     7     9               125.41181
   43 Bend                     6     5     7               123.69319
   44 Bend                     7     9    10               107.95328
   45 Bend                     7     9    11               109.70995
   46 Bend                     7     9    17               113.75599
   47 Bend                     8     7     9               115.73942
   48 Bend                     9    11    12               108.50117
   49 Bend                     9    11    13               108.65295
   50 Bend                     9    11    14               114.76555
   51 Bend                     9    17    18               120.25665
   52 Bend                     9    17    19               118.08797
   53 Bend                    10     9    11               107.88373
   54 Bend                    10     9    17               107.15087
   55 Bend                    11     9    17               110.17168
   56 Bend                    11    14    15               117.63342
   57 Bend                    11    14    16               117.86594
   58 Bend                    12    11    13               107.35900
   59 Bend                    12    11    14               107.81432
   60 Bend                    13    11    14               109.49778
   61 Bend                    15    14    16               124.48544
   62 Bend                    17    19    20               117.97173
   63 Bend                    17    19    21               125.84810
   64 Bend                    18    17    19               121.65049
   65 Bend                    19    21    22               108.60961
   66 Bend                    19    21    23               109.79722
   67 Bend                    19    21    29               113.20334
   68 Bend                    20    19    21               115.06992
   69 Bend                    21    23    24               108.39834
   70 Bend                    21    23    25               107.84588
   71 Bend                    21    23    26               116.68820
   72 Bend                    21    29    30               120.90165
   73 Bend                    21    29    31               119.25864
   74 Bend                    22    21    23               107.89771
   75 Bend                    22    21    29               106.69936
   76 Bend                    23    21    29               110.43885
   77 Bend                    23    26    27               116.39420
   78 Bend                    23    26    28               119.58612
   79 Bend                    24    23    25               106.95117
   80 Bend                    24    23    26               108.78725
   81 Bend                    25    23    26               107.76557
   82 Bend                    27    26    28               123.99629
   83 Bend                    29    31    32               119.12796
   84 Bend                    29    31    33               119.32139
   85 Bend                    30    29    31               119.81874
   86 Bend                    32    31    33               121.50467
   87 Torsion                  1     2     5     6         109.56706
   88 Torsion                  1     2     5     7         -70.82014
   89 Torsion                  2     5     7     8          -8.44482
   90 Torsion                  2     5     7     9         177.88918
   91 Torsion                  3     2     5     6        -130.70647
   92 Torsion                  3     2     5     7          48.90632
   93 Torsion                  4     2     5     6          -9.54124
   94 Torsion                  4     2     5     7         170.07156
   95 Torsion                  5     7     9    10          52.47527
   96 Torsion                  5     7     9    11         169.79610
   97 Torsion                  5     7     9    17         -66.29447
   98 Torsion                  6     5     7     8         171.15275
   99 Torsion                  6     5     7     9          -2.51325
  100 Torsion                  7     9    11    12          75.30458
  101 Torsion                  7     9    11    13        -168.27105
  102 Torsion                  7     9    11    14         -45.33614
  103 Torsion                  7     9    17    18         164.43601
  104 Torsion                  7     9    17    19         -14.77329
  105 Torsion                  8     7     9    10        -121.34992
  106 Torsion                  8     7     9    11          -4.02909
  107 Torsion                  8     7     9    17         119.88034
  108 Torsion                  9    11    14    15        -112.69509
  109 Torsion                  9    11    14    16          68.65869
  110 Torsion                  9    17    19    20           2.59002
  111 Torsion                  9    17    19    21         169.90563
  112 Torsion                 10     9    11    12        -167.33109
  113 Torsion                 10     9    11    13         -50.90673
  114 Torsion                 10     9    11    14          72.02818
  115 Torsion                 10     9    17    18          45.20838
  116 Torsion                 10     9    17    19        -134.00092
  117 Torsion                 11     9    17    18         -71.90494
  118 Torsion                 11     9    17    19         108.88576
  119 Torsion                 12    11     9    17         -50.67402
  120 Torsion                 12    11    14    15         126.28674
  121 Torsion                 12    11    14    16         -52.35948
  122 Torsion                 13    11     9    17          65.75035
  123 Torsion                 13    11    14    15           9.78488
  124 Torsion                 13    11    14    16        -168.86134
  125 Torsion                 14    11     9    17        -171.31475
  126 Torsion                 17    19    21    22          35.67255
  127 Torsion                 17    19    21    23         153.43793
  128 Torsion                 17    19    21    29         -82.63666
  129 Torsion                 18    17    19    20        -176.60766
  130 Torsion                 18    17    19    21          -9.29205
  131 Torsion                 19    21    23    24        -179.99536
  132 Torsion                 19    21    23    25         -64.53534
  133 Torsion                 19    21    23    26          56.83771
  134 Torsion                 19    21    29    30         164.00317
  135 Torsion                 19    21    29    31         -14.32794
  136 Torsion                 20    19    21    22        -156.69010
  137 Torsion                 20    19    21    23         -38.92472
  138 Torsion                 20    19    21    29          85.00068
  139 Torsion                 21    23    26    27         165.75706
  140 Torsion                 21    23    26    28         -15.93169
  141 Torsion                 21    29    31    32        -179.51175
  142 Torsion                 21    29    31    33          -1.94034
  143 Torsion                 22    21    23    24         -61.78813
  144 Torsion                 22    21    23    25          53.67189
  145 Torsion                 22    21    23    26         175.04495
  146 Torsion                 22    21    29    30          44.59077
  147 Torsion                 22    21    29    31        -133.74033
  148 Torsion                 23    21    29    30         -72.42319
  149 Torsion                 23    21    29    31         109.24570
  150 Torsion                 24    23    21    29          54.48190
  151 Torsion                 24    23    26    27          42.79108
  152 Torsion                 24    23    26    28        -138.89766
  153 Torsion                 25    23    21    29         169.94192
  154 Torsion                 25    23    26    27         -72.82762
  155 Torsion                 25    23    26    28         105.48363
  156 Torsion                 26    23    21    29         -68.68502
  157 Torsion                 30    29    31    32           2.13876
  158 Torsion                 30    29    31    33         179.71017


            XYZ format geometry
            -------------------
    33
 geometry
 H                     3.10651984    -0.27845297    -0.72311602
 C                     2.77038989    -0.93615853    -1.52424901
 H                     3.16455036    -1.93899948    -1.37372477
 H                     3.09077447    -0.53711654    -2.48353167
 C                     1.26360655    -0.98220137    -1.48826293
 O                     0.60918273    -0.44288649    -2.37530911
 N                     0.72188566    -1.63397582    -0.46543863
 H                     1.33119845    -2.16595954     0.14925255
 C                    -0.71919237    -1.76675983    -0.20703676
 H                    -1.18948923    -2.14668851    -1.11384493
 C                    -0.95366609    -2.79871113     0.91661781
 H                    -0.69201061    -2.33725857     1.87095105
 H                    -2.01804389    -3.04024902     0.95246961
 C                    -0.13775740    -4.09450518     0.78141505
 O                    -0.76398033    -5.15345765     0.54650549
 O                     1.10492902    -4.02419562     0.93926636
 C                    -1.41518232    -0.43067848     0.14223476
 O                    -2.64224658    -0.34102628     0.10054791
 N                    -0.64586449     0.61321700     0.47059021
 H                     0.36320747     0.49151370     0.43650053
 C                    -1.10002508     1.99991077     0.62753142
 H                    -2.10105682     1.99138420     1.05876658
 C                    -0.16819704     2.74793247     1.60579929
 H                    -0.52605956     3.77451721     1.70566014
 H                    -0.26751493     2.27943207     2.58671637
 C                     1.33057220     2.77734925     1.24832705
 O                     2.03640343     3.60067192     1.87500965
 O                     1.77866209     1.97782648     0.39333185
 C                    -1.20022108     2.76282835    -0.71195189
 O                    -1.83089173     3.81643952    -0.79356085
 N                    -0.62377087     2.25311728    -1.79359175
 H                    -0.68363100     2.75280644    -2.65898559
 H                    -0.10262917     1.38754895    -1.71691189

 ==============================================================================
                                internuclear distances
 ------------------------------------------------------------------------------
       center one      |      center two      | atomic units |  angstroms
 ------------------------------------------------------------------------------
    2 C                |   1 H                |     2.05917  |     1.08967
    3 H                |   2 C                |     2.05599  |     1.08798
    4 H                |   2 C                |     2.05460  |     1.08725
    5 C                |   2 C                |     2.84955  |     1.50792
    6 O                |   5 C                |     2.31904  |     1.22718
    7 N                |   5 C                |     2.51017  |     1.32832
    8 H                |   7 N                |     1.91983  |     1.01593
    9 C                |   7 N                |     2.77803  |     1.47007
   10 H                |   9 C                |     2.05956  |     1.08987
   11 C                |   9 C                |     2.91686  |     1.54354
   12 H                |  11 C                |     2.06331  |     1.09186
   13 H                |  11 C                |     2.06363  |     1.09203
   14 C                |  11 C                |     2.90494  |     1.53723
   15 O                |  14 C                |     2.36685  |     1.25248
   16 O                |  14 C                |     2.37093  |     1.25464
   17 C                |   9 C                |     2.92237  |     1.54645
   18 O                |  17 C                |     2.32633  |     1.23104
   19 N                |  17 C                |     2.52785  |     1.33768
   20 H                |  19 N                |     1.92177  |     1.01696
   21 C                |  19 N                |     2.77334  |     1.46759
   22 H                |  21 C                |     2.05980  |     1.09000
   23 C                |  21 C                |     2.91829  |     1.54430
   24 H                |  23 C                |     2.06310  |     1.09175
   25 H                |  23 C                |     2.06279  |     1.09158
   26 C                |  23 C                |     2.91224  |     1.54109
   27 O                |  26 C                |     2.36691  |     1.25251
   28 O                |  26 C                |     2.36860  |     1.25341
   29 C                |  21 C                |     2.91918  |     1.54476
   30 O                |  29 C                |     2.32559  |     1.23065
   31 N                |  29 C                |     2.50846  |     1.32742
   32 H                |  31 N                |     1.89178  |     1.00109
   33 H                |  31 N                |     1.91477  |     1.01325
 ------------------------------------------------------------------------------
                         number of included internuclear distances:         32
 ==============================================================================



 ==============================================================================
                                 internuclear angles
 ------------------------------------------------------------------------------
        center 1       |       center 2       |       center 3       |  degrees
 ------------------------------------------------------------------------------
    1 H                |   2 C                |   3 H                |   110.05
    1 H                |   2 C                |   4 H                |   109.65
    1 H                |   2 C                |   5 C                |   108.01
    3 H                |   2 C                |   4 H                |   110.71
    3 H                |   2 C                |   5 C                |   109.30
    4 H                |   2 C                |   5 C                |   109.07
    2 C                |   5 C                |   6 O                |   120.15
    2 C                |   5 C                |   7 N                |   116.16
    6 O                |   5 C                |   7 N                |   123.69
    5 C                |   7 N                |   8 H                |   118.57
    5 C                |   7 N                |   9 C                |   125.41
    8 H                |   7 N                |   9 C                |   115.74
    7 N                |   9 C                |  10 H                |   107.95
    7 N                |   9 C                |  11 C                |   109.71
    7 N                |   9 C                |  17 C                |   113.76
   10 H                |   9 C                |  11 C                |   107.88
   10 H                |   9 C                |  17 C                |   107.15
   11 C                |   9 C                |  17 C                |   110.17
    9 C                |  11 C                |  12 H                |   108.50
    9 C                |  11 C                |  13 H                |   108.65
    9 C                |  11 C                |  14 C                |   114.77
   12 H                |  11 C                |  13 H                |   107.36
   12 H                |  11 C                |  14 C                |   107.81
   13 H                |  11 C                |  14 C                |   109.50
   11 C                |  14 C                |  15 O                |   117.63
   11 C                |  14 C                |  16 O                |   117.87
   15 O                |  14 C                |  16 O                |   124.49
    9 C                |  17 C                |  18 O                |   120.26
    9 C                |  17 C                |  19 N                |   118.09
   18 O                |  17 C                |  19 N                |   121.65
   17 C                |  19 N                |  20 H                |   117.97
   17 C                |  19 N                |  21 C                |   125.85
   20 H                |  19 N                |  21 C                |   115.07
   19 N                |  21 C                |  22 H                |   108.61
   19 N                |  21 C                |  23 C                |   109.80
   19 N                |  21 C                |  29 C                |   113.20
   22 H                |  21 C                |  23 C                |   107.90
   22 H                |  21 C                |  29 C                |   106.70
   23 C                |  21 C                |  29 C                |   110.44
   21 C                |  23 C                |  24 H                |   108.40
   21 C                |  23 C                |  25 H                |   107.85
   21 C                |  23 C                |  26 C                |   116.69
   24 H                |  23 C                |  25 H                |   106.95
   24 H                |  23 C                |  26 C                |   108.79
   25 H                |  23 C                |  26 C                |   107.77
   23 C                |  26 C                |  27 O                |   116.39
   23 C                |  26 C                |  28 O                |   119.59
   27 O                |  26 C                |  28 O                |   124.00
   21 C                |  29 C                |  30 O                |   120.90
   21 C                |  29 C                |  31 N                |   119.26
   30 O                |  29 C                |  31 N                |   119.82
   29 C                |  31 N                |  32 H                |   119.13
   29 C                |  31 N                |  33 H                |   119.32
   32 H                |  31 N                |  33 H                |   121.50
 ------------------------------------------------------------------------------
                            number of included internuclear angles:         54
 ==============================================================================



  library name resolved from: environment
  library file name is: </opt/rit/el9/20230413/app/linux-rhel9-x86_64_v3/gcc-11.2.1/nwchem-7.2.0-oxtctbuhfuzyfaoziquq6bki22grib3g/share/nwchem/libraries/>
  


 Summary of "ao basis" -> "" (cartesian)
 ------------------------------------------------------------------------------
       Tag                 Description            Shells   Functions and Types
 ---------------- ------------------------------  ------  ---------------------
 *                        aug-cc-pvdz                 on all atoms 


                      Basis "ao basis" -> "ao basis" (cartesian)
                      -----
  H (Hydrogen)
  ------------
            Exponent  Coefficients 
       -------------- ---------------------------------------------------------
  1 S  1.30100000E+01  0.019685
  1 S  1.96200000E+00  0.137977
  1 S  4.44600000E-01  0.478148

  2 S  1.22000000E-01  1.000000

  3 S  2.97400000E-02  1.000000

  4 P  7.27000000E-01  1.000000

  5 P  1.41000000E-01  1.000000

  C (Carbon)
  ----------
            Exponent  Coefficients 
       -------------- ---------------------------------------------------------
  1 S  6.66500000E+03  0.000692
  1 S  1.00000000E+03  0.005329
  1 S  2.28000000E+02  0.027077
  1 S  6.47100000E+01  0.101718
  1 S  2.10600000E+01  0.274740
  1 S  7.49500000E+00  0.448564
  1 S  2.79700000E+00  0.285074
  1 S  5.21500000E-01  0.015204

  2 S  6.66500000E+03 -0.000146
  2 S  1.00000000E+03 -0.001154
  2 S  2.28000000E+02 -0.005725
  2 S  6.47100000E+01 -0.023312
  2 S  2.10600000E+01 -0.063955
  2 S  7.49500000E+00 -0.149981
  2 S  2.79700000E+00 -0.127262
  2 S  5.21500000E-01  0.544529

  3 S  1.59600000E-01  1.000000

  4 S  4.69000000E-02  1.000000

  5 P  9.43900000E+00  0.038109
  5 P  2.00200000E+00  0.209480
  5 P  5.45600000E-01  0.508557

  6 P  1.51700000E-01  1.000000

  7 P  4.04100000E-02  1.000000

  8 D  5.50000000E-01  1.000000

  9 D  1.51000000E-01  1.000000

  O (Oxygen)
  ----------
            Exponent  Coefficients 
       -------------- ---------------------------------------------------------
  1 S  1.17200000E+04  0.000710
  1 S  1.75900000E+03  0.005470
  1 S  4.00800000E+02  0.027837
  1 S  1.13700000E+02  0.104800
  1 S  3.70300000E+01  0.283062
  1 S  1.32700000E+01  0.448719
  1 S  5.02500000E+00  0.270952
  1 S  1.01300000E+00  0.015458

  2 S  1.17200000E+04 -0.000160
  2 S  1.75900000E+03 -0.001263
  2 S  4.00800000E+02 -0.006267
  2 S  1.13700000E+02 -0.025716
  2 S  3.70300000E+01 -0.070924
  2 S  1.32700000E+01 -0.165411
  2 S  5.02500000E+00 -0.116955
  2 S  1.01300000E+00  0.557368

  3 S  3.02300000E-01  1.000000

  4 S  7.89600000E-02  1.000000

  5 P  1.77000000E+01  0.043018
  5 P  3.85400000E+00  0.228913
  5 P  1.04600000E+00  0.508728

  6 P  2.75300000E-01  1.000000

  7 P  6.85600000E-02  1.000000

  8 D  1.18500000E+00  1.000000

  9 D  3.32000000E-01  1.000000

  N (Nitrogen)
  ------------
            Exponent  Coefficients 
       -------------- ---------------------------------------------------------
  1 S  9.04600000E+03  0.000700
  1 S  1.35700000E+03  0.005389
  1 S  3.09300000E+02  0.027406
  1 S  8.77300000E+01  0.103207
  1 S  2.85600000E+01  0.278723
  1 S  1.02100000E+01  0.448540
  1 S  3.83800000E+00  0.278238
  1 S  7.46600000E-01  0.015440

  2 S  9.04600000E+03 -0.000153
  2 S  1.35700000E+03 -0.001208
  2 S  3.09300000E+02 -0.005992
  2 S  8.77300000E+01 -0.024544
  2 S  2.85600000E+01 -0.067459
  2 S  1.02100000E+01 -0.158078
  2 S  3.83800000E+00 -0.121831
  2 S  7.46600000E-01  0.549003

  3 S  2.24800000E-01  1.000000

  4 S  6.12400000E-02  1.000000

  5 P  1.35500000E+01  0.039919
  5 P  2.91700000E+00  0.217169
  5 P  7.97300000E-01  0.510319

  6 P  2.18500000E-01  1.000000

  7 P  5.61100000E-02  1.000000

  8 D  8.17000000E-01  1.000000

  9 D  2.30000000E-01  1.000000



 Summary of "ao basis" -> "ao basis" (cartesian)
 ------------------------------------------------------------------------------
       Tag                 Description            Shells   Functions and Types
 ---------------- ------------------------------  ------  ---------------------
 H                        aug-cc-pvdz                5        9   3s2p
 C                        aug-cc-pvdz                9       25   4s3p2d
 O                        aug-cc-pvdz                9       25   4s3p2d
 N                        aug-cc-pvdz                9       25   4s3p2d


                                 NWChem SCF Module
                                 -----------------



  ao basis        = "ao basis"
  functions       =   617
  atoms           =    33
  closed shells   =    75
  open shells     =     0
  charge          =   0.00
  wavefunction    = RHF 
  input vectors   = atomic
  output vectors  = ./ASP_ASP_0.movecs
  use symmetry    = F
  symmetry adapt  = F


 Summary of "ao basis" -> "ao basis" (cartesian)
 ------------------------------------------------------------------------------
       Tag                 Description            Shells   Functions and Types
 ---------------- ------------------------------  ------  ---------------------
 H                        aug-cc-pvdz                5        9   3s2p
 C                        aug-cc-pvdz                9       25   4s3p2d
 O                        aug-cc-pvdz                9       25   4s3p2d
 N                        aug-cc-pvdz                9       25   4s3p2d



 Forming initial guess at       0.8s


 !! The overlap matrix has   4 vectors deemed linearly dependent with
    eigenvalues:
 3.23D-06 4.22D-06 7.65D-06 9.36D-06


      Superposition of Atomic Density Guess
      -------------------------------------

 Sum of atomic energies:       -1069.43740700

      Non-variational initial energy
      ------------------------------

 Total energy =   -1080.544136
 1-e energy   =   -4754.436957
 2-e energy   =    2017.713659
 HOMO         =      -0.310898
 LUMO         =      -0.307507


 Starting SCF solution at     239.3s



 ----------------------------------------------
         Quadratically convergent ROHF

 Convergence threshold     :          1.000E-04
 Maximum no. of iterations :           30
 Final Fock-matrix accuracy:          1.000E-10
 ----------------------------------------------


              iter       energy          gnorm     gmax       time
             ----- ------------------- --------- --------- --------
                 1    -1072.6820470211  3.55D+00  2.41D-01    488.1
  Setting level-shift to   2.85 to force positive preconditioner
                 2    -1073.3628996797  1.13D+00  8.90D-02    739.7
                 3    -1073.4648290029  1.64D-01  1.31D-02   1711.1
  ga_iter_lsolve: convergence stagnant ... aborting solve

 Disabled NR: increased maxiter to  40

                 4    -1073.4677695325  1.28D-01  3.45D-02   3145.8
                 5    -1073.4748704955  1.25D-01  1.36D-02   3664.2
                 6    -1073.4767938170  1.14D-01  1.78D-02   3923.9
                 7    -1073.4785080182  1.06D-01  1.54D-02   4175.9
                 8    -1073.4793521544  8.50D-02  8.02D-03   4677.0
                 9    -1073.4800487086  5.78D-02  1.08D-02   4927.4
                10    -1073.4804564801  6.36D-02  1.11D-02   5187.1
                11    -1073.4807531257  6.34D-02  7.40D-03   5705.7
                12    -1073.4813577877  5.89D-02  7.58D-03   6213.8
                13    -1073.4818964120  6.46D-02  5.20D-03   6725.8
                14    -1073.4822687316  6.09D-02  1.47D-02   6975.8
                15    -1073.4827379571  4.80D-02  5.28D-03   7492.3
                16    -1073.4830002623  3.72D-02  5.43D-03   8008.2
                17    -1073.4832152857  3.50D-02  3.95D-03   8522.2
                18    -1073.4833291928  3.57D-02  6.65D-03   8774.1
                19    -1073.4834784135  3.12D-02  3.03D-03   9276.1
                20    -1073.4836265924  3.12D-02  4.22D-03   9795.4
                21    -1073.4837119364  3.20D-02  4.97D-03  10312.5
                22    -1073.4838132751  2.30D-02  2.62D-03  10826.6
                23    -1073.4838808385  1.72D-02  3.64D-03  11334.8
                24    -1073.4839082139  1.74D-02  3.26D-03  11854.1
                25    -1073.4839539860  1.96D-02  2.12D-03  12113.3
                26    -1073.4839987335  1.64D-02  2.56D-03  12628.5
                27    -1073.4840176414  1.48D-02  2.04D-03  13139.0
                28    -1073.4840404075  1.24D-02  1.32D-03  13389.2
                29    -1073.4840547371  8.48D-03  1.17D-03  13648.9
                30    -1073.4840606170  5.72D-03  1.91D-03  14165.9
                31    -1073.4840659628  6.56D-03  9.02D-04  14676.2
                32    -1073.4840740512  7.29D-03  8.73D-04  15186.4
                33    -1073.4840811900  7.60D-03  1.38D-03  15695.6
                34    -1073.4840863115  7.35D-03  9.20D-04  16212.8
                35    -1073.4840924217  7.11D-03  4.97D-04  16472.2
                36    -1073.4840980798  5.77D-03  6.52D-04  16989.4
                37    -1073.4841008703  4.95D-03  8.92D-04  17244.7
                38    -1073.4841026518  4.34D-03  3.67D-04  17753.4
                39    -1073.4841041284  2.38D-03  2.55D-04  18010.1
                40    -1073.4841045429  1.91D-03  2.87D-04  18525.8

      Calculation failed to converge
      ------------------------------



       Final RHF  results 
       ------------------ 

         Total SCF energy =  -1073.484104542859
      One-electron energy =  -4760.992932920530
      Two-electron energy =   2031.329666130248
 Nuclear repulsion energy =   1656.179162247422

        Time for solution =  18288.0s


             Final eigenvalues
             -----------------

              1      
    1  -20.6539
    2  -20.6446
    3  -20.6377
    4  -20.6214
    5  -20.6034
    6  -20.5864
    7  -20.5523
    8  -15.6805
    9  -15.6696
   10  -15.6167
   11  -11.4324
   12  -11.4319
   13  -11.4121
   14  -11.4077
   15  -11.3868
   16  -11.3721
   17  -11.3472
   18  -11.3240
   19  -11.2955
   20  -11.2727
   21   -1.4903
   22   -1.4796
   23   -1.4551
   24   -1.4431
   25   -1.4081
   26   -1.3827
   27   -1.3687
   28   -1.3203
   29   -1.3024
   30   -1.2391
   31   -1.1360
   32   -1.1028
   33   -1.0414
   34   -0.9897
   35   -0.9555
   36   -0.8800
   37   -0.8633
   38   -0.8378
   39   -0.8160
   40   -0.8040
   41   -0.7816
   42   -0.7607
   43   -0.7504
   44   -0.7268
   45   -0.7258
   46   -0.7177
   47   -0.7056
   48   -0.7037
   49   -0.6990
   50   -0.6771
   51   -0.6606
   52   -0.6580
   53   -0.6539
   54   -0.6361
   55   -0.6302
   56   -0.6214
   57   -0.6168
   58   -0.6134
   59   -0.5944
   60   -0.5918
   61   -0.5747
   62   -0.5699
   63   -0.5550
   64   -0.5527
   65   -0.5188
   66   -0.5110
   67   -0.5096
   68   -0.4922
   69   -0.4824
   70   -0.4793
   71   -0.4761
   72   -0.4427
   73   -0.4275
   74   -0.4165
   75   -0.3686
   76   -0.2837
   77    0.0207
   78    0.0312
   79    0.0401
   80    0.0421
   81    0.0488
   82    0.0531
   83    0.0576
   84    0.0608
   85    0.0647

                       ROHF Final Molecular Orbital Analysis
                       -------------------------------------

 Vector   21  Occ=2.000000D+00  E=-1.490308D+00
              MO Center=  5.2D-02, -4.4D+00,  7.4D-01, r^2= 1.2D+00
   Bfn.  Coefficient  Atom+Function         Bfn.  Coefficient  Atom+Function  
  ----- ------------  ---------------      ----- ------------  ---------------
   241      0.292270  15 O  s               266      0.278331  16 O  s         
   240      0.275178  15 O  s               265      0.261357  16 O  s         
   215      0.257817  14 C  s               217     -0.226510  14 C  s         

 Vector   22  Occ=2.000000D+00  E=-1.479641D+00
              MO Center=  1.7D+00,  2.6D+00,  1.0D+00, r^2= 1.2D+00
   Bfn.  Coefficient  Atom+Function         Bfn.  Coefficient  Atom+Function  
  ----- ------------  ---------------      ----- ------------  ---------------
   502      0.322965  28 O  s               501      0.300326  28 O  s         
   477      0.254359  27 O  s               451      0.252165  26 C  s         
   476      0.234384  27 O  s               453     -0.194427  26 C  s         

 Vector   23  Occ=2.000000D+00  E=-1.455085D+00
              MO Center= -1.5D+00, -3.2D-01, -1.4D-01, r^2= 2.8D+00
   Bfn.  Coefficient  Atom+Function         Bfn.  Coefficient  Atom+Function  
  ----- ------------  ---------------      ----- ------------  ---------------
   316      0.331224  18 O  s               315      0.310645  18 O  s         
   290      0.228711  17 C  s         

 Vector   24  Occ=2.000000D+00  E=-1.443081D+00
              MO Center=  3.1D-01, -6.5D-01, -1.6D+00, r^2= 2.7D+00
   Bfn.  Coefficient  Atom+Function         Bfn.  Coefficient  Atom+Function  
  ----- ------------  ---------------      ----- ------------  ---------------
    80      0.332127   6 O  s                79      0.321066   6 O  s         
    54      0.225067   5 C  s                12      0.178299   2 C  s         
   316     -0.164119  18 O  s               315     -0.151635  18 O  s         

 Vector   25  Occ=2.000000D+00  E=-1.408070D+00
              MO Center= -1.5D+00,  3.3D+00, -8.4D-01, r^2= 1.1D+00
   Bfn.  Coefficient  Atom+Function         Bfn.  Coefficient  Atom+Function  
  ----- ------------  ---------------      ----- ------------  ---------------
   552      0.380938  30 O  s               551      0.348091  30 O  s         
   526      0.247848  29 C  s         

 Vector   26  Occ=2.000000D+00  E=-1.382674D+00
              MO Center=  1.2D-01, -4.4D+00,  7.4D-01, r^2= 1.4D+00
   Bfn.  Coefficient  Atom+Function         Bfn.  Coefficient  Atom+Function  
  ----- ------------  ---------------      ----- ------------  ---------------
   266     -0.333286  16 O  s               241      0.330058  15 O  s         
   265     -0.311013  16 O  s               240      0.305259  15 O  s         
   218     -0.216214  14 C  px        

 Vector   27  Occ=2.000000D+00  E=-1.368749D+00
              MO Center=  1.7D+00,  2.9D+00,  1.3D+00, r^2= 1.5D+00
   Bfn.  Coefficient  Atom+Function         Bfn.  Coefficient  Atom+Function  
  ----- ------------  ---------------      ----- ------------  ---------------
   477      0.370314  27 O  s               476      0.334770  27 O  s         
   502     -0.293246  28 O  s               501     -0.277894  28 O  s         
   455      0.185570  26 C  py              456      0.166894  26 C  pz        

 Vector   28  Occ=2.000000D+00  E=-1.320325D+00
              MO Center= -2.6D-01, -4.7D-01, -2.3D-01, r^2= 3.8D+00
   Bfn.  Coefficient  Atom+Function         Bfn.  Coefficient  Atom+Function  
  ----- ------------  ---------------      ----- ------------  ---------------
   105      0.280745   7 N  s               104      0.233989   7 N  s         
   340      0.229614  19 N  s               316     -0.210844  18 O  s         
   341      0.198666  19 N  s                80     -0.174579   6 O  s         
   315     -0.160536  18 O  s         

 Vector   29  Occ=2.000000D+00  E=-1.302396D+00
              MO Center= -1.4D-01, -3.1D-01, -2.0D-01, r^2= 4.1D+00
   Bfn.  Coefficient  Atom+Function         Bfn.  Coefficient  Atom+Function  
  ----- ------------  ---------------      ----- ------------  ---------------
   341     -0.304915  19 N  s               105      0.295258   7 N  s         
   340     -0.253224  19 N  s               104      0.248517   7 N  s         
    80     -0.158057   6 O  s         

 Vector   30  Occ=2.000000D+00  E=-1.239060D+00
              MO Center= -8.3D-01,  2.4D+00, -1.4D+00, r^2= 1.6D+00
   Bfn.  Coefficient  Atom+Function         Bfn.  Coefficient  Atom+Function  
  ----- ------------  ---------------      ----- ------------  ---------------
   577      0.382288  31 N  s               576      0.368000  31 N  s         
   375     -0.245230  21 C  s               552     -0.218478  30 O  s         
   551     -0.179095  30 O  s               609      0.161499  33 H  s         
   600      0.157846  32 H  s               528      0.154762  29 C  s         

 Vector   31  Occ=2.000000D+00  E=-1.136048D+00
              MO Center= -3.7D-01, -1.5D+00,  1.2D-01, r^2= 5.0D+00
   Bfn.  Coefficient  Atom+Function         Bfn.  Coefficient  Atom+Function  
  ----- ------------  ---------------      ----- ------------  ---------------
   138      0.224242   9 C  s               172      0.223631  11 C  s         
   174     -0.162378  11 C  s         

 Vector   32  Occ=2.000000D+00  E=-1.102787D+00
              MO Center= -5.3D-01,  1.4D+00,  8.7D-01, r^2= 5.6D+00
   Bfn.  Coefficient  Atom+Function         Bfn.  Coefficient  Atom+Function  
  ----- ------------  ---------------      ----- ------------  ---------------
   408      0.250037  23 C  s               374      0.221912  21 C  s         
   375      0.174597  21 C  s               381      0.156755  21 C  py        

 Vector   33  Occ=2.000000D+00  E=-1.041419D+00
              MO Center=  1.7D+00, -1.4D+00, -9.6D-01, r^2= 4.8D+00
   Bfn.  Coefficient  Atom+Function         Bfn.  Coefficient  Atom+Function  
  ----- ------------  ---------------      ----- ------------  ---------------
    11      0.312260   2 C  s               173      0.204083  11 C  s         
    57      0.171776   5 C  px              172      0.162812  11 C  s         
    12      0.160149   2 C  s         

 Vector   34  Occ=2.000000D+00  E=-9.897383D-01
              MO Center= -1.9D-01, -4.0D-02,  4.9D-01, r^2= 8.9D+00
   Bfn.  Coefficient  Atom+Function         Bfn.  Coefficient  Atom+Function  
  ----- ------------  ---------------      ----- ------------  ---------------
   409      0.204294  23 C  s               173     -0.194541  11 C  s         
   145      0.192544   9 C  py              408      0.187424  23 C  s         
   179      0.160737  11 C  py        

 Vector   35  Occ=2.000000D+00  E=-9.555106D-01
              MO Center= -3.6D-01,  5.0D-01,  3.3D-01, r^2= 8.9D+00
   Bfn.  Coefficient  Atom+Function         Bfn.  Coefficient  Atom+Function  
  ----- ------------  ---------------      ----- ------------  ---------------
   374      0.176808  21 C  s               382     -0.174582  21 C  pz        
   173     -0.170638  11 C  s               409     -0.167039  23 C  s         
   138      0.165865   9 C  s               375      0.166118  21 C  s         
   106     -0.155593   7 N  s         

 Vector   36  Occ=2.000000D+00  E=-8.799680D-01
              MO Center= -3.0D-02, -3.9D-01, -2.7D-01, r^2= 5.6D+00
   Bfn.  Coefficient  Atom+Function         Bfn.  Coefficient  Atom+Function  
  ----- ------------  ---------------      ----- ------------  ---------------
   291      0.237712  17 C  s               375      0.217804  21 C  s         
   109     -0.200986   7 N  pz              343     -0.173834  19 N  px        
   290      0.167478  17 C  s                12      0.162582   2 C  s         
   364     -0.159619  20 H  s               108      0.150525   7 N  py        

 Vector   37  Occ=2.000000D+00  E=-8.632741D-01
              MO Center= -4.5D-02, -5.5D-01, -1.1D-01, r^2= 4.4D+00
   Bfn.  Coefficient  Atom+Function         Bfn.  Coefficient  Atom+Function  
  ----- ------------  ---------------      ----- ------------  ---------------
   343     -0.242065  19 N  px              105      0.236324   7 N  s         
   291      0.227927  17 C  s               128      0.212682   8 H  s         
   109      0.211550   7 N  pz              364     -0.200641  20 H  s         
   341     -0.190660  19 N  s               294      0.162544  17 C  py        
   108     -0.155157   7 N  py        

 Vector   38  Occ=2.000000D+00  E=-8.377928D-01
              MO Center= -6.5D-01,  2.0D+00, -5.9D-01, r^2= 4.4D+00
   Bfn.  Coefficient  Atom+Function         Bfn.  Coefficient  Atom+Function  
  ----- ------------  ---------------      ----- ------------  ---------------
   534      0.292229  29 C  pz              581     -0.267724  31 N  pz        
   382      0.240116  21 C  pz              375     -0.227904  21 C  s         
   381     -0.224538  21 C  py              526     -0.216169  29 C  s         
   600      0.207411  32 H  s               292     -0.162920  17 C  s         
   528      0.154942  29 C  s         

 Vector   39  Occ=2.000000D+00  E=-8.160032D-01
              MO Center= -6.9D-02, -3.3D+00,  5.5D-01, r^2= 5.4D+00
   Bfn.  Coefficient  Atom+Function         Bfn.  Coefficient  Atom+Function  
  ----- ------------  ---------------      ----- ------------  ---------------
   215      0.247731  14 C  s               241     -0.228479  15 O  s         
   268     -0.222998  16 O  px              216      0.214631  14 C  s         
   266     -0.213596  16 O  s               244      0.192016  15 O  py        
   144      0.181914   9 C  px        

 Vector   40  Occ=2.000000D+00  E=-8.039866D-01
              MO Center=  7.5D-01,  1.4D+00,  7.4D-01, r^2= 8.0D+00
   Bfn.  Coefficient  Atom+Function         Bfn.  Coefficient  Atom+Function  
  ----- ------------  ---------------      ----- ------------  ---------------
   502     -0.242139  28 O  s               451      0.228084  26 C  s         
   477     -0.198857  27 O  s               505      0.183092  28 O  py        
   506      0.181119  28 O  pz              452      0.158409  26 C  s         
   381     -0.156882  21 C  py        

 Vector   41  Occ=2.000000D+00  E=-7.815967D-01
              MO Center= -4.1D-01,  1.6D+00, -8.1D-01, r^2= 5.6D+00
   Bfn.  Coefficient  Atom+Function         Bfn.  Coefficient  Atom+Function  
  ----- ------------  ---------------      ----- ------------  ---------------
   609      0.272427  33 H  s               580     -0.268788  31 N  py        
   528      0.252188  29 C  s               531      0.220994  29 C  pz        
   527     -0.219413  29 C  s               579      0.177665  31 N  px        
   610      0.155591  33 H  s               578     -0.152080  31 N  s         

 Vector   42  Occ=2.000000D+00  E=-7.606660D-01
              MO Center= -1.7D-01, -7.8D-01, -1.5D-01, r^2= 9.8D+00
   Bfn.  Coefficient  Atom+Function         Bfn.  Coefficient  Atom+Function  
  ----- ------------  ---------------      ----- ------------  ---------------
   144      0.214700   9 C  px              294      0.186707  17 C  py        
   107     -0.174235   7 N  px        

 Vector   43  Occ=2.000000D+00  E=-7.504366D-01
              MO Center= -3.6D-01, -5.5D-01, -6.0D-02, r^2= 8.4D+00
   Bfn.  Coefficient  Atom+Function         Bfn.  Coefficient  Atom+Function  
  ----- ------------  ---------------      ----- ------------  ---------------
   139      0.201590   9 C  s               107      0.178731   7 N  px        
   173     -0.171054  11 C  s               141     -0.168326   9 C  px        
   318      0.152165  18 O  px              162      0.151090  10 H  s         

 Vector   44  Occ=2.000000D+00  E=-7.268398D-01
              MO Center= -2.9D-01, -1.2D+00,  3.6D-01, r^2= 1.2D+01
   Bfn.  Coefficient  Atom+Function         Bfn.  Coefficient  Atom+Function  
  ----- ------------  ---------------      ----- ------------  ---------------
   268     -0.202015  16 O  px              218      0.200952  14 C  px        
   176      0.157632  11 C  py        

 Vector   45  Occ=2.000000D+00  E=-7.258424D-01
              MO Center=  9.4D-01, -8.6D-01, -1.4D+00, r^2= 5.7D+00
   Bfn.  Coefficient  Atom+Function         Bfn.  Coefficient  Atom+Function  
  ----- ------------  ---------------      ----- ------------  ---------------
    82      0.283969   6 O  px               80     -0.246884   6 O  s         
    17     -0.206818   2 C  px               14     -0.196719   2 C  px        
    59     -0.186180   5 C  pz               85      0.180927   6 O  px        
    54      0.170540   5 C  s         

 Vector   46  Occ=2.000000D+00  E=-7.176947D-01
              MO Center= -6.2D-01, -2.7D+00,  5.9D-01, r^2= 8.9D+00
   Bfn.  Coefficient  Atom+Function         Bfn.  Coefficient  Atom+Function  
  ----- ------------  ---------------      ----- ------------  ---------------
   219      0.266209  14 C  py              243     -0.220797  15 O  px        
   269      0.201797  16 O  py              318      0.188331  18 O  px        
   241      0.186394  15 O  s               244     -0.184191  15 O  py        

 Vector   47  Occ=2.000000D+00  E=-7.055520D-01
              MO Center=  4.3D-01,  1.1D+00,  5.8D-01, r^2= 1.2D+01
   Bfn.  Coefficient  Atom+Function         Bfn.  Coefficient  Atom+Function  
  ----- ------------  ---------------      ----- ------------  ---------------
   454      0.229334  26 C  px              504      0.184387  28 O  px        
   481     -0.169652  27 O  pz              581      0.151538  31 N  pz        

 Vector   48  Occ=2.000000D+00  E=-7.036572D-01
              MO Center=  4.7D-01,  9.9D-01,  2.6D-01, r^2= 1.3D+01
   Bfn.  Coefficient  Atom+Function         Bfn.  Coefficient  Atom+Function  
  ----- ------------  ---------------      ----- ------------  ---------------
   479      0.215833  27 O  px              455     -0.164154  26 C  py        
   268      0.162246  16 O  px              581      0.162588  31 N  pz        
   506      0.158841  28 O  pz              600     -0.153760  32 H  s         
   218     -0.151526  14 C  px        

 Vector   49  Occ=2.000000D+00  E=-6.989839D-01
              MO Center=  7.6D-01,  5.8D-01,  6.2D-01, r^2= 1.3D+01
   Bfn.  Coefficient  Atom+Function         Bfn.  Coefficient  Atom+Function  
  ----- ------------  ---------------      ----- ------------  ---------------
   479      0.208037  27 O  px              477      0.186033  27 O  s         
   455     -0.173386  26 C  py              456     -0.170932  26 C  pz        
   480      0.171427  27 O  py              218      0.150876  14 C  px        

 Vector   50  Occ=2.000000D+00  E=-6.770903D-01
              MO Center= -1.9D-01,  1.0D+00,  3.5D-01, r^2= 9.1D+00
   Bfn.  Coefficient  Atom+Function         Bfn.  Coefficient  Atom+Function  
  ----- ------------  ---------------      ----- ------------  ---------------
   318      0.216808  18 O  px              293     -0.167309  17 C  px        
   377      0.161721  21 C  px              409      0.159534  23 C  s         

 Vector   51  Occ=2.000000D+00  E=-6.605806D-01
              MO Center= -7.4D-01, -5.4D-01,  1.3D-01, r^2= 9.5D+00
   Bfn.  Coefficient  Atom+Function         Bfn.  Coefficient  Atom+Function  
  ----- ------------  ---------------      ----- ------------  ---------------
   318      0.194435  18 O  px              293     -0.160375  17 C  px        
   295      0.152428  17 C  pz              320      0.153034  18 O  pz        

 Vector   52  Occ=2.000000D+00  E=-6.580374D-01
              MO Center=  6.2D-01, -1.2D-01, -1.4D-01, r^2= 1.0D+01
   Bfn.  Coefficient  Atom+Function         Bfn.  Coefficient  Atom+Function  
  ----- ------------  ---------------      ----- ------------  ---------------
   350      0.225661  19 N  py              174      0.153462  11 C  s         
   139     -0.151841   9 C  s                83     -0.150059   6 O  py        

 Vector   53  Occ=2.000000D+00  E=-6.539059D-01
              MO Center= -5.0D-02, -2.1D-02, -2.9D-01, r^2= 1.1D+01
   Bfn.  Coefficient  Atom+Function         Bfn.  Coefficient  Atom+Function  
  ----- ------------  ---------------      ----- ------------  ---------------
   106      0.215960   7 N  s               217      0.174144  14 C  s         
    15      0.167843   2 C  py              318      0.167792  18 O  px        
   555     -0.166061  30 O  py        

 Vector   54  Occ=2.000000D+00  E=-6.360580D-01
              MO Center=  3.5D-02, -7.0D-01, -6.0D-01, r^2= 1.1D+01
   Bfn.  Coefficient  Atom+Function         Bfn.  Coefficient  Atom+Function  
  ----- ------------  ---------------      ----- ------------  ---------------
    84     -0.216402   6 O  pz               57      0.209944   5 C  px        
    14     -0.165466   2 C  px        

 Vector   55  Occ=2.000000D+00  E=-6.301663D-01
              MO Center= -6.5D-01, -4.9D-01,  4.3D-01, r^2= 1.0D+01
   Bfn.  Coefficient  Atom+Function         Bfn.  Coefficient  Atom+Function  
  ----- ------------  ---------------      ----- ------------  ---------------
   350      0.190689  19 N  py              342      0.188309  19 N  s         
   399     -0.185809  22 H  s               175      0.170003  11 C  px        
   205     -0.160607  13 H  s         

 Vector   56  Occ=2.000000D+00  E=-6.214147D-01
              MO Center= -6.3D-01,  8.3D-01, -3.7D-01, r^2= 9.0D+00
   Bfn.  Coefficient  Atom+Function         Bfn.  Coefficient  Atom+Function  
  ----- ------------  ---------------      ----- ------------  ---------------
   554      0.184616  30 O  px              530      0.181284  29 C  py        
    84      0.174774   6 O  pz              318     -0.166574  18 O  px        
   377      0.154966  21 C  px        

 Vector   57  Occ=2.000000D+00  E=-6.167846D-01
              MO Center=  2.5D-01, -4.5D-01, -1.0D-01, r^2= 1.2D+01
   Bfn.  Coefficient  Atom+Function         Bfn.  Coefficient  Atom+Function  
  ----- ------------  ---------------      ----- ------------  ---------------
    84      0.182204   6 O  pz              206     -0.159211  13 H  s         

 Vector   58  Occ=2.000000D+00  E=-6.133812D-01
              MO Center=  1.9D-01,  1.2D+00, -8.8D-02, r^2= 1.2D+01
   Bfn.  Coefficient  Atom+Function         Bfn.  Coefficient  Atom+Function  
  ----- ------------  ---------------      ----- ------------  ---------------
   555      0.219750  30 O  py               16      0.176182   2 C  pz        
    45     -0.156281   4 H  s               529      0.156292  29 C  px        
   480     -0.151342  27 O  py        

 Vector   59  Occ=2.000000D+00  E=-5.944373D-01
              MO Center= -6.7D-01,  5.5D-01,  2.6D-01, r^2= 1.0D+01
   Bfn.  Coefficient  Atom+Function         Bfn.  Coefficient  Atom+Function  
  ----- ------------  ---------------      ----- ------------  ---------------
   409     -0.210910  23 C  s               379      0.209452  21 C  pz        
   382      0.207606  21 C  pz              292     -0.176193  17 C  s         
   320     -0.170857  18 O  pz              375      0.160550  21 C  s         
   530      0.150620  29 C  py        

 Vector   60  Occ=2.000000D+00  E=-5.918295D-01
              MO Center=  1.6D+00, -1.5D+00, -9.3D-01, r^2= 6.6D+00
   Bfn.  Coefficient  Atom+Function         Bfn.  Coefficient  Atom+Function  
  ----- ------------  ---------------      ----- ------------  ---------------
    15      0.286640   2 C  py               44      0.268550   4 H  s         
    56     -0.267634   5 C  s                45      0.258918   4 H  s         
    35     -0.246474   3 H  s               206     -0.216953  13 H  s         
   174      0.211874  11 C  s                74     -0.202400   5 C  dxz       
    13     -0.198810   2 C  s               217     -0.197360  14 C  s         

 Vector   61  Occ=2.000000D+00  E=-5.746723D-01
              MO Center=  4.9D-01, -1.2D+00, -4.3D-01, r^2= 8.8D+00
   Bfn.  Coefficient  Atom+Function         Bfn.  Coefficient  Atom+Function  
  ----- ------------  ---------------      ----- ------------  ---------------
    16      0.224653   2 C  pz              177      0.209357  11 C  pz        
     1      0.189556   1 H  s               143     -0.171835   9 C  pz        
    44     -0.169697   4 H  s                45     -0.152853   4 H  s         

 Vector   62  Occ=2.000000D+00  E=-5.698888D-01
              MO Center= -1.2D-01,  2.5D+00,  6.4D-01, r^2= 6.0D+00
   Bfn.  Coefficient  Atom+Function         Bfn.  Coefficient  Atom+Function  
  ----- ------------  ---------------      ----- ------------  ---------------
   412      0.274871  23 C  py              350      0.266894  19 N  py        
   432      0.241173  24 H  s               442     -0.239263  25 H  s         
   433      0.223628  24 H  s               506      0.194905  28 O  pz        
   554      0.179188  30 O  px              528     -0.165920  29 C  s         
   481      0.152363  27 O  pz        

 Vector   63  Occ=2.000000D+00  E=-5.550340D-01
              MO Center= -2.9D-01,  2.6D+00,  4.6D-01, r^2= 4.7D+00
   Bfn.  Coefficient  Atom+Function         Bfn.  Coefficient  Atom+Function  
  ----- ------------  ---------------      ----- ------------  ---------------
   413     -0.247965  23 C  pz              350      0.241296  19 N  py        
   410     -0.237479  23 C  s               441     -0.221142  25 H  s         
   433      0.213720  24 H  s               292      0.185952  17 C  s         
   505     -0.175364  28 O  py              377      0.169281  21 C  px        
   529     -0.156550  29 C  px              555     -0.152787  30 O  py        

 Vector   64  Occ=2.000000D+00  E=-5.526568D-01
              MO Center=  2.5D-01, -1.0D+00, -7.5D-01, r^2= 7.4D+00
   Bfn.  Coefficient  Atom+Function         Bfn.  Coefficient  Atom+Function  
  ----- ------------  ---------------      ----- ------------  ---------------
    83      0.202128   6 O  py              143     -0.196069   9 C  pz        
   162      0.190549  10 H  s               410     -0.184280  23 C  s         
   375     -0.178831  21 C  s                 1     -0.173833   1 H  s         
   139      0.166585   9 C  s               320      0.165360  18 O  pz        
    86      0.163147   6 O  py              177      0.160351  11 C  pz        

 Vector   65  Occ=2.000000D+00  E=-5.187990D-01
              MO Center=  2.5D-01, -5.6D-01,  6.8D-01, r^2= 1.4D+01
   Bfn.  Coefficient  Atom+Function         Bfn.  Coefficient  Atom+Function  
  ----- ------------  ---------------      ----- ------------  ---------------
   292      0.247289  17 C  s               350      0.247367  19 N  py        
   481     -0.246439  27 O  pz              504     -0.220696  28 O  px        
   319      0.219029  18 O  py              507     -0.191295  28 O  px        
   244      0.189170  15 O  py              484     -0.183333  27 O  pz        
   399     -0.175966  22 H  s               322      0.171809  18 O  py        

 Vector   66  Occ=2.000000D+00  E=-5.110397D-01
              MO Center=  5.1D-01, -4.5D-01,  7.7D-01, r^2= 1.5D+01
   Bfn.  Coefficient  Atom+Function         Bfn.  Coefficient  Atom+Function  
  ----- ------------  ---------------      ----- ------------  ---------------
   481      0.267755  27 O  pz              504      0.251715  28 O  px        
   243     -0.221101  15 O  px              350     -0.218137  19 N  py        
   507      0.217990  28 O  px              528      0.210872  29 C  s         
   484      0.201771  27 O  pz              505      0.200099  28 O  py        
   244      0.185729  15 O  py              319      0.176824  18 O  py        

 Vector   67  Occ=2.000000D+00  E=-5.095553D-01
              MO Center=  4.4D-01, -3.5D+00,  8.1D-01, r^2= 5.9D+00
   Bfn.  Coefficient  Atom+Function         Bfn.  Coefficient  Atom+Function  
  ----- ------------  ---------------      ----- ------------  ---------------
   269      0.496006  16 O  py              272      0.403447  16 O  py        
   243      0.298484  15 O  px              246      0.226896  15 O  px        
   197      0.204457  12 H  s               175     -0.152253  11 C  px        

 Vector   68  Occ=2.000000D+00  E=-4.921784D-01
              MO Center= -1.0D+00, -1.1D+00, -1.5D-02, r^2= 8.4D+00
   Bfn.  Coefficient  Atom+Function         Bfn.  Coefficient  Atom+Function  
  ----- ------------  ---------------      ----- ------------  ---------------
   319      0.279135  18 O  py              320      0.278860  18 O  pz        
   163     -0.246245  10 H  s               106      0.220872   7 N  s         
   322      0.219848  18 O  py              323      0.214600  18 O  pz        
   139      0.203267   9 C  s               270     -0.171581  16 O  pz        
   173     -0.160416  11 C  s                83     -0.158417   6 O  py        

 Vector   69  Occ=2.000000D+00  E=-4.823734D-01
              MO Center=  1.0D+00,  2.5D+00,  1.2D+00, r^2= 4.8D+00
   Bfn.  Coefficient  Atom+Function         Bfn.  Coefficient  Atom+Function  
  ----- ------------  ---------------      ----- ------------  ---------------
   479      0.394323  27 O  px              482      0.276099  27 O  px        
   504      0.265791  28 O  px              411      0.258808  23 C  px        
   454     -0.188654  26 C  px              507      0.185641  28 O  px        
   399      0.162197  22 H  s               457     -0.150273  26 C  px        

 Vector   70  Occ=2.000000D+00  E=-4.792968D-01
              MO Center= -7.7D-01,  9.6D-01, -2.7D-01, r^2= 8.9D+00
   Bfn.  Coefficient  Atom+Function         Bfn.  Coefficient  Atom+Function  
  ----- ------------  ---------------      ----- ------------  ---------------
   556      0.321555  30 O  pz              173     -0.273022  11 C  s         
   559      0.250269  30 O  pz              345      0.234732  19 N  pz        
   375     -0.225579  21 C  s               348      0.210606  19 N  pz        
   108      0.191556   7 N  py              216      0.182932  14 C  s         
   111      0.167890   7 N  py              139      0.163449   9 C  s         

 Vector   71  Occ=2.000000D+00  E=-4.760743D-01
              MO Center=  8.6D-01, -5.8D-01, -1.8D+00, r^2= 3.4D+00
   Bfn.  Coefficient  Atom+Function         Bfn.  Coefficient  Atom+Function  
  ----- ------------  ---------------      ----- ------------  ---------------
    82      0.468877   6 O  px               85      0.367147   6 O  px        
    17      0.229329   2 C  px               14      0.224288   2 C  px        
    84     -0.208798   6 O  pz              105      0.197723   7 N  s         
    87     -0.182101   6 O  pz               13      0.166677   2 C  s         
    57     -0.160790   5 C  px        

 Vector   72  Occ=2.000000D+00  E=-4.427087D-01
              MO Center= -4.7D-01, -2.1D-01, -6.3D-01, r^2= 9.3D+00
   Bfn.  Coefficient  Atom+Function         Bfn.  Coefficient  Atom+Function  
  ----- ------------  ---------------      ----- ------------  ---------------
   556     -0.280529  30 O  pz              108      0.259274   7 N  py        
   111      0.246072   7 N  py              559     -0.219893  30 O  pz        
    83     -0.215080   6 O  py              319     -0.210430  18 O  py        
   375      0.203280  21 C  s               109      0.190320   7 N  pz        
   399     -0.179710  22 H  s               112      0.175486   7 N  pz        

 Vector   73  Occ=2.000000D+00  E=-4.275489D-01
              MO Center= -1.2D+00,  2.3D+00, -9.7D-01, r^2= 5.0D+00
   Bfn.  Coefficient  Atom+Function         Bfn.  Coefficient  Atom+Function  
  ----- ------------  ---------------      ----- ------------  ---------------
   579      0.338972  31 N  px              410     -0.296892  23 C  s         
   582      0.281409  31 N  px              554     -0.272052  30 O  px        
   557     -0.211089  30 O  px              556     -0.197090  30 O  pz        
   528      0.173333  29 C  s               580      0.172408  31 N  py        
   345      0.162401  19 N  pz              583      0.162440  31 N  py        

 Vector   74  Occ=2.000000D+00  E=-4.164859D-01
              MO Center= -7.4D-01,  2.0D+00, -9.0D-02, r^2= 7.8D+00
   Bfn.  Coefficient  Atom+Function         Bfn.  Coefficient  Atom+Function  
  ----- ------------  ---------------      ----- ------------  ---------------
   342      0.316249  19 N  s               556     -0.246411  30 O  pz        
   345      0.241233  19 N  pz              348      0.228611  19 N  pz        
   554      0.199617  30 O  px              399     -0.192037  22 H  s         
   559     -0.189281  30 O  pz              557      0.157125  30 O  px        
   480      0.154101  27 O  py        

 Vector   75  Occ=2.000000D+00  E=-3.686300D-01
              MO Center=  7.9D-01, -6.2D-01,  8.2D-01, r^2= 1.6D+01
   Bfn.  Coefficient  Atom+Function         Bfn.  Coefficient  Atom+Function  
  ----- ------------  ---------------      ----- ------------  ---------------
   480     -0.246481  27 O  py              245      0.231025  15 O  pz        
   270     -0.224530  16 O  pz              506     -0.219088  28 O  pz        
   483     -0.189965  27 O  py              248      0.183772  15 O  pz        
   273     -0.182508  16 O  pz              509     -0.182686  28 O  pz        
   504     -0.163651  28 O  px              243     -0.160537  15 O  px        

 Vector   76  Occ=0.000000D+00  E=-2.836643D-01
              MO Center=  4.3D-01, -7.6D-01,  6.2D-01, r^2= 1.4D+01
   Bfn.  Coefficient  Atom+Function         Bfn.  Coefficient  Atom+Function  
  ----- ------------  ---------------      ----- ------------  ---------------
   245      0.212210  15 O  pz              270     -0.206364  16 O  pz        
   480      0.206867  27 O  py              173      0.192592  11 C  s         
   506      0.190878  28 O  pz              248      0.170220  15 O  pz        
   300      0.169148  17 C  py              273     -0.167915  16 O  pz        
   483      0.163178  27 O  py              509      0.158083  28 O  pz        

 Vector   77  Occ=0.000000D+00  E= 2.066495D-02
              MO Center= -1.7D-01, -6.0D-01,  3.4D+00, r^2= 1.7D+01
   Bfn.  Coefficient  Atom+Function         Bfn.  Coefficient  Atom+Function  
  ----- ------------  ---------------      ----- ------------  ---------------
   198      3.033655  12 H  s               366     -2.851245  20 H  s         
   443      2.632796  25 H  s               217     -1.985856  14 C  s         
   410      1.837374  23 C  s               147      1.726661   9 C  px        
   528     -1.695397  29 C  s               419     -1.560595  23 C  pz        
   173     -1.402151  11 C  s               385     -1.327920  21 C  pz        

 Vector   78  Occ=0.000000D+00  E= 3.123295D-02
              MO Center=  2.9D+00, -1.2D+00, -2.2D+00, r^2= 2.5D+01
   Bfn.  Coefficient  Atom+Function         Bfn.  Coefficient  Atom+Function  
  ----- ------------  ---------------      ----- ------------  ---------------
    63      3.495850   5 C  px              149     -2.365456   9 C  pz        
    46     -2.185124   4 H  s               147      2.134905   9 C  px        
    37     -2.098716   3 H  s               217      1.931419  14 C  s         
    12      1.857010   2 C  s               300     -1.846538  17 C  py        
    45     -1.431806   4 H  s                20      1.421448   2 C  px        

 Vector   79  Occ=0.000000D+00  E= 4.014138D-02
              MO Center= -9.1D-01, -1.4D+00, -5.3D-01, r^2= 3.2D+01
   Bfn.  Coefficient  Atom+Function         Bfn.  Coefficient  Atom+Function  
  ----- ------------  ---------------      ----- ------------  ---------------
    63      3.635206   5 C  px              147      3.120272   9 C  px        
   164      3.104134  10 H  s                 3     -2.390769   1 H  s         
   207      2.363305  13 H  s               400      1.990799  22 H  s         
   366     -1.898236  20 H  s               350      1.804489  19 N  py        
   383      1.597925  21 C  px              148      1.577245   9 C  py        

 Vector   80  Occ=0.000000D+00  E= 4.211491D-02
              MO Center= -7.0D-01,  3.2D-01,  4.4D-01, r^2= 4.0D+01
   Bfn.  Coefficient  Atom+Function         Bfn.  Coefficient  Atom+Function  
  ----- ------------  ---------------      ----- ------------  ---------------
   217      4.410814  14 C  s               174     -3.031977  11 C  s         
   528     -2.829874  29 C  s               300     -2.803320  17 C  py        
   453     -2.760464  26 C  s               410      2.345561  23 C  s         
    13      2.257593   2 C  s                63     -2.069045   5 C  px        
   207     -1.911159  13 H  s                56      1.746837   5 C  s         

 Vector   81  Occ=0.000000D+00  E= 4.883164D-02
              MO Center= -2.6D-01,  1.1D+00, -3.5D-01, r^2= 3.9D+01
   Bfn.  Coefficient  Atom+Function         Bfn.  Coefficient  Atom+Function  
  ----- ------------  ---------------      ----- ------------  ---------------
   578      3.639253  31 N  s               400     -3.080087  22 H  s         
   537      2.639457  29 C  pz              602      2.539408  32 H  s         
    37     -2.505098   3 H  s               198      2.471115  12 H  s         
   292     -2.212864  17 C  s               385      2.171479  21 C  pz        
   453      1.899656  26 C  s               350     -1.884212  19 N  py        

 Vector   82  Occ=0.000000D+00  E= 5.313912D-02
              MO Center=  3.0D-02, -1.5D+00, -8.9D-01, r^2= 3.4D+01
   Bfn.  Coefficient  Atom+Function         Bfn.  Coefficient  Atom+Function  
  ----- ------------  ---------------      ----- ------------  ---------------
   164      5.274336  10 H  s                63      3.584683   5 C  px        
   130      3.418064   8 H  s               528     -3.292136  29 C  s         
    46     -3.112958   4 H  s               207     -3.044841  13 H  s         
   147      2.818298   9 C  px              410      2.393412  23 C  s         
    13     -2.379090   2 C  s               149      2.338660   9 C  pz        

 Vector   83  Occ=0.000000D+00  E= 5.760424D-02
              MO Center=  9.4D-01, -1.8D-01,  2.3D-01, r^2= 3.8D+01
   Bfn.  Coefficient  Atom+Function         Bfn.  Coefficient  Atom+Function  
  ----- ------------  ---------------      ----- ------------  ---------------
     3      4.723506   1 H  s               207      4.019928  13 H  s         
    46     -3.471726   4 H  s               198     -3.298848  12 H  s         
   443     -2.863959  25 H  s               453     -2.534217  26 C  s         
   164     -2.415578  10 H  s               148     -2.364516   9 C  py        
   434      2.340547  24 H  s               130      2.251096   8 H  s         

 Vector   84  Occ=0.000000D+00  E= 6.079762D-02
              MO Center=  1.2D+00, -8.3D-01, -7.0D-01, r^2= 3.9D+01
   Bfn.  Coefficient  Atom+Function         Bfn.  Coefficient  Atom+Function  
  ----- ------------  ---------------      ----- ------------  ---------------
   528      4.134916  29 C  s                37      3.838257   3 H  s         
   410     -3.444814  23 C  s                 3     -3.036834   1 H  s         
   217     -3.008763  14 C  s               207     -2.472635  13 H  s         
   198      2.434734  12 H  s               611     -2.347755  33 H  s         
    46     -2.309727   4 H  s               602      2.307131  32 H  s         

 Vector   85  Occ=0.000000D+00  E= 6.471784D-02
              MO Center= -1.0D+00,  2.4D+00,  1.7D+00, r^2= 3.4D+01
   Bfn.  Coefficient  Atom+Function         Bfn.  Coefficient  Atom+Function  
  ----- ------------  ---------------      ----- ------------  ---------------
   217      6.519305  14 C  s               434     -5.596763  24 H  s         
   410     -5.478003  23 C  s               400      4.532658  22 H  s         
   383      4.094646  21 C  px              366      3.920267  20 H  s         
   453      3.929935  26 C  s               292     -3.717525  17 C  s         
   140     -3.421691   9 C  s               418      2.914935  23 C  py        

 Vector   86  Occ=0.000000D+00  E= 7.215428D-02
              MO Center= -6.5D-01,  1.2D-01,  1.2D+00, r^2= 4.1D+01
   Bfn.  Coefficient  Atom+Function         Bfn.  Coefficient  Atom+Function  
  ----- ------------  ---------------      ----- ------------  ---------------
   207      5.431790  13 H  s               443      5.291582  25 H  s         
   300      5.065840  17 C  py              198     -4.543035  12 H  s         
   400     -4.362071  22 H  s               147     -3.779502   9 C  px        
   164     -3.789938  10 H  s               174      3.487917  11 C  s         
    37      3.389820   3 H  s               182      3.259637  11 C  py        

 Vector   87  Occ=0.000000D+00  E= 8.098128D-02
              MO Center=  1.5D+00, -9.1D-01,  5.5D-01, r^2= 3.0D+01
   Bfn.  Coefficient  Atom+Function         Bfn.  Coefficient  Atom+Function  
  ----- ------------  ---------------      ----- ------------  ---------------
   366     10.743116  20 H  s               292     -6.925076  17 C  s         
   147     -6.671064   9 C  px              453     -5.996547  26 C  s         
   300      5.929419  17 C  py                3     -5.856475   1 H  s         
   198     -5.693624  12 H  s               106      5.477038   7 N  s         
   130      4.899338   8 H  s               164     -4.845629  10 H  s         

 Vector   88  Occ=0.000000D+00  E= 8.355480D-02
              MO Center=  4.8D-01, -1.6D+00,  1.2D+00, r^2= 3.9D+01
   Bfn.  Coefficient  Atom+Function         Bfn.  Coefficient  Atom+Function  
  ----- ------------  ---------------      ----- ------------  ---------------
   217     11.916875  14 C  s               366      8.219999  20 H  s         
   292     -7.159562  17 C  s               410      7.004476  23 C  s         
   130     -6.486003   8 H  s               453     -5.748907  26 C  s         
   140     -4.638494   9 C  s                37      3.973665   3 H  s         
   174     -3.947285  11 C  s               225      3.955560  14 C  py        

 Vector   89  Occ=0.000000D+00  E= 9.075496D-02
              MO Center=  1.4D+00, -6.6D-02,  3.6D-01, r^2= 3.5D+01
   Bfn.  Coefficient  Atom+Function         Bfn.  Coefficient  Atom+Function  
  ----- ------------  ---------------      ----- ------------  ---------------
   453     10.444209  26 C  s               410     -9.442734  23 C  s         
   366     -7.322998  20 H  s               217      4.465534  14 C  s         
   130      4.362290   8 H  s               148      3.742304   9 C  py        
   611     -3.536116  33 H  s               528      3.511095  29 C  s         
[...]
   300     16.555491  17 C  py              106      9.688207   7 N  s         
   453      9.079300  26 C  s               182      8.116860  11 C  py        
    63      6.967711   5 C  px              410     -6.975932  23 C  s         
    12      6.579774   2 C  s               350     -6.529961  19 N  py        
   537      6.221683  29 C  pz              217      6.166041  14 C  s         

 Vector  176  Occ=0.000000D+00  E= 4.160207D-01
              MO Center= -5.2D-01,  7.6D-01,  1.1D-01, r^2= 2.2D+01
   Bfn.  Coefficient  Atom+Function         Bfn.  Coefficient  Atom+Function  
  ----- ------------  ---------------      ----- ------------  ---------------
   300     16.928202  17 C  py              384      9.125988  21 C  py        
   453     -8.568838  26 C  s               410     -8.063468  23 C  s         
   174      7.966621  11 C  s               292      6.514143  17 C  s         
   350      6.393505  19 N  py              173      5.757279  11 C  s         
    13      5.625098   2 C  s                63     -5.494866   5 C  px        

 Vector  177  Occ=0.000000D+00  E= 4.202248D-01
              MO Center= -5.8D-02,  1.6D-01, -3.9D-01, r^2= 2.2D+01
   Bfn.  Coefficient  Atom+Function         Bfn.  Coefficient  Atom+Function  
  ----- ------------  ---------------      ----- ------------  ---------------
   528     20.919155  29 C  s               292     20.643628  17 C  s         
   366    -13.546540  20 H  s               342    -12.047559  19 N  s         
   385     11.378910  21 C  pz               13    -10.144454   2 C  s         
   410     -9.949018  23 C  s               383      9.509850  21 C  px        
   113      9.008053   7 N  px              140      8.547619   9 C  s         

 Vector  178  Occ=0.000000D+00  E= 4.221957D-01
              MO Center=  3.4D-02, -9.0D-02, -1.8D-01, r^2= 2.2D+01
   Bfn.  Coefficient  Atom+Function         Bfn.  Coefficient  Atom+Function  
  ----- ------------  ---------------      ----- ------------  ---------------
   174     12.319628  11 C  s               366    -12.104678  20 H  s         
   300     11.746635  17 C  py              342    -10.849557  19 N  s         
   578    -10.497550  31 N  s               528     10.354696  29 C  s         
   292     10.069077  17 C  s               410     -9.825768  23 C  s         
   148      9.640479   9 C  py              173      9.479431  11 C  s         

 Vector  179  Occ=0.000000D+00  E= 4.236576D-01
              MO Center= -5.0D-01,  2.0D-01, -4.0D-01, r^2= 2.0D+01
   Bfn.  Coefficient  Atom+Function         Bfn.  Coefficient  Atom+Function  
  ----- ------------  ---------------      ----- ------------  ---------------
   453     11.737357  26 C  s               537      8.676924  29 C  pz        
   366     -8.006260  20 H  s               300      7.335245  17 C  py        
   292      6.983367  17 C  s               342     -5.070829  19 N  s         
   149      4.446810   9 C  pz              587     -4.449259  31 N  pz        
   148     -4.353358   9 C  py              478     -3.678214  27 O  s         

 Vector  180  Occ=0.000000D+00  E= 4.262919D-01
              MO Center=  9.4D-01, -6.5D-01, -2.9D-01, r^2= 1.9D+01
   Bfn.  Coefficient  Atom+Function         Bfn.  Coefficient  Atom+Function  
  ----- ------------  ---------------      ----- ------------  ---------------
   528     23.473995  29 C  s               385     13.916977  21 C  pz        
   106    -13.088896   7 N  s               350     -9.957627  19 N  py        
   453     -9.668085  26 C  s                13      8.476283   2 C  s         
   366     -8.375651  20 H  s               376      8.093289  21 C  s         
   417      7.839074  23 C  px              301     -7.606056  17 C  pz        

 Vector  181  Occ=0.000000D+00  E= 4.309371D-01
              MO Center=  8.0D-01, -6.2D-01, -5.1D-01, r^2= 1.9D+01
   Bfn.  Coefficient  Atom+Function         Bfn.  Coefficient  Atom+Function  
  ----- ------------  ---------------      ----- ------------  ---------------
    13     17.305434   2 C  s               300     12.471796  17 C  py        
    56     12.049220   5 C  s                63    -11.672671   5 C  px        
   147    -11.574305   9 C  px              342     11.197956  19 N  s         
   217    -10.946981  14 C  s               366      8.669668  20 H  s         
   410     -8.583526  23 C  s               115      7.583210   7 N  pz        

 Vector  182  Occ=0.000000D+00  E= 4.378010D-01
              MO Center=  8.2D-01, -6.6D-01, -1.7D-01, r^2= 2.2D+01
   Bfn.  Coefficient  Atom+Function         Bfn.  Coefficient  Atom+Function  
  ----- ------------  ---------------      ----- ------------  ---------------
   217     14.968165  14 C  s               453     11.891158  26 C  s         
   106     11.814942   7 N  s               366     11.719158  20 H  s         
    63      9.607317   5 C  px               56     -8.317663   5 C  s         
   292     -8.127847  17 C  s               148      7.910605   9 C  py        
   114      7.781230   7 N  py               13     -7.212570   2 C  s         

 Vector  183  Occ=0.000000D+00  E= 4.417887D-01
              MO Center= -1.5D-01, -2.2D+00,  3.6D-01, r^2= 2.1D+01
   Bfn.  Coefficient  Atom+Function         Bfn.  Coefficient  Atom+Function  
  ----- ------------  ---------------      ----- ------------  ---------------
   217     11.501120  14 C  s               410     -9.533032  23 C  s         
    13     -7.133878   2 C  s               242     -6.857833  15 O  s         
   181     -6.469779  11 C  px               56     -5.292825   5 C  s         
   198      5.270586  12 H  s               453      5.192911  26 C  s         
   207     -5.129419  13 H  s               183     -5.032187  11 C  pz        

 Vector  184  Occ=0.000000D+00  E= 4.477327D-01
              MO Center=  3.0D-01,  1.5D-01,  8.7D-02, r^2= 2.1D+01
   Bfn.  Coefficient  Atom+Function         Bfn.  Coefficient  Atom+Function  
  ----- ------------  ---------------      ----- ------------  ---------------
   217     16.001284  14 C  s               453    -10.948369  26 C  s         
   366     10.392952  20 H  s               342      8.520137  19 N  s         
   140     -8.037084   9 C  s               292     -6.729759  17 C  s         
   173     -6.002341  11 C  s               197      5.595374  12 H  s         
   383      5.280558  21 C  px              115     -5.014389   7 N  pz        

 Vector  185  Occ=0.000000D+00  E= 4.510272D-01
              MO Center= -3.6D-01,  1.2D+00, -2.7D-01, r^2= 1.8D+01
   Bfn.  Coefficient  Atom+Function         Bfn.  Coefficient  Atom+Function  
  ----- ------------  ---------------      ----- ------------  ---------------
   528     22.612939  29 C  s               300     21.594099  17 C  py        
   453    -20.981201  26 C  s               578    -14.260772  31 N  s         
   292    -13.046112  17 C  s               350    -11.796470  19 N  py        
   106      9.827955   7 N  s               147     -9.523591   9 C  px        
   174      8.668478  11 C  s               384      8.571205  21 C  py        

 Vector  186  Occ=0.000000D+00  E= 4.556875D-01
              MO Center=  2.3D-01,  6.8D-02, -2.5D-01, r^2= 1.9D+01
   Bfn.  Coefficient  Atom+Function         Bfn.  Coefficient  Atom+Function  
  ----- ------------  ---------------      ----- ------------  ---------------
   292     22.479190  17 C  s               342    -17.465193  19 N  s         
   453    -15.608277  26 C  s               140     14.073981   9 C  s         
    63     13.267820   5 C  px              147     13.284942   9 C  px        
   350     10.557978  19 N  py               13     -9.578160   2 C  s         
   163     -9.478343  10 H  s               300     -9.189849  17 C  py        

 Vector  187  Occ=0.000000D+00  E= 4.601783D-01
              MO Center=  2.3D-01,  1.5D-01, -2.8D-01, r^2= 2.2D+01
   Bfn.  Coefficient  Atom+Function         Bfn.  Coefficient  Atom+Function  
  ----- ------------  ---------------      ----- ------------  ---------------
   410     15.007406  23 C  s                13     14.707411   2 C  s         
   366    -11.897873  20 H  s               292    -10.268342  17 C  s         
   350     -9.911144  19 N  py              453     -8.702785  26 C  s         
   217      8.635985  14 C  s                63     -8.293384   5 C  px        
   106     -7.990234   7 N  s               174      6.834589  11 C  s         

 Vector  188  Occ=0.000000D+00  E= 4.639326D-01
              MO Center= -1.8D-01,  5.3D-01,  2.1D-02, r^2= 1.9D+01
   Bfn.  Coefficient  Atom+Function         Bfn.  Coefficient  Atom+Function  
  ----- ------------  ---------------      ----- ------------  ---------------
   292    -20.060793  17 C  s               217     19.613332  14 C  s         
   453    -19.690962  26 C  s               528     17.224245  29 C  s         
   342     16.179585  19 N  s               182     13.170175  11 C  py        
   385     13.055955  21 C  pz              106     12.855194   7 N  s         
   140    -12.382143   9 C  s                56     -9.719808   5 C  s         

 Vector  189  Occ=0.000000D+00  E= 4.651364D-01
              MO Center=  4.8D-01,  8.8D-01, -1.9D-01, r^2= 2.0D+01
   Bfn.  Coefficient  Atom+Function         Bfn.  Coefficient  Atom+Function  
  ----- ------------  ---------------      ----- ------------  ---------------
   366     19.586088  20 H  s               453    -13.058623  26 C  s         
   300     12.954789  17 C  py              528    -11.473667  29 C  s         
   174     -7.800938  11 C  s               148     -7.068325   9 C  py        
    55      6.470100   5 C  s               114     -6.318720   7 N  py        
   147     -5.977648   9 C  px              106     -5.383141   7 N  s         

 Vector  190  Occ=0.000000D+00  E= 4.695100D-01
              MO Center= -1.9D-01,  1.1D+00,  4.9D-01, r^2= 1.9D+01
   Bfn.  Coefficient  Atom+Function         Bfn.  Coefficient  Atom+Function  
  ----- ------------  ---------------      ----- ------------  ---------------
   410     18.468554  23 C  s                13     14.525835   2 C  s         
   292    -13.097638  17 C  s               300     12.569308  17 C  py        
   148     11.943237   9 C  py              147    -11.094751   9 C  px        
   106     10.047883   7 N  s               384      9.707097  21 C  py        
   174      9.367570  11 C  s               301      8.810485  17 C  pz        

 Vector  191  Occ=0.000000D+00  E= 4.728874D-01
              MO Center=  1.9D-01,  4.4D-01,  2.2D-01, r^2= 2.1D+01
   Bfn.  Coefficient  Atom+Function         Bfn.  Coefficient  Atom+Function  
  ----- ------------  ---------------      ----- ------------  ---------------
   453     24.534868  26 C  s               410    -21.824967  23 C  s         
   217     21.465384  14 C  s               292    -19.083852  17 C  s         
   140    -12.635865   9 C  s               174     12.054890  11 C  s         
   376    -11.231321  21 C  s               182      8.829265  11 C  py        
   148      8.779008   9 C  py               56     -8.232891   5 C  s         

 Vector  192  Occ=0.000000D+00  E= 4.829229D-01
              MO Center=  1.3D-01,  3.9D-01, -2.3D-01, r^2= 1.7D+01
   Bfn.  Coefficient  Atom+Function         Bfn.  Coefficient  Atom+Function  
  ----- ------------  ---------------      ----- ------------  ---------------
    13     13.671775   2 C  s               453     12.423163  26 C  s         
   292    -11.388390  17 C  s               217     10.593900  14 C  s         
   148      9.583695   9 C  py               63     -9.146106   5 C  px        
   106     -9.065339   7 N  s               140     -6.880462   9 C  s         
   478     -6.016298  27 O  s               366     -5.427728  20 H  s         

 Vector  193  Occ=0.000000D+00  E= 4.855393D-01
              MO Center=  2.1D-01,  6.8D-01, -2.4D-01, r^2= 2.0D+01
   Bfn.  Coefficient  Atom+Function         Bfn.  Coefficient  Atom+Function  
  ----- ------------  ---------------      ----- ------------  ---------------
   528     35.616034  29 C  s               410    -31.655794  23 C  s         
   300    -17.702468  17 C  py              385     13.767625  21 C  pz        
   376     11.236301  21 C  s               174     10.803894  11 C  s         
   217    -10.719718  14 C  s               106    -10.468698   7 N  s         
   342     10.451000  19 N  s               147      9.425778   9 C  px        

 Vector  194  Occ=0.000000D+00  E= 4.885665D-01
              MO Center= -2.9D-01,  9.9D-01,  8.0D-02, r^2= 1.9D+01
   Bfn.  Coefficient  Atom+Function         Bfn.  Coefficient  Atom+Function  
  ----- ------------  ---------------      ----- ------------  ---------------
   410     38.911324  23 C  s               174    -17.937950  11 C  s         
   385    -14.681592  21 C  pz              342    -14.466173  19 N  s         
   300    -13.260795  17 C  py              292    -11.252932  17 C  s         
   453    -10.703052  26 C  s                13     10.314172   2 C  s         
   384     -9.344426  21 C  py              350     -8.730110  19 N  py        

 Vector  195  Occ=0.000000D+00  E= 4.973867D-01
              MO Center= -3.5D-01, -2.7D-02,  1.9D-01, r^2= 1.9D+01
   Bfn.  Coefficient  Atom+Function         Bfn.  Coefficient  Atom+Function  
  ----- ------------  ---------------      ----- ------------  ---------------
   174    -12.031836  11 C  s                56     11.101751   5 C  s         
   292     11.033281  17 C  s               114      7.615816   7 N  py        
   453     -7.453940  26 C  s               300     -7.265620  17 C  py        
   528     -7.128565  29 C  s               148     -7.028441   9 C  py        
   149      6.847286   9 C  pz              384      6.553864  21 C  py        

 Vector  196  Occ=0.000000D+00  E= 5.003091D-01
              MO Center= -1.9D-01,  3.5D-01,  1.8D-01, r^2= 1.8D+01
   Bfn.  Coefficient  Atom+Function         Bfn.  Coefficient  Atom+Function  
  ----- ------------  ---------------      ----- ------------  ---------------
   174     18.575543  11 C  s               528    -15.094424  29 C  s         
   217    -14.283734  14 C  s                56    -14.014978   5 C  s         
   139    -11.569727   9 C  s               300      8.227060  17 C  py        
   140      8.125813   9 C  s               410      7.458341  23 C  s         
   291      6.877369  17 C  s               297     -6.003545  17 C  py        


 center of mass
 --------------
 x =  -0.02272201 y =  -0.00147446 z =   0.00849540

 moments of inertia (a.u.)
 ------------------
        8730.294730956492          -0.000000000001          -0.000000000000
          -0.000000000001        3506.918332819714           0.000000000001
          -0.000000000000           0.000000000001        9396.207400383446

  Mulliken analysis of the total density
  --------------------------------------

    Atom       Charge   Shell Charges
 -----------   ------   -------------------------------------------------------
    1 H    1     0.84   0.76  0.10  0.01  0.03 -0.06
    2 C    6     6.26   2.01  0.66  0.27  0.12  2.07  0.97 -0.00  0.06  0.10
    3 H    1     0.83   0.76  0.11 -0.00  0.03 -0.07
    4 H    1     0.99   0.76  0.25  0.01  0.03 -0.07
    5 C    6     5.17   2.01  0.68  0.11 -0.08  1.90  0.38 -0.05  0.24 -0.01
    6 O    8     8.82   2.01  0.82  1.02  0.19  2.78  1.85  0.15  0.01 -0.01
    7 N    7     7.64   2.01  0.73  0.82 -0.05  2.44  1.43  0.19  0.05  0.02
    8 H    1     0.86   0.73  0.16 -0.01  0.06 -0.09
    9 C    6     6.40   2.01  0.67  0.20  0.01  1.98  1.02  0.20  0.13  0.17
   10 H    1     1.12   0.77  0.30 -0.00  0.03  0.03
   11 C    6     6.41   2.01  0.67  0.64 -0.10  2.03  0.89  0.01  0.09  0.19
   12 H    1     0.80   0.76  0.06  0.00  0.03 -0.05
   13 H    1     0.92   0.76  0.20 -0.01  0.03 -0.06
   14 C    6     4.37   2.01  0.68  0.02 -0.22  1.87 -0.01  0.00  0.26 -0.25
   15 O    8     8.52   2.01  0.84  1.01  0.15  2.71  1.71  0.12  0.01 -0.03
   16 O    8     8.63   2.01  0.83  1.01  0.17  2.73  1.79  0.12  0.01 -0.03
   17 C    6     4.68   2.01  0.68  0.16  0.00  1.88  0.09 -0.05  0.23 -0.32
   18 O    8     8.77   2.01  0.83  1.05  0.18  2.76  1.83  0.11  0.01 -0.01
   19 N    7     7.39   2.01  0.73  0.76 -0.17  2.42  1.42  0.16  0.05  0.02
   20 H    1     0.85   0.73  0.23 -0.02  0.06 -0.14
   21 C    6     6.19   2.01  0.67  0.08  0.01  1.99  1.22 -0.02  0.13  0.11
   22 H    1     1.07   0.77  0.28 -0.00  0.03 -0.00
   23 C    6     6.85   2.01  0.67  0.60  0.20  2.04  0.93  0.05  0.08  0.26
   24 H    1     0.82   0.76  0.10 -0.00  0.03 -0.07
   25 H    1     0.73   0.77  0.00  0.00  0.03 -0.07
   26 C    6     4.53   2.01  0.67  0.04 -0.26  1.88  0.14 -0.03  0.26 -0.19
   27 O    8     8.62   2.01  0.84  1.03  0.18  2.72  1.74  0.12  0.01 -0.03
   28 O    8     8.60   2.01  0.83  1.00  0.14  2.73  1.79  0.13  0.01 -0.03
   29 C    6     4.50   2.01  0.68  0.05 -0.04  1.89 -0.19  0.01  0.23 -0.14
   30 O    8     8.81   2.01  0.82  1.05  0.19  2.78  1.82  0.13  0.01 -0.00
   31 N    7     7.11   2.01  0.72  0.80 -0.23  2.46  1.21  0.13  0.04 -0.03
   32 H    1     1.04   0.76  0.26 -0.00  0.06 -0.03
   33 H    1     0.86   0.73  0.22 -0.03  0.06 -0.12

       Multipole analysis of the density wrt the origin
       ------------------------------------------------

     L   x y z        total         open         nuclear
     -   - - -        -----         ----         -------
     0   0 0 0     -0.000000      0.000000    150.000000

     1   1 0 0      0.533669      0.000000      0.000000
     1   0 1 0     -1.039491      0.000000      0.000000
     1   0 0 1      0.401137      0.000000     -0.000000

     2   2 0 0    -97.890677      0.000000   1118.442437
     2   1 1 0     -1.143049      0.000000    -17.416390
     2   1 0 1     -8.592128      0.000000    -31.208270
     2   0 2 0   -116.924545      0.000000   3764.098100
     2   0 1 1     -0.087404      0.000000      7.008470
     2   0 0 2    -84.359767      0.000000    772.663612

 ------------------------------------------------------------------------
 scf energy failed                                                                                  0
 ------------------------------------------------------------------------
 ------------------------------------------------------------------------
  current input line : 
    48: task scf energy
 ------------------------------------------------------------------------
 ------------------------------------------------------------------------
 This type of error is most commonly associated with calculations not reaching convergence criteria
 ------------------------------------------------------------------------
 For more information see the NWChem manual at https://nwchemgit.github.io


 For further details see manual section:                                                                                                                                                                                                                                                                
0:scf energy failed:Received an Error in Communication
--------------------------------------------------------------------------
MPI_ABORT was invoked on rank 0 in communicator MPI COMMUNICATOR 3 DUP FROM 0
with errorcode -1.

NOTE: invoking MPI_ABORT causes Open MPI to kill all MPI processes.
You may or may not see output from other processes, depending on
exactly when Open MPI kills them.
--------------------------------------------------------------------------
slurmstepd: error: *** STEP 6619389.91 ON nova21-speedy-12 CANCELLED AT 2025-07-10T22:20:17 ***
srun: Job step aborted: Waiting up to 32 seconds for job step to finish.
srun: error: nova21-speedy-12: task 0: Exited with exit code 255
srun: error: nova21-speedy-12: tasks 1-7: Killed
