export TMOUT=5400
export TMPDIR=/tmp
export PTMPDIR=/tmp/ptmp
 argument  1 = inputs/ASP_GLN_0.nw



============================== echo of input deck ==============================
start ASP_GLN_0
geometry
H         11.32200        4.70600       -9.43800
C         10.88900        5.66400       -9.15700
H         10.38500        6.11100      -10.01200
H         11.67100        6.33000       -8.79600
C          9.88400        5.44400       -8.05300
O          8.70900        5.74200       -8.22100
N         10.36300        4.94900       -6.91800
H         11.37000        4.86500       -6.81700
C          9.60000        4.79300       -5.67200
H          8.70800        4.19800       -5.86700
C         10.47100        4.06400       -4.62700
H          9.87800        3.92400       -3.72100
H         10.72200        3.07400       -5.01200
C         11.77900        4.79400       -4.27000
O         12.39800        5.39500       -5.17800
O         12.12600        4.81100       -3.07000
C          9.14600        6.15100       -5.10600
O          8.00200        6.30200       -4.68600
N         10.02500        7.15600       -5.15900
H         10.97100        6.91300       -5.44100
C          9.74400        8.54700       -4.78000
H          9.13900        8.53000       -3.87200
C         11.06700        9.27500       -4.45700
H         11.63500        9.39900       -5.38000
H         10.83300       10.26800       -4.07100
C         11.96300        8.55700       -3.43000
H         12.34500        7.63300       -3.86000
H         12.82400        9.18900       -3.21300
C         11.25600        8.25400       -2.11200
O         10.66900        9.11800       -1.47900
N         11.29100        7.03300       -1.62900
H         10.78300        6.86100       -0.78800
H         11.72800        6.26800       -2.15800
C          8.91400        9.31400       -5.83800
O          8.80300       10.53600       -5.79400
N          8.34100        8.64500       -6.83300
H          8.40400        7.63700       -6.86600
H          7.80400        9.15600       -7.51100
end

basis
 * library aug-cc-pvdz
end

echo

scf
 direct
end

task scf energy
================================================================================


                                         
                                         


             Northwest Computational Chemistry Package (NWChem) 7.2.0
             --------------------------------------------------------


                    Environmental Molecular Sciences Laboratory
                       Pacific Northwest National Laboratory
                                Richland, WA 99352

                              Copyright (c) 1994-2022
                       Pacific Northwest National Laboratory
                            Battelle Memorial Institute

             NWChem is an open-source computational chemistry package
                        distributed under the terms of the
                      Educational Community License (ECL) 2.0
             A copy of the license is included with this distribution
                              in the LICENSE.TXT file

                                  ACKNOWLEDGMENT
                                  --------------

            This software and its documentation were developed at the
            EMSL at Pacific Northwest National Laboratory, a multiprogram
            national laboratory, operated for the U.S. Department of Energy
            by Battelle under Contract Number DE-AC05-76RL01830. Support
            for this work was provided by the Department of Energy Office
            of Biological and Environmental Research, Office of Basic
            Energy Sciences, and the Office of Advanced Scientific Computing.


           Job information
           ---------------

    hostname        = nova21-swift-4
    program         = /opt/rit/el9/20230413/app/linux-rhel9-x86_64_v3/gcc-11.2.1/nwchem-7.2.0-oxtctbuhfuzyfaoziquq6bki22grib3g/bin/nwchem
    date            = Fri Jul 11 03:00:04 2025

    compiled        = Wed_May_17_23:46:39_2023
    source          = /tmp/root/spack-stage/spack-stage-nwchem-7.2.0-oxtctbuhfuzyfaoziquq6bki22grib3g/spack-src
    nwchem branch   = 7.2.0
    nwchem revision = d0d141fd
    ga revision     = 5.8.0
    use scalapack   = T
    input           = inputs/ASP_GLN_0.nw
    prefix          = ASP_GLN_0.
    data base       = ./ASP_GLN_0.db
    status          = startup
    nproc           =        8
    time left       =     -1s



           Memory information
           ------------------

    heap     =   26214396 doubles =    200.0 Mbytes
    stack    =   26214401 doubles =    200.0 Mbytes
    global   =   52428800 doubles =    400.0 Mbytes (distinct from heap & stack)
    total    =  104857597 doubles =    800.0 Mbytes
    verify   = yes
    hardfail = no 


           Directory information
           ---------------------

  0 permanent = .
  0 scratch   = .




                                NWChem Input Module
                                -------------------



 Scaling coordinates for geometry "geometry" by  1.889725989
 (inverse scale =  0.529177249)

 C1  symmetry detected

          ------
          auto-z
          ------
  no constraints, skipping    0.0000000000000000     
  no constraints, skipping    0.0000000000000000     


                             Geometry "geometry" -> ""
                             -------------------------

 Output coordinates in angstroms (scale by  1.889725989 to convert to a.u.)

  No.       Tag          Charge          X              Y              Z
 ---- ---------------- ---------- -------------- -------------- --------------
    1 H                    1.0000     0.92453866     4.50324117     1.89666040
    2 C                    6.0000     0.01825742     3.92221278     1.73768135
    3 H                    1.0000    -0.85535574     4.56848375     1.80079933
    4 H                    1.0000    -0.04852107     3.13226145     2.48395109
    5 C                    6.0000     0.06988746     3.29707986     0.36517118
    6 O                    8.0000    -0.78316578     3.57009620    -0.46874444
    7 N                    7.0000     1.05874564     2.43706225     0.15252074
    8 H                    1.0000     1.63513968     2.16206475     0.94211068
    9 C                    6.0000     1.21629319     1.60608548    -1.04901052
   10 H                    1.0000     1.22447079     2.24541080    -1.93156945
   11 C                    6.0000     2.55503141     0.84208710    -0.97031192
   12 H                    1.0000     2.67344311     0.25854209    -1.88548342
   13 H                    1.0000     3.36923237     1.56817135    -0.93560685
   14 C                    6.0000     2.68268225    -0.09173330     0.24743096
   15 O                    8.0000     2.19597063     0.27777687     1.34077448
   16 O                    8.0000     3.20751904    -1.21123241     0.06864037
   17 C                    6.0000     0.05946838     0.60210724    -1.20527971
   18 O                    8.0000    -0.47405570     0.42853348    -2.29759890
   19 N                    7.0000    -0.37026172    -0.00733917    -0.09650466
   20 H                    1.0000     0.18869436     0.13372306     0.74084744
   21 C                    6.0000    -1.53100926    -0.90411011    -0.01936818
   22 H                    1.0000    -1.51901636    -1.54269029    -0.90415602
   23 C                    6.0000    -1.40524948    -1.81109875     1.22409396
   24 H                    1.0000    -1.52759340    -1.20000606     2.11937419
   25 H                    1.0000    -2.21358153    -2.54322982     1.20448830
   26 C                    6.0000    -0.06939444    -2.57021555     1.33500836
   27 H                    1.0000     0.73821930    -1.86484775     1.52159969
   28 H                    1.0000    -0.11583421    -3.23837730     2.19479742
   29 C                    6.0000     0.25825629    -3.40886492     0.10289869
   30 O                    8.0000    -0.53329541    -4.21574033    -0.35986688
   31 N                    7.0000     1.43205276    -3.27684964    -0.47166968
   32 H                    1.0000     1.59667353    -3.80892226    -1.29915245
   33 H                    1.0000     2.10366120    -2.57095052    -0.14504523
   34 C                    6.0000    -2.88576488    -0.15542673    -0.04512442
   35 O                    8.0000    -3.93160953    -0.72483356     0.25408426
   36 N                    7.0000    -2.91590847     1.13512722    -0.36052396
   37 H                    1.0000    -2.06567499     1.60839634    -0.63299664
   38 H                    1.0000    -3.80254920     1.60718409    -0.37482520

      Atomic Mass 
      ----------- 

      H                  1.007825
      C                 12.000000
      O                 15.994910
      N                 14.003070


 Effective nuclear repulsion energy (a.u.)    1875.2634491405

            Nuclear Dipole moment (a.u.) 
            ----------------------------
        X                 Y               Z
 ---------------- ---------------- ----------------
     0.0000000000    -0.0000000000     0.0000000000



                                Z-matrix (autoz)
                                -------- 

 Units are Angstrom for bonds and degrees for angles

      Type          Name      I     J     K     L     M      Value
      ----------- --------  ----- ----- ----- ----- ----- ----------
    1 Stretch                  1     2                       1.08822
    2 Stretch                  2     3                       1.08851
    3 Stretch                  2     4                       1.08876
    4 Stretch                  2     5                       1.50905
    5 Stretch                  5     6                       1.22379
    6 Stretch                  5     7                       1.32766
    7 Stretch                  7     8                       1.01553
    8 Stretch                  7     9                       1.46936
    9 Stretch                  9    10                       1.08982
   10 Stretch                  9    11                       1.54341
   11 Stretch                  9    17                       1.53969
   12 Stretch                 11    12                       1.09183
   13 Stretch                 11    13                       1.09148
   14 Stretch                 11    14                       1.53987
   15 Stretch                 14    15                       1.25253
   16 Stretch                 14    16                       1.24928
   17 Stretch                 17    18                       1.22798
   18 Stretch                 17    19                       1.33622
   19 Stretch                 19    20                       1.01661
   20 Stretch                 19    21                       1.46884
   21 Stretch                 21    22                       1.09123
   22 Stretch                 21    23                       1.54423
   23 Stretch                 21    34                       1.54808
   24 Stretch                 23    24                       1.09084
   25 Stretch                 23    25                       1.09078
   26 Stretch                 23    26                       1.54048
   27 Stretch                 26    27                       1.08839
   28 Stretch                 26    28                       1.08988
   29 Stretch                 26    29                       1.52603
   30 Stretch                 29    30                       1.22137
   31 Stretch                 29    31                       1.31353
   32 Stretch                 31    32                       0.99746
   33 Stretch                 31    33                       1.02764
   34 Stretch                 34    35                       1.22782
   35 Stretch                 34    36                       1.32888
   36 Stretch                 36    37                       1.01051
   37 Stretch                 36    38                       1.00458
   38 Bend                     1     2     3               110.05505
   39 Bend                     1     2     4               109.77553
   40 Bend                     1     2     5               108.99959
   41 Bend                     2     5     6               120.23183
   42 Bend                     2     5     7               116.07199
   43 Bend                     3     2     4               109.98684
   44 Bend                     3     2     5               109.03529
   45 Bend                     4     2     5               108.96231
   46 Bend                     5     7     8               118.26920
   47 Bend                     5     7     9               125.25174
   48 Bend                     6     5     7               123.67952
   49 Bend                     7     9    10               109.34471
   50 Bend                     7     9    11               109.34479
   51 Bend                     7     9    17               111.78974
   52 Bend                     8     7     9               114.94777
   53 Bend                     9    11    12               108.41492
   54 Bend                     9    11    13               108.62470
   55 Bend                     9    11    14               114.35651
   56 Bend                     9    17    18               120.58966
   57 Bend                     9    17    19               117.05334
   58 Bend                    10     9    11               108.97597
   59 Bend                    10     9    17               107.81648
   60 Bend                    11     9    17               109.51789
   61 Bend                    11    14    15               118.63235
   62 Bend                    11    14    16               117.71528
   63 Bend                    12    11    13               107.53531
   64 Bend                    12    11    14               109.25365
   65 Bend                    13    11    14               108.44718
   66 Bend                    15    14    16               123.54141
   67 Bend                    17    19    20               116.31854
   68 Bend                    17    19    21               125.18264
   69 Bend                    18    17    19               122.27066
   70 Bend                    19    21    22               107.81917
   71 Bend                    19    21    23               109.66501
   72 Bend                    19    21    34               113.29239
   73 Bend                    20    19    21               118.42185
   74 Bend                    21    23    24               108.82692
   75 Bend                    21    23    25               108.62658
   76 Bend                    21    23    26               114.71014
   77 Bend                    21    34    35               121.13677
   78 Bend                    21    34    36               119.56911
   79 Bend                    22    21    23               107.95642
   80 Bend                    22    21    34               106.20887
   81 Bend                    23    21    34               111.63643
   82 Bend                    23    26    27               109.66026
   83 Bend                    23    26    28               108.78114
   84 Bend                    23    26    29               113.50745
   85 Bend                    24    23    25               107.91746
   86 Bend                    24    23    26               108.31395
   87 Bend                    25    23    26               108.25001
   88 Bend                    26    29    30               121.99334
   89 Bend                    26    29    31               119.32787
   90 Bend                    27    26    28               107.07881
   91 Bend                    27    26    29               109.58835
   92 Bend                    28    26    29               108.00951
   93 Bend                    29    31    32               117.17780
   94 Bend                    29    31    33               120.93269
   95 Bend                    30    29    31               118.67246
   96 Bend                    32    31    33               121.48230
   97 Bend                    34    36    37               119.98369
   98 Bend                    34    36    38               118.66934
   99 Bend                    35    34    36               119.26811
  100 Bend                    37    36    38               121.24488
  101 Torsion                  1     2     5     6        -119.07889
  102 Torsion                  1     2     5     7          62.35188
  103 Torsion                  2     5     7     8           7.83801
  104 Torsion                  2     5     7     9         172.97041
  105 Torsion                  3     2     5     6           1.08378
  106 Torsion                  3     2     5     7        -177.48546
  107 Torsion                  4     2     5     6         121.14127
  108 Torsion                  4     2     5     7         -57.42796
  109 Torsion                  5     7     9    10          55.54820
  110 Torsion                  5     7     9    11         174.79031
  111 Torsion                  5     7     9    17         -63.76439
  112 Torsion                  6     5     7     8        -170.67646
  113 Torsion                  6     5     7     9          -5.54405
  114 Torsion                  7     9    11    12        -177.97077
  115 Torsion                  7     9    11    13         -61.39945
  116 Torsion                  7     9    11    14          59.87311
  117 Torsion                  7     9    17    18         135.67588
  118 Torsion                  7     9    17    19         -41.02120
  119 Torsion                  8     7     9    10        -138.88432
  120 Torsion                  8     7     9    11         -19.64221
  121 Torsion                  8     7     9    17         101.80309
  122 Torsion                  9    11    14    15         -37.28287
  123 Torsion                  9    11    14    16         139.02460
  124 Torsion                  9    17    19    20          -8.81870
  125 Torsion                  9    17    19    21         174.43508
  126 Torsion                 10     9    11    12         -58.50087
  127 Torsion                 10     9    11    13          58.07045
  128 Torsion                 10     9    11    14         179.34300
  129 Torsion                 10     9    17    18          15.46485
  130 Torsion                 10     9    17    19        -161.23223
  131 Torsion                 11     9    17    18        -102.97888
  132 Torsion                 11     9    17    19          80.32405
  133 Torsion                 12    11     9    17          59.22009
  134 Torsion                 12    11    14    15        -158.97985
  135 Torsion                 12    11    14    16          17.32763
  136 Torsion                 13    11     9    17         175.79140
  137 Torsion                 13    11    14    15          84.08750
  138 Torsion                 13    11    14    16         -99.60503
  139 Torsion                 14    11     9    17         -62.93604
  140 Torsion                 17    19    21    22          41.16716
  141 Torsion                 17    19    21    23         158.47388
  142 Torsion                 17    19    21    34         -76.06541
  143 Torsion                 18    17    19    20         174.54405
  144 Torsion                 18    17    19    21          -2.20217
  145 Torsion                 19    21    23    24          69.03596
  146 Torsion                 19    21    23    25        -173.71091
  147 Torsion                 19    21    23    26         -52.45350
  148 Torsion                 19    21    34    35        -166.54385
  149 Torsion                 19    21    34    36          11.58729
  150 Torsion                 20    19    21    22        -135.51655
  151 Torsion                 20    19    21    23         -18.20983
  152 Torsion                 20    19    21    34         107.25088
  153 Torsion                 21    23    26    27          67.83059
  154 Torsion                 21    23    26    28        -175.36798
  155 Torsion                 21    23    26    29         -55.10083
  156 Torsion                 21    34    36    37           3.50978
  157 Torsion                 21    34    36    38         179.88238
  158 Torsion                 22    21    23    24        -173.74328
  159 Torsion                 22    21    23    25         -56.49015
  160 Torsion                 22    21    23    26          64.76726
  161 Torsion                 22    21    34    35          75.28506
  162 Torsion                 22    21    34    36        -106.58379
  163 Torsion                 23    21    34    35         -42.14715
  164 Torsion                 23    21    34    36         135.98400
  165 Torsion                 23    26    29    30         -52.35002
  166 Torsion                 23    26    29    31         128.57755
  167 Torsion                 24    23    21    34         -57.36955
  168 Torsion                 24    23    26    27         -53.93868
  169 Torsion                 24    23    26    28          62.86275
  170 Torsion                 24    23    26    29        -176.87010
  171 Torsion                 25    23    21    34          59.88358
  172 Torsion                 25    23    26    27        -170.70599
  173 Torsion                 25    23    26    28         -53.90456
  174 Torsion                 25    23    26    29          66.36259
  175 Torsion                 26    23    21    34        -178.85900
  176 Torsion                 26    29    31    32        -177.23045
  177 Torsion                 26    29    31    33          -4.44881
  178 Torsion                 27    26    29    30        -175.32100
  179 Torsion                 27    26    29    31           5.60657
  180 Torsion                 28    26    29    30          68.35304
  181 Torsion                 28    26    29    31        -110.71939
  182 Torsion                 30    29    31    32           3.66617
  183 Torsion                 30    29    31    33         176.44781
  184 Torsion                 35    34    36    37        -178.32392
  185 Torsion                 35    34    36    38          -1.95131


            XYZ format geometry
            -------------------
    38
 geometry
 H                     0.92453866     4.50324117     1.89666040
 C                     0.01825742     3.92221278     1.73768135
 H                    -0.85535574     4.56848375     1.80079933
 H                    -0.04852107     3.13226145     2.48395109
 C                     0.06988746     3.29707986     0.36517118
 O                    -0.78316578     3.57009620    -0.46874444
 N                     1.05874564     2.43706225     0.15252074
 H                     1.63513968     2.16206475     0.94211068
 C                     1.21629319     1.60608548    -1.04901052
 H                     1.22447079     2.24541080    -1.93156945
 C                     2.55503141     0.84208710    -0.97031192
 H                     2.67344311     0.25854209    -1.88548342
 H                     3.36923237     1.56817135    -0.93560685
 C                     2.68268225    -0.09173330     0.24743096
 O                     2.19597063     0.27777687     1.34077448
 O                     3.20751904    -1.21123241     0.06864037
 C                     0.05946838     0.60210724    -1.20527971
 O                    -0.47405570     0.42853348    -2.29759890
 N                    -0.37026172    -0.00733917    -0.09650466
 H                     0.18869436     0.13372306     0.74084744
 C                    -1.53100926    -0.90411011    -0.01936818
 H                    -1.51901636    -1.54269029    -0.90415602
 C                    -1.40524948    -1.81109875     1.22409396
 H                    -1.52759340    -1.20000606     2.11937419
 H                    -2.21358153    -2.54322982     1.20448830
 C                    -0.06939444    -2.57021555     1.33500836
 H                     0.73821930    -1.86484775     1.52159969
 H                    -0.11583421    -3.23837730     2.19479742
 C                     0.25825629    -3.40886492     0.10289869
 O                    -0.53329541    -4.21574033    -0.35986688
 N                     1.43205276    -3.27684964    -0.47166968
 H                     1.59667353    -3.80892226    -1.29915245
 H                     2.10366120    -2.57095052    -0.14504523
 C                    -2.88576488    -0.15542673    -0.04512442
 O                    -3.93160953    -0.72483356     0.25408426
 N                    -2.91590847     1.13512722    -0.36052396
 H                    -2.06567499     1.60839634    -0.63299664
 H                    -3.80254920     1.60718409    -0.37482520

 ==============================================================================
                                internuclear distances
 ------------------------------------------------------------------------------
       center one      |      center two      | atomic units |  angstroms
 ------------------------------------------------------------------------------
    2 C                |   1 H                |     2.05643  |     1.08822
    3 H                |   2 C                |     2.05698  |     1.08851
    4 H                |   2 C                |     2.05746  |     1.08876
    5 C                |   2 C                |     2.85170  |     1.50905
    6 O                |   5 C                |     2.31262  |     1.22379
    7 N                |   5 C                |     2.50892  |     1.32766
    8 H                |   7 N                |     1.91908  |     1.01553
    9 C                |   7 N                |     2.77669  |     1.46936
   10 H                |   9 C                |     2.05947  |     1.08982
   11 C                |   9 C                |     2.91662  |     1.54341
   12 H                |  11 C                |     2.06325  |     1.09183
   13 H                |  11 C                |     2.06260  |     1.09148
   14 C                |  11 C                |     2.90994  |     1.53987
   15 O                |  14 C                |     2.36693  |     1.25253
   16 O                |  14 C                |     2.36079  |     1.24928
   17 C                |   9 C                |     2.90959  |     1.53969
   18 O                |  17 C                |     2.32055  |     1.22798
   19 N                |  17 C                |     2.52508  |     1.33622
   20 H                |  19 N                |     1.92111  |     1.01661
   21 C                |  19 N                |     2.77570  |     1.46884
   22 H                |  21 C                |     2.06212  |     1.09123
   23 C                |  21 C                |     2.91817  |     1.54423
   24 H                |  23 C                |     2.06139  |     1.09084
   25 H                |  23 C                |     2.06128  |     1.09078
   26 C                |  23 C                |     2.91108  |     1.54048
   27 H                |  26 C                |     2.05677  |     1.08839
   28 H                |  26 C                |     2.05957  |     1.08988
   29 C                |  26 C                |     2.88379  |     1.52603
   30 O                |  29 C                |     2.30806  |     1.22137
   31 N                |  29 C                |     2.48221  |     1.31353
   32 H                |  31 N                |     1.88493  |     0.99746
   33 H                |  31 N                |     1.94195  |     1.02764
   34 C                |  21 C                |     2.92545  |     1.54808
   35 O                |  34 C                |     2.32024  |     1.22782
   36 N                |  34 C                |     2.51121  |     1.32888
   37 H                |  36 N                |     1.90958  |     1.01051
   38 H                |  36 N                |     1.89837  |     1.00458
 ------------------------------------------------------------------------------
                         number of included internuclear distances:         37
 ==============================================================================



 ==============================================================================
                                 internuclear angles
 ------------------------------------------------------------------------------
        center 1       |       center 2       |       center 3       |  degrees
 ------------------------------------------------------------------------------
    1 H                |   2 C                |   3 H                |   110.06
    1 H                |   2 C                |   4 H                |   109.78
    1 H                |   2 C                |   5 C                |   109.00
    3 H                |   2 C                |   4 H                |   109.99
    3 H                |   2 C                |   5 C                |   109.04
    4 H                |   2 C                |   5 C                |   108.96
    2 C                |   5 C                |   6 O                |   120.23
    2 C                |   5 C                |   7 N                |   116.07
    6 O                |   5 C                |   7 N                |   123.68
    5 C                |   7 N                |   8 H                |   118.27
    5 C                |   7 N                |   9 C                |   125.25
    8 H                |   7 N                |   9 C                |   114.95
    7 N                |   9 C                |  10 H                |   109.34
    7 N                |   9 C                |  11 C                |   109.34
    7 N                |   9 C                |  17 C                |   111.79
   10 H                |   9 C                |  11 C                |   108.98
   10 H                |   9 C                |  17 C                |   107.82
   11 C                |   9 C                |  17 C                |   109.52
    9 C                |  11 C                |  12 H                |   108.41
    9 C                |  11 C                |  13 H                |   108.62
    9 C                |  11 C                |  14 C                |   114.36
   12 H                |  11 C                |  13 H                |   107.54
   12 H                |  11 C                |  14 C                |   109.25
   13 H                |  11 C                |  14 C                |   108.45
   11 C                |  14 C                |  15 O                |   118.63
   11 C                |  14 C                |  16 O                |   117.72
   15 O                |  14 C                |  16 O                |   123.54
    9 C                |  17 C                |  18 O                |   120.59
    9 C                |  17 C                |  19 N                |   117.05
   18 O                |  17 C                |  19 N                |   122.27
   17 C                |  19 N                |  20 H                |   116.32
   17 C                |  19 N                |  21 C                |   125.18
   20 H                |  19 N                |  21 C                |   118.42
   19 N                |  21 C                |  22 H                |   107.82
   19 N                |  21 C                |  23 C                |   109.67
   19 N                |  21 C                |  34 C                |   113.29
   22 H                |  21 C                |  23 C                |   107.96
   22 H                |  21 C                |  34 C                |   106.21
   23 C                |  21 C                |  34 C                |   111.64
   21 C                |  23 C                |  24 H                |   108.83
   21 C                |  23 C                |  25 H                |   108.63
   21 C                |  23 C                |  26 C                |   114.71
   24 H                |  23 C                |  25 H                |   107.92
   24 H                |  23 C                |  26 C                |   108.31
   25 H                |  23 C                |  26 C                |   108.25
   23 C                |  26 C                |  27 H                |   109.66
   23 C                |  26 C                |  28 H                |   108.78
   23 C                |  26 C                |  29 C                |   113.51
   27 H                |  26 C                |  28 H                |   107.08
   27 H                |  26 C                |  29 C                |   109.59
   28 H                |  26 C                |  29 C                |   108.01
   26 C                |  29 C                |  30 O                |   121.99
   26 C                |  29 C                |  31 N                |   119.33
   30 O                |  29 C                |  31 N                |   118.67
   29 C                |  31 N                |  32 H                |   117.18
   29 C                |  31 N                |  33 H                |   120.93
   32 H                |  31 N                |  33 H                |   121.48
   21 C                |  34 C                |  35 O                |   121.14
   21 C                |  34 C                |  36 N                |   119.57
   35 O                |  34 C                |  36 N                |   119.27
   34 C                |  36 N                |  37 H                |   119.98
   34 C                |  36 N                |  38 H                |   118.67
   37 H                |  36 N                |  38 H                |   121.24
 ------------------------------------------------------------------------------
                            number of included internuclear angles:         63
 ==============================================================================



  library name resolved from: environment
  library file name is: </opt/rit/el9/20230413/app/linux-rhel9-x86_64_v3/gcc-11.2.1/nwchem-7.2.0-oxtctbuhfuzyfaoziquq6bki22grib3g/share/nwchem/libraries/>
  


 Summary of "ao basis" -> "" (cartesian)
 ------------------------------------------------------------------------------
       Tag                 Description            Shells   Functions and Types
 ---------------- ------------------------------  ------  ---------------------
 *                        aug-cc-pvdz                 on all atoms 


                      Basis "ao basis" -> "ao basis" (cartesian)
                      -----
  H (Hydrogen)
  ------------
            Exponent  Coefficients 
       -------------- ---------------------------------------------------------
  1 S  1.30100000E+01  0.019685
  1 S  1.96200000E+00  0.137977
  1 S  4.44600000E-01  0.478148

  2 S  1.22000000E-01  1.000000

  3 S  2.97400000E-02  1.000000

  4 P  7.27000000E-01  1.000000

  5 P  1.41000000E-01  1.000000

  C (Carbon)
  ----------
            Exponent  Coefficients 
       -------------- ---------------------------------------------------------
  1 S  6.66500000E+03  0.000692
  1 S  1.00000000E+03  0.005329
  1 S  2.28000000E+02  0.027077
  1 S  6.47100000E+01  0.101718
  1 S  2.10600000E+01  0.274740
  1 S  7.49500000E+00  0.448564
  1 S  2.79700000E+00  0.285074
  1 S  5.21500000E-01  0.015204

  2 S  6.66500000E+03 -0.000146
  2 S  1.00000000E+03 -0.001154
  2 S  2.28000000E+02 -0.005725
  2 S  6.47100000E+01 -0.023312
  2 S  2.10600000E+01 -0.063955
  2 S  7.49500000E+00 -0.149981
  2 S  2.79700000E+00 -0.127262
  2 S  5.21500000E-01  0.544529

  3 S  1.59600000E-01  1.000000

  4 S  4.69000000E-02  1.000000

  5 P  9.43900000E+00  0.038109
  5 P  2.00200000E+00  0.209480
  5 P  5.45600000E-01  0.508557

  6 P  1.51700000E-01  1.000000

  7 P  4.04100000E-02  1.000000

  8 D  5.50000000E-01  1.000000

  9 D  1.51000000E-01  1.000000

  O (Oxygen)
  ----------
            Exponent  Coefficients 
       -------------- ---------------------------------------------------------
  1 S  1.17200000E+04  0.000710
  1 S  1.75900000E+03  0.005470
  1 S  4.00800000E+02  0.027837
  1 S  1.13700000E+02  0.104800
  1 S  3.70300000E+01  0.283062
  1 S  1.32700000E+01  0.448719
  1 S  5.02500000E+00  0.270952
  1 S  1.01300000E+00  0.015458

  2 S  1.17200000E+04 -0.000160
  2 S  1.75900000E+03 -0.001263
  2 S  4.00800000E+02 -0.006267
  2 S  1.13700000E+02 -0.025716
  2 S  3.70300000E+01 -0.070924
  2 S  1.32700000E+01 -0.165411
  2 S  5.02500000E+00 -0.116955
  2 S  1.01300000E+00  0.557368

  3 S  3.02300000E-01  1.000000

  4 S  7.89600000E-02  1.000000

  5 P  1.77000000E+01  0.043018
  5 P  3.85400000E+00  0.228913
  5 P  1.04600000E+00  0.508728

  6 P  2.75300000E-01  1.000000

  7 P  6.85600000E-02  1.000000

  8 D  1.18500000E+00  1.000000

  9 D  3.32000000E-01  1.000000

  N (Nitrogen)
  ------------
            Exponent  Coefficients 
       -------------- ---------------------------------------------------------
  1 S  9.04600000E+03  0.000700
  1 S  1.35700000E+03  0.005389
  1 S  3.09300000E+02  0.027406
  1 S  8.77300000E+01  0.103207
  1 S  2.85600000E+01  0.278723
  1 S  1.02100000E+01  0.448540
  1 S  3.83800000E+00  0.278238
  1 S  7.46600000E-01  0.015440

  2 S  9.04600000E+03 -0.000153
  2 S  1.35700000E+03 -0.001208
  2 S  3.09300000E+02 -0.005992
  2 S  8.77300000E+01 -0.024544
  2 S  2.85600000E+01 -0.067459
  2 S  1.02100000E+01 -0.158078
  2 S  3.83800000E+00 -0.121831
  2 S  7.46600000E-01  0.549003

  3 S  2.24800000E-01  1.000000

  4 S  6.12400000E-02  1.000000

  5 P  1.35500000E+01  0.039919
  5 P  2.91700000E+00  0.217169
  5 P  7.97300000E-01  0.510319

  6 P  2.18500000E-01  1.000000

  7 P  5.61100000E-02  1.000000

  8 D  8.17000000E-01  1.000000

  9 D  2.30000000E-01  1.000000



 Summary of "ao basis" -> "ao basis" (cartesian)
 ------------------------------------------------------------------------------
       Tag                 Description            Shells   Functions and Types
 ---------------- ------------------------------  ------  ---------------------
 H                        aug-cc-pvdz                5        9   3s2p
 C                        aug-cc-pvdz                9       25   4s3p2d
 O                        aug-cc-pvdz                9       25   4s3p2d
 N                        aug-cc-pvdz                9       25   4s3p2d


 ------------------------------------------------------------------------
 scf: no. of closed-shell electrons is not even!                   0
 ------------------------------------------------------------------------
 ------------------------------------------------------------------------
  current input line : 
     0: 
 scf: no. of closed-shell electrons is not even!                   0
 ------------------------------------------------------------------------
 ------------------------------------------------------------------------
  current input line : 
     0: 
 ------------------------------------------------------------------------
 ------------------------------------------------------------------------
 scf: no. of closed-shell electrons is not even!                   0
 ------------------------------------------------------------------------
 ------------------------------------------------------------------------
  current input line : 
     0: 
 ------------------------------------------------------------------------
 ------------------------------------------------------------------------
 There is an error in the input file
 ------------------------------------------------------------------------
 For more information see the NWChem manual at https://nwchemgit.github.io
 scf: no. of closed-shell electrons is not even!                   0
 ------------------------------------------------------------------------
 ------------------------------------------------------------------------
  current input line : 
     0: 
 ------------------------------------------------------------------------
 ------------------------------------------------------------------------
 There is an error in the input file
 ------------------------------------------------------------------------
 For more information see the NWChem manual at https://nwchemgit.github.io


 For further details see manual section:                                                                                                                                                                                                                                                                
 scf: no. of closed-shell electrons is not even!                   0
 ------------------------------------------------------------------------
 ------------------------------------------------------------------------
  current input line : 
     0: 
 ------------------------------------------------------------------------
 ------------------------------------------------------------------------
 There is an error in the input file
 ------------------------------------------------------------------------
 For more information see the NWChem manual at https://nwchemgit.github.io


 For further details see manual section:                                                                                                                                                                                                                                                                
 scf: no. of closed-shell electrons is not even!                   0
 ------------------------------------------------------------------------
 ------------------------------------------------------------------------
  current input line : 
     0: 
 ------------------------------------------------------------------------
 ------------------------------------------------------------------------
 There is an error in the input file
 ------------------------------------------------------------------------
 For more information see the NWChem manual at https://nwchemgit.github.io


 For further details see manual section:                                                                                                                                                                                                                                                                
 scf: no. of closed-shell electrons is not even!                   0
 ------------------------------------------------------------------------
 ------------------------------------------------------------------------
  current input line : 
     0: 
 ------------------------------------------------------------------------
 ------------------------------------------------------------------------
 There is an error in the input file
 ------------------------------------------------------------------------
 For more information see the NWChem manual at https://nwchemgit.github.io


 For further details see manual section:                                                                                                                                                                                                                                                                
 ------------------------------------------------------------------------
 ------------------------------------------------------------------------
 There is an error in the input file
 ------------------------------------------------------------------------
 For more information see the NWChem manual at https://nwchemgit.github.io


 For further details see manual section:                                                                                                                                                                                                                                                                
1:scf: no. of closed-shell electrons is not even!:Received an Error in Communication
 There is an error in the input file
 ------------------------------------------------------------------------
 For more information see the NWChem manual at https://nwchemgit.github.io


 For further details see manual section:                                                                                                                                                                                                                                                                
2:scf: no. of closed-shell electrons is not even!:Received an Error in Communication


 For further details see manual section:                                                                                                                                                                                                                                                                
3:scf: no. of closed-shell electrons is not even!:Received an Error in Communication
4:scf: no. of closed-shell electrons is not even!:Received an Error in Communication
5:scf: no. of closed-shell electrons is not even!:Received an Error in Communication
6:scf: no. of closed-shell electrons is not even!:Received an Error in Communication
7:scf: no. of closed-shell electrons is not even!:Received an Error in Communication
 scf: no. of closed-shell electrons is not even!                   0
 ------------------------------------------------------------------------
 ------------------------------------------------------------------------
  current input line : 
    53: task scf energy
 ------------------------------------------------------------------------
 ------------------------------------------------------------------------
 There is an error in the input file
 ------------------------------------------------------------------------
 For more information see the NWChem manual at https://nwchemgit.github.io


 For further details see manual section:                                                                                                                                                                                                                                                                
0:scf: no. of closed-shell electrons is not even!:Received an Error in Communication
--------------------------------------------------------------------------
MPI_ABORT was invoked on rank 7 in communicator MPI COMMUNICATOR 3 DUP FROM 0
with errorcode -1.

NOTE: invoking MPI_ABORT causes Open MPI to kill all MPI processes.
You may or may not see output from other processes, depending on
exactly when Open MPI kills them.
--------------------------------------------------------------------------
--------------------------------------------------------------------------
MPI_ABORT was invoked on rank 0 in communicator MPI COMMUNICATOR 3 DUP FROM 0
with errorcode -1.

NOTE: invoking MPI_ABORT causes Open MPI to kill all MPI processes.
You may or may not see output from other processes, depending on
exactly when Open MPI kills them.
--------------------------------------------------------------------------
--------------------------------------------------------------------------
MPI_ABORT was invoked on rank 1 in communicator MPI COMMUNICATOR 3 DUP FROM 0
with errorcode -1.

NOTE: invoking MPI_ABORT causes Open MPI to kill all MPI processes.
You may or may not see output from other processes, depending on
exactly when Open MPI kills them.
--------------------------------------------------------------------------
--------------------------------------------------------------------------
MPI_ABORT was invoked on rank 2 in communicator MPI COMMUNICATOR 3 DUP FROM 0
with errorcode -1.

NOTE: invoking MPI_ABORT causes Open MPI to kill all MPI processes.
You may or may not see output from other processes, depending on
exactly when Open MPI kills them.
--------------------------------------------------------------------------
--------------------------------------------------------------------------
MPI_ABORT was invoked on rank 4 in communicator MPI COMMUNICATOR 3 DUP FROM 0
with errorcode -1.

NOTE: invoking MPI_ABORT causes Open MPI to kill all MPI processes.
You may or may not see output from other processes, depending on
exactly when Open MPI kills them.
--------------------------------------------------------------------------
--------------------------------------------------------------------------
MPI_ABORT was invoked on rank 5 in communicator MPI COMMUNICATOR 3 DUP FROM 0
with errorcode -1.

NOTE: invoking MPI_ABORT causes Open MPI to kill all MPI processes.
You may or may not see output from other processes, depending on
exactly when Open MPI kills them.
--------------------------------------------------------------------------
--------------------------------------------------------------------------
MPI_ABORT was invoked on rank 6 in communicator MPI COMMUNICATOR 3 DUP FROM 0
with errorcode -1.

NOTE: invoking MPI_ABORT causes Open MPI to kill all MPI processes.
You may or may not see output from other processes, depending on
exactly when Open MPI kills them.
--------------------------------------------------------------------------
--------------------------------------------------------------------------
MPI_ABORT was invoked on rank 3 in communicator MPI COMMUNICATOR 3 DUP FROM 0
with errorcode -1.

NOTE: invoking MPI_ABORT causes Open MPI to kill all MPI processes.
You may or may not see output from other processes, depending on
exactly when Open MPI kills them.
--------------------------------------------------------------------------
slurmstepd: error: *** STEP 6619389.107 ON nova21-swift-4 CANCELLED AT 2025-07-11T03:00:05 ***
srun: Job step aborted: Waiting up to 32 seconds for job step to finish.
slurmstepd: error: --task-epilog failed status=9
srun: error: nova21-swift-4: tasks 0-7: Killed
