export TMOUT=5400
export TMPDIR=/tmp
export PTMPDIR=/tmp/ptmp
 argument  1 = inputs/ASP_ASP_5.nw



============================== echo of input deck ==============================
start ASP_ASP_5
geometry
H         12.84200        2.79900      -10.35400
C         12.94700        3.85300      -10.10700
H         13.99500        4.14100      -10.09900
H         12.49900        4.05000       -9.13400
C         12.21600        4.67800      -11.13900
O         12.80800        5.55900      -11.75200
N         10.94000        4.36700      -11.32600
H         10.53400        3.60000      -10.79400
C          9.96000        5.15000      -12.08900
H         10.47900        5.64700      -12.90900
C          8.89600        4.21700      -12.71900
H          8.03900        4.81800      -13.02700
H          9.33600        3.81000      -13.63100
C          8.39100        3.01500      -11.89200
O          8.81700        2.82900      -10.72600
O          7.60000        2.23900      -12.47400
C          9.31400        6.28300      -11.26000
O          8.85500        7.27100      -11.83300
N          9.36000        6.18800       -9.92700
H          9.73000        5.33100       -9.54300
C          9.07800        7.26600       -8.96700
H          9.22200        8.22300       -9.47000
C          7.60600        7.20000       -8.50100
H          6.96600        7.11800       -9.38100
H          7.46800        6.29900       -7.90200
C          7.13400        8.42400       -7.69200
O          7.80800        9.48100       -7.73800
O          6.09800        8.29500       -7.00100
C         10.07500        7.20700       -7.78500
O         10.78000        6.22100       -7.56800
N         10.17800        8.26500       -6.99500
H          9.52800        9.03300       -7.14000
H         10.80400        8.23100       -6.21200
end

basis
 * library aug-cc-pvdz
end

echo

scf
 direct
end

task scf energy
================================================================================


                                         
                                         


             Northwest Computational Chemistry Package (NWChem) 7.2.0
             --------------------------------------------------------


                    Environmental Molecular Sciences Laboratory
                       Pacific Northwest National Laboratory
                                Richland, WA 99352

                              Copyright (c) 1994-2022
                       Pacific Northwest National Laboratory
                            Battelle Memorial Institute

             NWChem is an open-source computational chemistry package
                        distributed under the terms of the
                      Educational Community License (ECL) 2.0
             A copy of the license is included with this distribution
                              in the LICENSE.TXT file

                                  ACKNOWLEDGMENT
                                  --------------

            This software and its documentation were developed at the
            EMSL at Pacific Northwest National Laboratory, a multiprogram
            national laboratory, operated for the U.S. Department of Energy
            by Battelle under Contract Number DE-AC05-76RL01830. Support
            for this work was provided by the Department of Energy Office
            of Biological and Environmental Research, Office of Basic
            Energy Sciences, and the Office of Advanced Scientific Computing.


           Job information
           ---------------

    hostname        = nova21-speedy-12
    program         = /opt/rit/el9/20230413/app/linux-rhel9-x86_64_v3/gcc-11.2.1/nwchem-7.2.0-oxtctbuhfuzyfaoziquq6bki22grib3g/bin/nwchem
    date            = Thu Jul 10 22:20:18 2025

    compiled        = Wed_May_17_23:46:39_2023
    source          = /tmp/root/spack-stage/spack-stage-nwchem-7.2.0-oxtctbuhfuzyfaoziquq6bki22grib3g/spack-src
    nwchem branch   = 7.2.0
    nwchem revision = d0d141fd
    ga revision     = 5.8.0
    use scalapack   = T
    input           = inputs/ASP_ASP_5.nw
    prefix          = ASP_ASP_5.
    data base       = ./ASP_ASP_5.db
    status          = startup
    nproc           =        8
    time left       =     -1s



           Memory information
           ------------------

    heap     =   26214396 doubles =    200.0 Mbytes
    stack    =   26214401 doubles =    200.0 Mbytes
    global   =   52428800 doubles =    400.0 Mbytes (distinct from heap & stack)
    total    =  104857597 doubles =    800.0 Mbytes
    verify   = yes
    hardfail = no 


           Directory information
           ---------------------

  0 permanent = .
  0 scratch   = .




                                NWChem Input Module
                                -------------------



 Scaling coordinates for geometry "geometry" by  1.889725989
 (inverse scale =  0.529177249)

 C1  symmetry detected

          ------
          auto-z
          ------
  no constraints, skipping    0.0000000000000000     
  no constraints, skipping    0.0000000000000000     


                             Geometry "geometry" -> ""
                             -------------------------

 Output coordinates in angstroms (scale by  1.889725989 to convert to a.u.)

  No.       Tag          Charge          X              Y              Z
 ---- ---------------- ---------- -------------- -------------- --------------
    1 H                    1.0000     2.49351715     3.47871676    -1.66480359
    2 C                    6.0000     2.85798807     2.62489916    -1.09814103
    3 H                    1.0000     3.90472467     2.75799481    -0.83748791
    4 H                    1.0000     2.73229642     1.71413840    -1.68205751
    5 C                    6.0000     2.04707046     2.48931406     0.16836571
    6 O                    8.0000     2.60885364     2.46898853     1.25757668
    7 N                    7.0000     0.73267010     2.41479136     0.00507438
    8 H                    1.0000     0.34649145     2.46875941    -0.93519287
    9 C                    6.0000    -0.24946386     2.05374408     1.03498492
   10 H                    1.0000     0.11539367     2.40915892     1.99900218
   11 C                    6.0000    -1.59964013     2.76387065     0.76622983
   12 H                    1.0000    -2.37820072     2.27306897     1.35229392
   13 H                    1.0000    -1.50486718     3.77746223     1.15947683
   14 C                    6.0000    -2.08261835     2.89501957    -0.69434882
   15 O                    8.0000    -1.40326529     2.40460558    -1.62901536
   16 O                    8.0000    -3.13234627     3.55347267    -0.87067747
   17 C                    6.0000    -0.42389030     0.52660597     1.19520544
   18 O                    8.0000    -0.82419228     0.06847299     2.26526455
   19 N                    7.0000    -0.04168665    -0.25708423     0.18141057
   20 H                    1.0000     0.24870679     0.20451705    -0.66794267
   21 C                    6.0000     0.15246292    -1.71410425     0.23246526
   22 H                    1.0000     0.33476182    -2.00227568     1.26847604
   23 C                    6.0000    -1.12609141    -2.44404354    -0.23741074
   24 H                    1.0000    -1.98174948    -2.02286677     0.29285655
   25 H                    1.0000    -1.26645089    -2.25482167    -1.30237097
   26 C                    6.0000    -1.12427460    -3.96506417     0.01145455
   27 O                    8.0000    -0.30003603    -4.44802482     0.82448639
   28 O                    8.0000    -1.94258427    -4.65713787    -0.63570948
   29 C                    6.0000     1.39958954    -2.11889895    -0.58938050
   30 O                    8.0000     1.93743468    -1.35226655    -1.38894749
   31 N                    7.0000     1.90822649    -3.32809499    -0.40715431
   32 H                    1.0000     1.40041817    -3.97324280     0.19223205
   33 H                    1.0000     2.70278100    -3.61083435    -0.95016682

      Atomic Mass 
      ----------- 

      H                  1.007825
      C                 12.000000
      O                 15.994910
      N                 14.003070


 Effective nuclear repulsion energy (a.u.)    1615.7953346800

            Nuclear Dipole moment (a.u.) 
            ----------------------------
        X                 Y               Z
 ---------------- ---------------- ----------------
    -0.0000000000     0.0000000000     0.0000000000



                                Z-matrix (autoz)
                                -------- 

 Units are Angstrom for bonds and degrees for angles

      Type          Name      I     J     K     L     M      Value
      ----------- --------  ----- ----- ----- ----- ----- ----------
    1 Stretch                  1     2                       1.08764
    2 Stretch                  2     3                       1.08688
    3 Stretch                  2     4                       1.08915
    4 Stretch                  2     5                       1.50997
    5 Stretch                  5     6                       1.22572
    6 Stretch                  5     7                       1.32660
    7 Stretch                  7     8                       1.01791
    8 Stretch                  7     9                       1.46822
    9 Stretch                  9    10                       1.09031
   10 Stretch                  9    11                       1.54903
   11 Stretch                  9    17                       1.54540
   12 Stretch                 11    12                       1.09111
   13 Stretch                 11    13                       1.09133
   14 Stretch                 11    14                       1.54394
   15 Stretch                 14    15                       1.25524
   16 Stretch                 14    16                       1.25163
   17 Stretch                 17    18                       1.23092
   18 Stretch                 17    19                       1.33717
   19 Stretch                 19    20                       1.00936
   20 Stretch                 19    21                       1.47078
   21 Stretch                 21    22                       1.09069
   22 Stretch                 21    23                       1.54541
   23 Stretch                 21    29                       1.54745
   24 Stretch                 23    24                       1.09120
   25 Stretch                 23    25                       1.09071
   26 Stretch                 23    26                       1.54125
   27 Stretch                 26    27                       1.25445
   28 Stretch                 26    28                       1.25197
   29 Stretch                 29    30                       1.23139
   30 Stretch                 29    31                       1.32441
   31 Stretch                 31    32                       1.01654
   32 Stretch                 31    33                       1.00306
   33 Bend                     1     2     3               110.58163
   34 Bend                     1     2     4               109.78262
   35 Bend                     1     2     5               109.11854
   36 Bend                     2     5     6               120.04603
   37 Bend                     2     5     7               115.71560
   38 Bend                     3     2     4               110.00563
   39 Bend                     3     2     5               109.08993
   40 Bend                     4     2     5               108.21699
   41 Bend                     5     7     8               119.11841
   42 Bend                     5     7     9               126.17467
   43 Bend                     6     5     7               124.23328
   44 Bend                     7     9    10               108.43387
   45 Bend                     7     9    11               110.40299
   46 Bend                     7     9    17               113.03109
   47 Bend                     8     7     9               114.03030
   48 Bend                     9    11    12               108.81706
   49 Bend                     9    11    13               106.71238
   50 Bend                     9    11    14               118.40733
   51 Bend                     9    17    18               119.64502
   52 Bend                     9    17    19               117.92347
   53 Bend                    10     9    11               107.19613
   54 Bend                    10     9    17               105.55888
   55 Bend                    11     9    17               111.87768
   56 Bend                    11    14    15               120.12689
   57 Bend                    11    14    16               116.12424
   58 Bend                    12    11    13               106.63046
   59 Bend                    12    11    14               108.85183
   60 Bend                    13    11    14               106.80737
   61 Bend                    15    14    16               123.67927
   62 Bend                    17    19    20               116.88391
   63 Bend                    17    19    21               126.29964
   64 Bend                    18    17    19               122.26984
   65 Bend                    19    21    22               108.46797
   66 Bend                    19    21    23               110.37373
   67 Bend                    19    21    29               110.30935
   68 Bend                    20    19    21               116.37687
   69 Bend                    21    23    24               108.58325
   70 Bend                    21    23    25               108.74711
   71 Bend                    21    23    26               114.58602
   72 Bend                    21    29    30               122.27645
   73 Bend                    21    29    31               118.37685
   74 Bend                    22    21    23               107.59523
   75 Bend                    22    21    29               107.49695
   76 Bend                    23    21    29               112.44059
   77 Bend                    23    26    27               119.03687
   78 Bend                    23    26    28               117.47090
   79 Bend                    24    23    25               107.85482
   80 Bend                    24    23    26               107.66000
   81 Bend                    25    23    26               109.20921
   82 Bend                    27    26    28               123.48125
   83 Bend                    29    31    32               117.95116
   84 Bend                    29    31    33               119.14928
   85 Bend                    30    29    31               119.34137
   86 Bend                    32    31    33               122.41294
   87 Torsion                  1     2     5     6        -124.69945
   88 Torsion                  1     2     5     7          54.51357
   89 Torsion                  2     5     7     8          -1.11535
   90 Torsion                  2     5     7     9         168.86433
   91 Torsion                  3     2     5     6          -3.78998
   92 Torsion                  3     2     5     7         175.42304
   93 Torsion                  4     2     5     6         115.88135
   94 Torsion                  4     2     5     7         -64.90564
   95 Torsion                  5     7     9    10          32.57285
   96 Torsion                  5     7     9    11         149.73245
   97 Torsion                  5     7     9    17         -84.10157
   98 Torsion                  6     5     7     8         178.06066
   99 Torsion                  6     5     7     9         -11.95966
  100 Torsion                  7     9    11    12         163.87416
  101 Torsion                  7     9    11    13         -81.41710
  102 Torsion                  7     9    11    14          38.95618
  103 Torsion                  7     9    17    18         155.07816
  104 Torsion                  7     9    17    19         -20.40615
  105 Torsion                  8     7     9    10        -157.00756
  106 Torsion                  8     7     9    11         -39.84795
  107 Torsion                  8     7     9    17          86.31802
  108 Torsion                  9    11    14    15           1.69912
  109 Torsion                  9    11    14    16        -175.37772
  110 Torsion                  9    17    19    20          -6.25725
  111 Torsion                  9    17    19    21         165.82058
  112 Torsion                 10     9    11    12         -78.20347
  113 Torsion                 10     9    11    13          36.50527
  114 Torsion                 10     9    11    14         156.87855
  115 Torsion                 10     9    17    18          36.71668
  116 Torsion                 10     9    17    19        -138.76762
  117 Torsion                 11     9    17    18         -79.54741
  118 Torsion                 11     9    17    19         104.96829
  119 Torsion                 12    11     9    17          37.06369
  120 Torsion                 12    11    14    15        -123.20187
  121 Torsion                 12    11    14    16          59.72129
  122 Torsion                 13    11     9    17         151.77244
  123 Torsion                 13    11    14    15         122.02354
  124 Torsion                 13    11    14    16         -55.05330
  125 Torsion                 14    11     9    17         -87.85429
  126 Torsion                 17    19    21    22         -22.72827
  127 Torsion                 17    19    21    23          94.91732
  128 Torsion                 17    19    21    29        -140.21828
  129 Torsion                 18    17    19    20         178.38456
  130 Torsion                 18    17    19    21          -9.53761
  131 Torsion                 19    21    23    24         -49.25586
  132 Torsion                 19    21    23    25          67.85437
  133 Torsion                 19    21    23    26        -169.64003
  134 Torsion                 19    21    29    30         -14.69579
  135 Torsion                 19    21    29    31         164.45804
  136 Torsion                 20    19    21    22         149.38486
  137 Torsion                 20    19    21    23         -92.96955
  138 Torsion                 20    19    21    29          31.89485
  139 Torsion                 21    23    26    27          16.88878
  140 Torsion                 21    23    26    28        -161.94821
  141 Torsion                 21    29    31    32           6.30876
  142 Torsion                 21    29    31    33         178.50179
  143 Torsion                 22    21    23    24          68.92600
  144 Torsion                 22    21    23    25        -173.96377
  145 Torsion                 22    21    23    26         -51.45817
  146 Torsion                 22    21    29    30        -132.78387
  147 Torsion                 22    21    29    31          46.36996
  148 Torsion                 23    21    29    30         108.97933
  149 Torsion                 23    21    29    31         -71.86684
  150 Torsion                 24    23    21    29        -172.89514
  151 Torsion                 24    23    26    27        -104.00551
  152 Torsion                 24    23    26    28          77.15750
  153 Torsion                 25    23    21    29         -55.78491
  154 Torsion                 25    23    26    27         139.14377
  155 Torsion                 25    23    26    28         -39.69322
  156 Torsion                 26    23    21    29          66.72069
  157 Torsion                 30    29    31    32        -174.51194
  158 Torsion                 30    29    31    33          -2.31892


            XYZ format geometry
            -------------------
    33
 geometry
 H                     2.49351715     3.47871676    -1.66480359
 C                     2.85798807     2.62489916    -1.09814103
 H                     3.90472467     2.75799481    -0.83748791
 H                     2.73229642     1.71413840    -1.68205751
 C                     2.04707046     2.48931406     0.16836571
 O                     2.60885364     2.46898853     1.25757668
 N                     0.73267010     2.41479136     0.00507438
 H                     0.34649145     2.46875941    -0.93519287
 C                    -0.24946386     2.05374408     1.03498492
 H                     0.11539367     2.40915892     1.99900218
 C                    -1.59964013     2.76387065     0.76622983
 H                    -2.37820072     2.27306897     1.35229392
 H                    -1.50486718     3.77746223     1.15947683
 C                    -2.08261835     2.89501957    -0.69434882
 O                    -1.40326529     2.40460558    -1.62901536
 O                    -3.13234627     3.55347267    -0.87067747
 C                    -0.42389030     0.52660597     1.19520544
 O                    -0.82419228     0.06847299     2.26526455
 N                    -0.04168665    -0.25708423     0.18141057
 H                     0.24870679     0.20451705    -0.66794267
 C                     0.15246292    -1.71410425     0.23246526
 H                     0.33476182    -2.00227568     1.26847604
 C                    -1.12609141    -2.44404354    -0.23741074
 H                    -1.98174948    -2.02286677     0.29285655
 H                    -1.26645089    -2.25482167    -1.30237097
 C                    -1.12427460    -3.96506417     0.01145455
 O                    -0.30003603    -4.44802482     0.82448639
 O                    -1.94258427    -4.65713787    -0.63570948
 C                     1.39958954    -2.11889895    -0.58938050
 O                     1.93743468    -1.35226655    -1.38894749
 N                     1.90822649    -3.32809499    -0.40715431
 H                     1.40041817    -3.97324280     0.19223205
 H                     2.70278100    -3.61083435    -0.95016682

 ==============================================================================
                                internuclear distances
 ------------------------------------------------------------------------------
       center one      |      center two      | atomic units |  angstroms
 ------------------------------------------------------------------------------
    2 C                |   1 H                |     2.05533  |     1.08764
    3 H                |   2 C                |     2.05391  |     1.08688
    4 H                |   2 C                |     2.05819  |     1.08915
    5 C                |   2 C                |     2.85343  |     1.50997
    6 O                |   5 C                |     2.31628  |     1.22572
    7 N                |   5 C                |     2.50691  |     1.32660
    8 H                |   7 N                |     1.92358  |     1.01791
    9 C                |   7 N                |     2.77453  |     1.46822
   10 H                |   9 C                |     2.06038  |     1.09031
   11 C                |   9 C                |     2.92724  |     1.54903
   12 H                |  11 C                |     2.06189  |     1.09111
   13 H                |  11 C                |     2.06231  |     1.09133
   14 C                |  11 C                |     2.91763  |     1.54394
   15 O                |  14 C                |     2.37206  |     1.25524
   16 O                |  14 C                |     2.36524  |     1.25163
   17 C                |   9 C                |     2.92037  |     1.54540
   18 O                |  17 C                |     2.32609  |     1.23092
   19 N                |  17 C                |     2.52689  |     1.33717
   20 H                |  19 N                |     1.90741  |     1.00936
   21 C                |  19 N                |     2.77938  |     1.47078
   22 H                |  21 C                |     2.06110  |     1.09069
   23 C                |  21 C                |     2.92040  |     1.54541
   24 H                |  23 C                |     2.06207  |     1.09120
   25 H                |  23 C                |     2.06114  |     1.09071
   26 C                |  23 C                |     2.91253  |     1.54125
   27 O                |  26 C                |     2.37056  |     1.25445
   28 O                |  26 C                |     2.36587  |     1.25197
   29 C                |  21 C                |     2.92426  |     1.54745
   30 O                |  29 C                |     2.32698  |     1.23139
   31 N                |  29 C                |     2.50278  |     1.32441
   32 H                |  31 N                |     1.92098  |     1.01654
   33 H                |  31 N                |     1.89550  |     1.00306
 ------------------------------------------------------------------------------
                         number of included internuclear distances:         32
 ==============================================================================



 ==============================================================================
                                 internuclear angles
 ------------------------------------------------------------------------------
        center 1       |       center 2       |       center 3       |  degrees
 ------------------------------------------------------------------------------
    1 H                |   2 C                |   3 H                |   110.58
    1 H                |   2 C                |   4 H                |   109.78
    1 H                |   2 C                |   5 C                |   109.12
    3 H                |   2 C                |   4 H                |   110.01
    3 H                |   2 C                |   5 C                |   109.09
    4 H                |   2 C                |   5 C                |   108.22
    2 C                |   5 C                |   6 O                |   120.05
    2 C                |   5 C                |   7 N                |   115.72
    6 O                |   5 C                |   7 N                |   124.23
    5 C                |   7 N                |   8 H                |   119.12
    5 C                |   7 N                |   9 C                |   126.17
    8 H                |   7 N                |   9 C                |   114.03
    7 N                |   9 C                |  10 H                |   108.43
    7 N                |   9 C                |  11 C                |   110.40
    7 N                |   9 C                |  17 C                |   113.03
   10 H                |   9 C                |  11 C                |   107.20
   10 H                |   9 C                |  17 C                |   105.56
   11 C                |   9 C                |  17 C                |   111.88
    9 C                |  11 C                |  12 H                |   108.82
    9 C                |  11 C                |  13 H                |   106.71
    9 C                |  11 C                |  14 C                |   118.41
   12 H                |  11 C                |  13 H                |   106.63
   12 H                |  11 C                |  14 C                |   108.85
   13 H                |  11 C                |  14 C                |   106.81
   11 C                |  14 C                |  15 O                |   120.13
   11 C                |  14 C                |  16 O                |   116.12
   15 O                |  14 C                |  16 O                |   123.68
    9 C                |  17 C                |  18 O                |   119.65
    9 C                |  17 C                |  19 N                |   117.92
   18 O                |  17 C                |  19 N                |   122.27
   17 C                |  19 N                |  20 H                |   116.88
   17 C                |  19 N                |  21 C                |   126.30
   20 H                |  19 N                |  21 C                |   116.38
   19 N                |  21 C                |  22 H                |   108.47
   19 N                |  21 C                |  23 C                |   110.37
   19 N                |  21 C                |  29 C                |   110.31
   22 H                |  21 C                |  23 C                |   107.60
   22 H                |  21 C                |  29 C                |   107.50
   23 C                |  21 C                |  29 C                |   112.44
   21 C                |  23 C                |  24 H                |   108.58
   21 C                |  23 C                |  25 H                |   108.75
   21 C                |  23 C                |  26 C                |   114.59
   24 H                |  23 C                |  25 H                |   107.85
   24 H                |  23 C                |  26 C                |   107.66
   25 H                |  23 C                |  26 C                |   109.21
   23 C                |  26 C                |  27 O                |   119.04
   23 C                |  26 C                |  28 O                |   117.47
   27 O                |  26 C                |  28 O                |   123.48
   21 C                |  29 C                |  30 O                |   122.28
   21 C                |  29 C                |  31 N                |   118.38
   30 O                |  29 C                |  31 N                |   119.34
   29 C                |  31 N                |  32 H                |   117.95
   29 C                |  31 N                |  33 H                |   119.15
   32 H                |  31 N                |  33 H                |   122.41
 ------------------------------------------------------------------------------
                            number of included internuclear angles:         54
 ==============================================================================



  library name resolved from: environment
  library file name is: </opt/rit/el9/20230413/app/linux-rhel9-x86_64_v3/gcc-11.2.1/nwchem-7.2.0-oxtctbuhfuzyfaoziquq6bki22grib3g/share/nwchem/libraries/>
  


 Summary of "ao basis" -> "" (cartesian)
 ------------------------------------------------------------------------------
       Tag                 Description            Shells   Functions and Types
 ---------------- ------------------------------  ------  ---------------------
 *                        aug-cc-pvdz                 on all atoms 


                      Basis "ao basis" -> "ao basis" (cartesian)
                      -----
  H (Hydrogen)
  ------------
            Exponent  Coefficients 
       -------------- ---------------------------------------------------------
  1 S  1.30100000E+01  0.019685
  1 S  1.96200000E+00  0.137977
  1 S  4.44600000E-01  0.478148

  2 S  1.22000000E-01  1.000000

  3 S  2.97400000E-02  1.000000

  4 P  7.27000000E-01  1.000000

  5 P  1.41000000E-01  1.000000

  C (Carbon)
  ----------
            Exponent  Coefficients 
       -------------- ---------------------------------------------------------
  1 S  6.66500000E+03  0.000692
  1 S  1.00000000E+03  0.005329
  1 S  2.28000000E+02  0.027077
  1 S  6.47100000E+01  0.101718
  1 S  2.10600000E+01  0.274740
  1 S  7.49500000E+00  0.448564
  1 S  2.79700000E+00  0.285074
  1 S  5.21500000E-01  0.015204

  2 S  6.66500000E+03 -0.000146
  2 S  1.00000000E+03 -0.001154
  2 S  2.28000000E+02 -0.005725
  2 S  6.47100000E+01 -0.023312
  2 S  2.10600000E+01 -0.063955
  2 S  7.49500000E+00 -0.149981
  2 S  2.79700000E+00 -0.127262
  2 S  5.21500000E-01  0.544529

  3 S  1.59600000E-01  1.000000

  4 S  4.69000000E-02  1.000000

  5 P  9.43900000E+00  0.038109
  5 P  2.00200000E+00  0.209480
  5 P  5.45600000E-01  0.508557

  6 P  1.51700000E-01  1.000000

  7 P  4.04100000E-02  1.000000

  8 D  5.50000000E-01  1.000000

  9 D  1.51000000E-01  1.000000

  O (Oxygen)
  ----------
            Exponent  Coefficients 
       -------------- ---------------------------------------------------------
  1 S  1.17200000E+04  0.000710
  1 S  1.75900000E+03  0.005470
  1 S  4.00800000E+02  0.027837
  1 S  1.13700000E+02  0.104800
  1 S  3.70300000E+01  0.283062
  1 S  1.32700000E+01  0.448719
  1 S  5.02500000E+00  0.270952
  1 S  1.01300000E+00  0.015458

  2 S  1.17200000E+04 -0.000160
  2 S  1.75900000E+03 -0.001263
  2 S  4.00800000E+02 -0.006267
  2 S  1.13700000E+02 -0.025716
  2 S  3.70300000E+01 -0.070924
  2 S  1.32700000E+01 -0.165411
  2 S  5.02500000E+00 -0.116955
  2 S  1.01300000E+00  0.557368

  3 S  3.02300000E-01  1.000000

  4 S  7.89600000E-02  1.000000

  5 P  1.77000000E+01  0.043018
  5 P  3.85400000E+00  0.228913
  5 P  1.04600000E+00  0.508728

  6 P  2.75300000E-01  1.000000

  7 P  6.85600000E-02  1.000000

  8 D  1.18500000E+00  1.000000

  9 D  3.32000000E-01  1.000000

  N (Nitrogen)
  ------------
            Exponent  Coefficients 
       -------------- ---------------------------------------------------------
  1 S  9.04600000E+03  0.000700
  1 S  1.35700000E+03  0.005389
  1 S  3.09300000E+02  0.027406
  1 S  8.77300000E+01  0.103207
  1 S  2.85600000E+01  0.278723
  1 S  1.02100000E+01  0.448540
  1 S  3.83800000E+00  0.278238
  1 S  7.46600000E-01  0.015440

  2 S  9.04600000E+03 -0.000153
  2 S  1.35700000E+03 -0.001208
  2 S  3.09300000E+02 -0.005992
  2 S  8.77300000E+01 -0.024544
  2 S  2.85600000E+01 -0.067459
  2 S  1.02100000E+01 -0.158078
  2 S  3.83800000E+00 -0.121831
  2 S  7.46600000E-01  0.549003

  3 S  2.24800000E-01  1.000000

  4 S  6.12400000E-02  1.000000

  5 P  1.35500000E+01  0.039919
  5 P  2.91700000E+00  0.217169
  5 P  7.97300000E-01  0.510319

  6 P  2.18500000E-01  1.000000

  7 P  5.61100000E-02  1.000000

  8 D  8.17000000E-01  1.000000

  9 D  2.30000000E-01  1.000000



 Summary of "ao basis" -> "ao basis" (cartesian)
 ------------------------------------------------------------------------------
       Tag                 Description            Shells   Functions and Types
 ---------------- ------------------------------  ------  ---------------------
 H                        aug-cc-pvdz                5        9   3s2p
 C                        aug-cc-pvdz                9       25   4s3p2d
 O                        aug-cc-pvdz                9       25   4s3p2d
 N                        aug-cc-pvdz                9       25   4s3p2d


                                 NWChem SCF Module
                                 -----------------



  ao basis        = "ao basis"
  functions       =   617
  atoms           =    33
  closed shells   =    75
  open shells     =     0
  charge          =   0.00
  wavefunction    = RHF 
  input vectors   = atomic
  output vectors  = ./ASP_ASP_5.movecs
  use symmetry    = F
  symmetry adapt  = F


 Summary of "ao basis" -> "ao basis" (cartesian)
 ------------------------------------------------------------------------------
       Tag                 Description            Shells   Functions and Types
 ---------------- ------------------------------  ------  ---------------------
 H                        aug-cc-pvdz                5        9   3s2p
 C                        aug-cc-pvdz                9       25   4s3p2d
 O                        aug-cc-pvdz                9       25   4s3p2d
 N                        aug-cc-pvdz                9       25   4s3p2d



 Forming initial guess at       0.7s


 !! The overlap matrix has   4 vectors deemed linearly dependent with
    eigenvalues:
 2.72D-06 3.58D-06 8.38D-06 9.54D-06


      Superposition of Atomic Density Guess
      -------------------------------------

 Sum of atomic energies:       -1069.43740700

      Non-variational initial energy
      ------------------------------

 Total energy =   -1080.519521
 1-e energy   =   -4673.667311
 2-e energy   =    1977.352456
 HOMO         =      -0.316051
 LUMO         =      -0.307482


 Starting SCF solution at     224.5s



 ----------------------------------------------
         Quadratically convergent ROHF

 Convergence threshold     :          1.000E-04
 Maximum no. of iterations :           30
 Final Fock-matrix accuracy:          1.000E-10
 ----------------------------------------------


              iter       energy          gnorm     gmax       time
             ----- ------------------- --------- --------- --------
                 1    -1072.6118461627  3.64D+00  2.40D-01    461.2
  Setting level-shift to   3.33 to force positive preconditioner
                 2    -1073.3308731260  1.05D+00  6.64D-02    699.4
  Setting level-shift to   2.00 to force positive preconditioner
                 3    -1073.4097511765  2.95D-01  4.51D-02   1376.5
  ga_iter_lsolve: convergence stagnant ... aborting solve

 Disabled NR: increased maxiter to  40

                 4    -1073.4295344774  3.43D-01  3.08D-02   2538.4
                 5    -1073.4431724851  3.01D-01  5.74D-02   2776.6
                 6    -1073.4500526772  2.11D-01  3.92D-02   3246.2
                 7    -1073.4591840269  2.30D-01  2.69D-02   3722.7
                 8    -1073.4645250758  1.78D-01  2.82D-02   4202.3
                 9    -1073.4683304840  1.64D-01  2.40D-02   4438.7
                10    -1073.4707382406  1.34D-01  1.60D-02   4906.5
                11    -1073.4724192236  1.11D-01  1.43D-02   5138.7
                12    -1073.4732667597  9.09D-02  1.11D-02   5611.6
                13    -1073.4737976469  5.49D-02  6.35D-03   6088.2
                14    -1073.4741364870  5.62D-02  8.03D-03   6326.5
                15    -1073.4743915003  5.23D-02  5.48D-03   6806.0
                16    -1073.4746300524  4.24D-02  5.43D-03   7039.2
                17    -1073.4748202127  5.06D-02  6.84D-03   7270.7
                18    -1073.4750739635  5.18D-02  6.11D-03   7744.5
                19    -1073.4754574008  5.77D-02  4.41D-03   8220.8
                20    -1073.4760584864  7.06D-02  9.91D-03   8690.4
                21    -1073.4765150362  7.56D-02  5.28D-03   9162.1
                22    -1073.4769915905  5.64D-02  8.61D-03   9393.4
                23    -1073.4773272144  5.17D-02  7.79D-03   9630.3
                24    -1073.4775285625  4.14D-02  3.97D-03  10110.8
                25    -1073.4776674408  2.44D-02  2.76D-03  10349.4
                26    -1073.4777156209  1.69D-02  4.01D-03  10820.9
                27    -1073.4777387639  1.42D-02  2.47D-03  11285.8
                28    -1073.4777635709  1.34D-02  1.61D-03  11517.1
                29    -1073.4777901833  1.53D-02  2.10D-03  11993.6
                30    -1073.4778088165  1.56D-02  2.06D-03  12473.6
                31    -1073.4778348062  1.61D-02  1.80D-03  12710.6
                32    -1073.4778595885  1.35D-02  1.99D-03  12943.4
                33    -1073.4778760857  1.22D-02  1.92D-03  13414.6
                34    -1073.4778937428  1.43D-02  1.56D-03  13887.4
                35    -1073.4779233660  1.79D-02  1.41D-03  14365.3
                36    -1073.4779596017  2.03D-02  2.94D-03  14843.7
                37    -1073.4779978472  2.21D-02  1.90D-03  15318.6
                38    -1073.4780369272  1.71D-02  1.86D-03  15549.4
                39    -1073.4780549337  1.41D-02  1.80D-03  16022.2
                40    -1073.4780693560  9.10D-03  1.14D-03  16500.5

      Calculation failed to converge
      ------------------------------



       Final RHF  results 
       ------------------ 

         Total SCF energy =  -1073.478069356037
      One-electron energy =  -4680.578173761387
      Two-electron energy =   1991.304769725364
 Nuclear repulsion energy =   1615.795334679986

        Time for solution =  16277.4s


             Final eigenvalues
             -----------------

              1      
    1  -20.7152
    2  -20.6169
    3  -20.6075
    4  -20.6068
    5  -20.6050
    6  -20.5705
    7  -20.5422
    8  -15.7052
    9  -15.6233
   10  -15.6214
   11  -11.4675
   12  -11.4227
   13  -11.4095
   14  -11.4020
   15  -11.3828
   16  -11.3695
   17  -11.3604
   18  -11.3441
   19  -11.2918
   20  -11.2475
   21   -1.5175
   22   -1.4629
   23   -1.4564
   24   -1.4292
   25   -1.4013
   26   -1.3919
   27   -1.3541
   28   -1.3242
   29   -1.2716
   30   -1.2567
   31   -1.1435
   32   -1.0993
   33   -1.0147
   34   -1.0087
   35   -0.9484
   36   -0.8770
   37   -0.8602
   38   -0.8352
   39   -0.8258
   40   -0.7973
   41   -0.7853
   42   -0.7624
   43   -0.7548
   44   -0.7274
   45   -0.7180
   46   -0.7093
   47   -0.6981
   48   -0.6962
   49   -0.6937
   50   -0.6821
   51   -0.6674
   52   -0.6640
   53   -0.6547
   54   -0.6513
   55   -0.6349
   56   -0.6201
   57   -0.6124
   58   -0.6019
   59   -0.5888
   60   -0.5843
   61   -0.5729
   62   -0.5576
   63   -0.5518
   64   -0.5376
   65   -0.5195
   66   -0.5025
   67   -0.4942
   68   -0.4913
   69   -0.4757
   70   -0.4736
   71   -0.4525
   72   -0.4411
   73   -0.4359
   74   -0.4154
   75   -0.3678
   76   -0.2839
   77    0.0252
   78    0.0327
   79    0.0373
   80    0.0420
   81    0.0490
   82    0.0565
   83    0.0581
   84    0.0633
   85    0.0709

                       ROHF Final Molecular Orbital Analysis
                       -------------------------------------

 Vector   22  Occ=2.000000D+00  E=-1.462918D+00
              MO Center= -2.1D+00,  2.8D+00, -9.8D-01, r^2= 1.8D+00
   Bfn.  Coefficient  Atom+Function         Bfn.  Coefficient  Atom+Function  
  ----- ------------  ---------------      ----- ------------  ---------------
   241      0.283298  15 O  s               266      0.279350  16 O  s         
   240      0.265185  15 O  s               265      0.260583  16 O  s         
   215      0.249913  14 C  s               217     -0.200466  14 C  s         

 Vector   23  Occ=2.000000D+00  E=-1.456360D+00
              MO Center= -5.9D-01,  2.1D-01,  1.5D+00, r^2= 2.2D+00
   Bfn.  Coefficient  Atom+Function         Bfn.  Coefficient  Atom+Function  
  ----- ------------  ---------------      ----- ------------  ---------------
   316      0.348657  18 O  s               315      0.329743  18 O  s         
   290      0.237387  17 C  s               340      0.150002  19 N  s         

 Vector   24  Occ=2.000000D+00  E=-1.429217D+00
              MO Center=  1.6D+00, -1.7D+00, -9.1D-01, r^2= 1.7D+00
   Bfn.  Coefficient  Atom+Function         Bfn.  Coefficient  Atom+Function  
  ----- ------------  ---------------      ----- ------------  ---------------
   552      0.373393  30 O  s               551      0.343202  30 O  s         
   526      0.242729  29 C  s         

 Vector   25  Occ=2.000000D+00  E=-1.401309D+00
              MO Center=  2.1D+00,  2.4D+00,  7.8D-01, r^2= 1.2D+00
   Bfn.  Coefficient  Atom+Function         Bfn.  Coefficient  Atom+Function  
  ----- ------------  ---------------      ----- ------------  ---------------
    80      0.346313   6 O  s                79      0.341969   6 O  s         
    54      0.247381   5 C  s               139     -0.152918   9 C  s         

 Vector   26  Occ=2.000000D+00  E=-1.391880D+00
              MO Center= -8.0D-01, -4.3D+00,  3.2D-01, r^2= 1.3D+00
   Bfn.  Coefficient  Atom+Function         Bfn.  Coefficient  Atom+Function  
  ----- ------------  ---------------      ----- ------------  ---------------
   477      0.380155  27 O  s               476      0.355500  27 O  s         
   502     -0.264451  28 O  s               501     -0.237312  28 O  s         
   454      0.188734  26 C  px              456      0.169427  26 C  pz        

 Vector   27  Occ=2.000000D+00  E=-1.354080D+00
              MO Center= -2.2D+00,  3.0D+00, -1.1D+00, r^2= 1.6D+00
   Bfn.  Coefficient  Atom+Function         Bfn.  Coefficient  Atom+Function  
  ----- ------------  ---------------      ----- ------------  ---------------
   266      0.340195  16 O  s               241     -0.324453  15 O  s         
   265      0.310594  16 O  s               240     -0.302778  15 O  s         
   218     -0.200313  14 C  px        

 Vector   28  Occ=2.000000D+00  E=-1.324219D+00
              MO Center= -9.7D-02, -2.1D-01,  5.3D-01, r^2= 2.2D+00
   Bfn.  Coefficient  Atom+Function         Bfn.  Coefficient  Atom+Function  
  ----- ------------  ---------------      ----- ------------  ---------------
   341      0.367419  19 N  s               340      0.337192  19 N  s         
   316     -0.241509  18 O  s               315     -0.197022  18 O  s         
   295     -0.181052  17 C  pz        

 Vector   29  Occ=2.000000D+00  E=-1.271574D+00
              MO Center=  9.1D-01,  2.2D+00,  2.7D-01, r^2= 2.4D+00
   Bfn.  Coefficient  Atom+Function         Bfn.  Coefficient  Atom+Function  
  ----- ------------  ---------------      ----- ------------  ---------------
   105      0.402696   7 N  s               104      0.329733   7 N  s         
    80     -0.220692   6 O  s                79     -0.188121   6 O  s         
    57     -0.161468   5 C  px              139     -0.153822   9 C  s         
   138      0.150831   9 C  s         

 Vector   30  Occ=2.000000D+00  E=-1.256727D+00
              MO Center=  1.8D+00, -2.9D+00, -5.2D-01, r^2= 1.6D+00
   Bfn.  Coefficient  Atom+Function         Bfn.  Coefficient  Atom+Function  
  ----- ------------  ---------------      ----- ------------  ---------------
   577      0.403511  31 N  s               576      0.363861  31 N  s         
   552     -0.219240  30 O  s               530     -0.199826  29 C  py        
   551     -0.184526  30 O  s               375     -0.165764  21 C  s         
   600      0.158401  32 H  s               609      0.152672  33 H  s         

 Vector   31  Occ=2.000000D+00  E=-1.143540D+00
              MO Center= -4.3D-01, -1.7D+00,  4.5D-02, r^2= 3.9D+00
   Bfn.  Coefficient  Atom+Function         Bfn.  Coefficient  Atom+Function  
  ----- ------------  ---------------      ----- ------------  ---------------
   408      0.276373  23 C  s               374      0.216687  21 C  s         
   409      0.211619  23 C  s         

 Vector   32  Occ=2.000000D+00  E=-1.099299D+00
              MO Center= -4.5D-01,  2.0D+00,  5.4D-01, r^2= 5.0D+00
   Bfn.  Coefficient  Atom+Function         Bfn.  Coefficient  Atom+Function  
  ----- ------------  ---------------      ----- ------------  ---------------
   172      0.244364  11 C  s               138      0.228010   9 C  s         
    12     -0.171157   2 C  s               173      0.161499  11 C  s         

 Vector   33  Occ=2.000000D+00  E=-1.014655D+00
              MO Center=  6.1D-01,  1.4D+00, -2.1D-01, r^2= 1.0D+01
   Bfn.  Coefficient  Atom+Function         Bfn.  Coefficient  Atom+Function  
  ----- ------------  ---------------      ----- ------------  ---------------
    11      0.236581   2 C  s               172      0.187844  11 C  s         

 Vector   34  Occ=2.000000D+00  E=-1.008682D+00
              MO Center=  7.6D-01, -2.6D-01, -2.8D-01, r^2= 9.8D+00
   Bfn.  Coefficient  Atom+Function         Bfn.  Coefficient  Atom+Function  
  ----- ------------  ---------------      ----- ------------  ---------------
    11      0.214906   2 C  s               374     -0.176281  21 C  s         
   408      0.171535  23 C  s               380     -0.170512  21 C  px        
   410      0.165149  23 C  s               139      0.157183   9 C  s         
   145     -0.155000   9 C  py              415     -0.154153  23 C  py        

 Vector   35  Occ=2.000000D+00  E=-9.483869D-01
              MO Center= -1.7D-01,  1.4D+00,  3.4D-01, r^2= 7.8D+00
   Bfn.  Coefficient  Atom+Function         Bfn.  Coefficient  Atom+Function  
  ----- ------------  ---------------      ----- ------------  ---------------
   138      0.199339   9 C  s               173     -0.193816  11 C  s         
   172     -0.171979  11 C  s               145     -0.153687   9 C  py        

 Vector   36  Occ=2.000000D+00  E=-8.769805D-01
              MO Center=  1.7D-01, -2.0D-01,  2.6D-01, r^2= 5.1D+00
   Bfn.  Coefficient  Atom+Function         Bfn.  Coefficient  Atom+Function  
  ----- ------------  ---------------      ----- ------------  ---------------
   345      0.309000  19 N  pz              364     -0.234296  20 H  s         
   375      0.221329  21 C  s               291      0.206311  17 C  s         
   341     -0.181579  19 N  s               380      0.180433  21 C  px        
   290      0.176108  17 C  s               316     -0.160278  18 O  s         

 Vector   37  Occ=2.000000D+00  E=-8.601801D-01
              MO Center=  4.5D-01, -2.1D+00, -1.5D-01, r^2= 5.7D+00
   Bfn.  Coefficient  Atom+Function         Bfn.  Coefficient  Atom+Function  
  ----- ------------  ---------------      ----- ------------  ---------------
   375      0.272335  21 C  s               381     -0.265237  21 C  py        
   399     -0.223815  22 H  s               341      0.211626  19 N  s         
   526      0.193840  29 C  s               364      0.189186  20 H  s         
   580      0.189366  31 N  py              345     -0.165471  19 N  pz        
   609     -0.156774  33 H  s               380      0.154603  21 C  px        

 Vector   38  Occ=2.000000D+00  E=-8.351535D-01
              MO Center=  7.8D-01,  2.2D+00,  9.4D-02, r^2= 3.4D+00
   Bfn.  Coefficient  Atom+Function         Bfn.  Coefficient  Atom+Function  
  ----- ------------  ---------------      ----- ------------  ---------------
   107      0.320768   7 N  px              128     -0.249244   8 H  s         
    55      0.198646   5 C  s                54      0.195725   5 C  s         
    60     -0.192015   5 C  px               57     -0.177307   5 C  px        
   105     -0.174403   7 N  s                80     -0.163095   6 O  s         
   129     -0.157332   8 H  s               109      0.154574   7 N  pz        

 Vector   39  Occ=2.000000D+00  E=-8.257959D-01
              MO Center= -1.0D+00, -3.4D+00, -2.2D-01, r^2= 6.0D+00
   Bfn.  Coefficient  Atom+Function         Bfn.  Coefficient  Atom+Function  
  ----- ------------  ---------------      ----- ------------  ---------------
   502      0.279844  28 O  s               451     -0.241520  26 C  s         
   504     -0.228385  28 O  px              452     -0.211954  26 C  s         
   477      0.205601  27 O  s               506     -0.195252  28 O  pz        
   501      0.164153  28 O  s               505     -0.161173  28 O  py        

 Vector   40  Occ=2.000000D+00  E=-7.973153D-01
              MO Center=  8.2D-01, -2.1D+00, -2.2D-01, r^2= 7.2D+00
   Bfn.  Coefficient  Atom+Function         Bfn.  Coefficient  Atom+Function  
  ----- ------------  ---------------      ----- ------------  ---------------
   580      0.264450  31 N  py              600     -0.264854  32 H  s         
   527      0.173060  29 C  s               581     -0.166940  31 N  pz        
   529      0.160772  29 C  px        

 Vector   41  Occ=2.000000D+00  E=-7.852631D-01
              MO Center= -1.5D+00,  2.5D+00, -6.2D-01, r^2= 5.6D+00
   Bfn.  Coefficient  Atom+Function         Bfn.  Coefficient  Atom+Function  
  ----- ------------  ---------------      ----- ------------  ---------------
   215      0.258704  14 C  s               241     -0.259904  15 O  s         
   266     -0.239992  16 O  s               268      0.195476  16 O  px        
   245      0.189977  15 O  pz              216      0.167548  14 C  s         
   243     -0.163123  15 O  px              177     -0.157769  11 C  pz        

 Vector   42  Occ=2.000000D+00  E=-7.623938D-01
              MO Center= -1.1D-02, -3.0D-01,  4.6D-01, r^2= 1.0D+01
   Bfn.  Coefficient  Atom+Function         Bfn.  Coefficient  Atom+Function  
  ----- ------------  ---------------      ----- ------------  ---------------
   145      0.269321   9 C  py               55      0.238220   5 C  s         
   291      0.202097  17 C  s               109      0.184327   7 N  pz        
   142      0.182219   9 C  py              139     -0.160492   9 C  s         
   294     -0.160917  17 C  py              455      0.156497  26 C  py        
   319     -0.154884  18 O  py              609     -0.155088  33 H  s         

 Vector   43  Occ=2.000000D+00  E=-7.547603D-01
              MO Center= -4.3D-01, -2.7D+00, -4.0D-02, r^2= 6.1D+00
   Bfn.  Coefficient  Atom+Function         Bfn.  Coefficient  Atom+Function  
  ----- ------------  ---------------      ----- ------------  ---------------
   504      0.210734  28 O  px              413     -0.191452  23 C  pz        
   441      0.181865  25 H  s               455     -0.172093  26 C  py        
   291      0.161603  17 C  s               480     -0.160318  27 O  py        
   375     -0.156274  21 C  s         

 Vector   44  Occ=2.000000D+00  E=-7.273884D-01
              MO Center= -2.4D-01, -2.8D+00, -2.0D-01, r^2= 6.2D+00
   Bfn.  Coefficient  Atom+Function         Bfn.  Coefficient  Atom+Function  
  ----- ------------  ---------------      ----- ------------  ---------------
   506      0.242117  28 O  pz              432      0.191806  24 H  s         
   454     -0.186070  26 C  px              609     -0.178613  33 H  s         
   579     -0.154198  31 N  px              509      0.152161  28 O  pz        

 Vector   45  Occ=2.000000D+00  E=-7.179662D-01
              MO Center= -4.3D-01, -1.7D+00,  3.6D-01, r^2= 7.3D+00
   Bfn.  Coefficient  Atom+Function         Bfn.  Coefficient  Atom+Function  
  ----- ------------  ---------------      ----- ------------  ---------------
   409      0.198999  23 C  s               411     -0.183063  23 C  px        
   455      0.168909  26 C  py              378      0.164627  21 C  py        
   295      0.163228  17 C  pz              481      0.152266  27 O  pz        

 Vector   46  Occ=2.000000D+00  E=-7.093318D-01
              MO Center=  2.8D-02, -6.0D-01, -7.1D-03, r^2= 1.2D+01
   Bfn.  Coefficient  Atom+Function         Bfn.  Coefficient  Atom+Function  
  ----- ------------  ---------------      ----- ------------  ---------------
   530      0.164917  29 C  py              579      0.157055  31 N  px        
   609      0.155503  33 H  s         

 Vector   47  Occ=2.000000D+00  E=-6.981407D-01
              MO Center= -2.7D-01, -1.9D+00,  1.7D-01, r^2= 1.3D+01
   Bfn.  Coefficient  Atom+Function         Bfn.  Coefficient  Atom+Function  
  ----- ------------  ---------------      ----- ------------  ---------------
   456      0.235880  26 C  pz              479     -0.232519  27 O  px        
   477     -0.178085  27 O  s               504     -0.166466  28 O  px        

 Vector   48  Occ=2.000000D+00  E=-6.962293D-01
              MO Center= -1.5D-01,  9.5D-01, -2.5D-01, r^2= 1.3D+01
   Bfn.  Coefficient  Atom+Function         Bfn.  Coefficient  Atom+Function  
  ----- ------------  ---------------      ----- ------------  ---------------
   245     -0.176944  15 O  pz               84      0.165604   6 O  pz        

 Vector   49  Occ=2.000000D+00  E=-6.936783D-01
              MO Center= -1.0D+00,  1.6D+00, -8.3D-02, r^2= 9.9D+00
   Bfn.  Coefficient  Atom+Function         Bfn.  Coefficient  Atom+Function  
  ----- ------------  ---------------      ----- ------------  ---------------
   220     -0.199697  14 C  pz              177      0.184501  11 C  pz        
   268      0.177565  16 O  px              218     -0.159254  14 C  px        
   243     -0.159549  15 O  px              269     -0.153019  16 O  py        

 Vector   50  Occ=2.000000D+00  E=-6.821267D-01
              MO Center=  1.9D-01,  2.6D+00, -2.6D-01, r^2= 9.1D+00
   Bfn.  Coefficient  Atom+Function         Bfn.  Coefficient  Atom+Function  
  ----- ------------  ---------------      ----- ------------  ---------------
    84      0.254909   6 O  pz              268     -0.233320  16 O  px        
    57     -0.217321   5 C  px               80      0.182675   6 O  s         
   245      0.181932  15 O  pz              219     -0.175420  14 C  py        
    16     -0.173695   2 C  pz              266      0.153686  16 O  s         

 Vector   51  Occ=2.000000D+00  E=-6.673825D-01
              MO Center= -4.5D-01, -9.3D-01,  4.6D-01, r^2= 1.0D+01
   Bfn.  Coefficient  Atom+Function         Bfn.  Coefficient  Atom+Function  
  ----- ------------  ---------------      ----- ------------  ---------------
   375     -0.224317  21 C  s               409      0.209650  23 C  s         
   320      0.208400  18 O  pz              381      0.171591  21 C  py        
   481     -0.168564  27 O  pz              378      0.159223  21 C  py        
    55     -0.156666   5 C  s               454      0.152301  26 C  px        

 Vector   52  Occ=2.000000D+00  E=-6.639836D-01
              MO Center= -5.2D-01,  4.2D-01,  1.7D-01, r^2= 1.0D+01
   Bfn.  Coefficient  Atom+Function         Bfn.  Coefficient  Atom+Function  
  ----- ------------  ---------------      ----- ------------  ---------------
   409      0.199015  23 C  s                12     -0.167548   2 C  s         
   218      0.150937  14 C  px        

 Vector   53  Occ=2.000000D+00  E=-6.546964D-01
              MO Center=  1.4D-01,  3.2D-01, -1.5D-01, r^2= 1.1D+01
   Bfn.  Coefficient  Atom+Function         Bfn.  Coefficient  Atom+Function  
  ----- ------------  ---------------      ----- ------------  ---------------
   409      0.183563  23 C  s               173      0.174601  11 C  s         
   555      0.164802  30 O  py               12      0.159632   2 C  s         
   163     -0.158756  10 H  s               413     -0.155208  23 C  pz        
   106      0.153880   7 N  s               552      0.152736  30 O  s         

 Vector   54  Occ=2.000000D+00  E=-6.513325D-01
              MO Center= -5.1D-01, -1.5D+00,  1.7D-01, r^2= 9.6D+00
   Bfn.  Coefficient  Atom+Function         Bfn.  Coefficient  Atom+Function  
  ----- ------------  ---------------      ----- ------------  ---------------
   320      0.195111  18 O  pz              504     -0.190242  28 O  px        
   432     -0.184569  24 H  s               506      0.160693  28 O  pz        
   556     -0.153716  30 O  pz        

 Vector   55  Occ=2.000000D+00  E=-6.349037D-01
              MO Center=  1.1D+00,  1.4D+00, -2.5D-01, r^2= 9.2D+00
   Bfn.  Coefficient  Atom+Function         Bfn.  Coefficient  Atom+Function  
  ----- ------------  ---------------      ----- ------------  ---------------
    15      0.209505   2 C  py               58      0.187276   5 C  py        
   108      0.187041   7 N  py                1      0.156167   1 H  s         
    83      0.156418   6 O  py        

 Vector   56  Occ=2.000000D+00  E=-6.200990D-01
              MO Center=  1.7D-01,  8.2D-01,  1.1D-01, r^2= 9.7D+00
   Bfn.  Coefficient  Atom+Function         Bfn.  Coefficient  Atom+Function  
  ----- ------------  ---------------      ----- ------------  ---------------
   173      0.205718  11 C  s               318      0.194308  18 O  px        
   375     -0.189174  21 C  s               293      0.166242  17 C  px        

 Vector   57  Occ=2.000000D+00  E=-6.124325D-01
              MO Center= -1.1D-02,  2.1D+00,  1.9D-01, r^2= 8.0D+00
   Bfn.  Coefficient  Atom+Function         Bfn.  Coefficient  Atom+Function  
  ----- ------------  ---------------      ----- ------------  ---------------
   139      0.208156   9 C  s               244     -0.189090  15 O  py        
   162      0.184391  10 H  s               294     -0.165685  17 C  py        
    59     -0.163398   5 C  pz              142      0.156972   9 C  py        

 Vector   58  Occ=2.000000D+00  E=-6.019004D-01
              MO Center=  3.2D-01, -2.2D+00, -5.4D-01, r^2= 5.1D+00
   Bfn.  Coefficient  Atom+Function         Bfn.  Coefficient  Atom+Function  
  ----- ------------  ---------------      ----- ------------  ---------------
   529      0.240669  29 C  px              556      0.234439  30 O  pz        
   413     -0.193259  23 C  pz              432     -0.188818  24 H  s         
   581      0.179701  31 N  pz              555     -0.170782  30 O  py        
   441      0.165910  25 H  s               506      0.157827  28 O  pz        
   411      0.150487  23 C  px        

 Vector   59  Occ=2.000000D+00  E=-5.888020D-01
              MO Center=  1.8D+00,  2.1D+00,  1.7D-01, r^2= 5.7D+00
   Bfn.  Coefficient  Atom+Function         Bfn.  Coefficient  Atom+Function  
  ----- ------------  ---------------      ----- ------------  ---------------
    82     -0.291842   6 O  px               59      0.277830   5 C  pz        
    16     -0.212747   2 C  pz               84     -0.188297   6 O  pz        
    85     -0.183474   6 O  px               44      0.178052   4 H  s         
    19     -0.164722   2 C  pz               36     -0.152715   3 H  s         
    80     -0.152544   6 O  s               109     -0.152447   7 N  pz        

 Vector   60  Occ=2.000000D+00  E=-5.843108D-01
              MO Center=  6.0D-01,  3.7D-01,  4.1D-02, r^2= 9.8D+00
   Bfn.  Coefficient  Atom+Function         Bfn.  Coefficient  Atom+Function  
  ----- ------------  ---------------      ----- ------------  ---------------
   399      0.238549  22 H  s               375     -0.197641  21 C  s         
   143     -0.180493   9 C  pz              379      0.157640  21 C  pz        
   531     -0.157005  29 C  pz               14     -0.155468   2 C  px        
   162     -0.155956  10 H  s               409      0.153462  23 C  s         
   175      0.151234  11 C  px        

 Vector   61  Occ=2.000000D+00  E=-5.729487D-01
              MO Center=  1.5D+00,  1.1D+00, -4.5D-01, r^2= 1.1D+01
   Bfn.  Coefficient  Atom+Function         Bfn.  Coefficient  Atom+Function  
  ----- ------------  ---------------      ----- ------------  ---------------
    14      0.276766   2 C  px               35      0.267034   3 H  s         
    36      0.241421   3 H  s                 1     -0.170161   1 H  s         
   113      0.160424   7 N  px              350      0.157399  19 N  py        
   399      0.152179  22 H  s         

 Vector   62  Occ=2.000000D+00  E=-5.575657D-01
              MO Center=  1.9D-01,  1.9D+00,  2.1D-01, r^2= 8.7D+00
   Bfn.  Coefficient  Atom+Function         Bfn.  Coefficient  Atom+Function  
  ----- ------------  ---------------      ----- ------------  ---------------
   175      0.211337  11 C  px              141     -0.203173   9 C  px        
    14      0.200964   2 C  px              113      0.185011   7 N  px        
    35      0.180139   3 H  s                36      0.166317   3 H  s         
   196     -0.165672  12 H  s                 1     -0.151733   1 H  s         

 Vector   63  Occ=2.000000D+00  E=-5.518482D-01
              MO Center= -1.4D+00,  1.9D+00,  3.8D-01, r^2= 6.6D+00
   Bfn.  Coefficient  Atom+Function         Bfn.  Coefficient  Atom+Function  
  ----- ------------  ---------------      ----- ------------  ---------------
   176      0.276110  11 C  py              205      0.236065  13 H  s         
   197     -0.204294  12 H  s               244     -0.185997  15 O  py        
   206      0.177933  13 H  s               318     -0.176490  18 O  px        
   196     -0.168813  12 H  s               269     -0.166026  16 O  py        
   375      0.155740  21 C  s         

 Vector   64  Occ=2.000000D+00  E=-5.375710D-01
              MO Center=  1.5D+00,  2.2D+00, -7.5D-02, r^2= 5.9D+00
   Bfn.  Coefficient  Atom+Function         Bfn.  Coefficient  Atom+Function  
  ----- ------------  ---------------      ----- ------------  ---------------
    15      0.259947   2 C  py               44     -0.234525   4 H  s         
    83     -0.216950   6 O  py               45     -0.211558   4 H  s         
   108     -0.208079   7 N  py              111     -0.192092   7 N  py        
   319     -0.188118  18 O  py              139      0.182406   9 C  s         
    58     -0.170479   5 C  py              163     -0.161949  10 H  s         

 Vector   65  Occ=2.000000D+00  E=-5.195477D-01
              MO Center= -6.8D-01, -4.3D+00,  3.2D-01, r^2= 2.5D+00
   Bfn.  Coefficient  Atom+Function         Bfn.  Coefficient  Atom+Function  
  ----- ------------  ---------------      ----- ------------  ---------------
   481      0.357996  27 O  pz              479     -0.303164  27 O  px        
   484      0.275215  27 O  pz              506     -0.247834  28 O  pz        
   482     -0.239589  27 O  px              504      0.233570  28 O  px        
   509     -0.183999  28 O  pz              507      0.178626  28 O  px        

 Vector   66  Occ=2.000000D+00  E=-5.025131D-01
              MO Center= -5.4D-01, -4.2D+00,  5.2D-01, r^2= 2.1D+00
   Bfn.  Coefficient  Atom+Function         Bfn.  Coefficient  Atom+Function  
  ----- ------------  ---------------      ----- ------------  ---------------
   480      0.518695  27 O  py              483      0.411750  27 O  py        
   442     -0.222377  25 H  s               479      0.219706  27 O  px        
   410      0.216326  23 C  s               482      0.187326  27 O  px        
   409      0.181423  23 C  s               506      0.161275  28 O  pz        
   453     -0.159393  26 C  s               470     -0.155727  26 C  dxy       

 Vector   67  Occ=2.000000D+00  E=-4.941844D-01
              MO Center= -2.9D-01,  1.3D+00,  9.9D-01, r^2= 7.0D+00
   Bfn.  Coefficient  Atom+Function         Bfn.  Coefficient  Atom+Function  
  ----- ------------  ---------------      ----- ------------  ---------------
   319      0.389607  18 O  py              322      0.305610  18 O  py        
   139     -0.255314   9 C  s                83     -0.208239   6 O  py        
   113     -0.188252   7 N  px              243      0.175498  15 O  px        
   270     -0.175254  16 O  pz              145      0.163870   9 C  py        
   142      0.160499   9 C  py              163      0.157240  10 H  s         

 Vector   68  Occ=2.000000D+00  E=-4.913368D-01
              MO Center= -1.4D+00,  2.6D+00, -6.5D-01, r^2= 5.5D+00
   Bfn.  Coefficient  Atom+Function         Bfn.  Coefficient  Atom+Function  
  ----- ------------  ---------------      ----- ------------  ---------------
   173      0.371363  11 C  s               243      0.358657  15 O  px        
   270     -0.334502  16 O  pz              246      0.295565  15 O  px        
   273     -0.274905  16 O  pz              206     -0.242216  13 H  s         
   113     -0.213226   7 N  px              245      0.210868  15 O  pz        
   248      0.195361  15 O  pz              197     -0.185404  12 H  s         

 Vector   69  Occ=2.000000D+00  E=-4.757175D-01
              MO Center= -1.7D+00,  2.6D+00, -6.6D-01, r^2= 4.5D+00
   Bfn.  Coefficient  Atom+Function         Bfn.  Coefficient  Atom+Function  
  ----- ------------  ---------------      ----- ------------  ---------------
   245      0.312391  15 O  pz              270      0.296859  16 O  pz        
   177      0.249436  11 C  pz              248      0.213834  15 O  pz        
   273      0.210710  16 O  pz              244     -0.195627  15 O  py        
   220     -0.181840  14 C  pz              268      0.181271  16 O  px        
   247     -0.163800  15 O  py              223     -0.161239  14 C  pz        

 Vector   70  Occ=2.000000D+00  E=-4.735781D-01
              MO Center=  1.3D+00, -1.3D+00, -8.9D-01, r^2= 4.2D+00
   Bfn.  Coefficient  Atom+Function         Bfn.  Coefficient  Atom+Function  
  ----- ------------  ---------------      ----- ------------  ---------------
   554      0.385012  30 O  px              555     -0.350397  30 O  py        
   375     -0.309821  21 C  s               557      0.301530  30 O  px        
   558     -0.280250  30 O  py              399      0.225227  22 H  s         
   545     -0.205309  29 C  dxy             409      0.169404  23 C  s         
   527      0.159240  29 C  s               577     -0.152366  31 N  s         

 Vector   71  Occ=2.000000D+00  E=-4.524838D-01
              MO Center=  3.2D-01, -1.5D+00,  1.1D-01, r^2= 7.3D+00
   Bfn.  Coefficient  Atom+Function         Bfn.  Coefficient  Atom+Function  
  ----- ------------  ---------------      ----- ------------  ---------------
   343      0.272437  19 N  px              346      0.255977  19 N  px        
   318     -0.242838  18 O  px              342      0.200565  19 N  s         
   321     -0.194568  18 O  px              556      0.194673  30 O  pz        
   581     -0.191131  31 N  pz              584     -0.165713  31 N  pz        
   505     -0.164242  28 O  py              579     -0.164492  31 N  px        

 Vector   72  Occ=2.000000D+00  E=-4.411401D-01
              MO Center=  1.1D+00, -2.0D+00, -3.4D-01, r^2= 5.9D+00
   Bfn.  Coefficient  Atom+Function         Bfn.  Coefficient  Atom+Function  
  ----- ------------  ---------------      ----- ------------  ---------------
   581     -0.276475  31 N  pz              410      0.275011  23 C  s         
   350      0.245365  19 N  py              584     -0.235554  31 N  pz        
   556      0.225616  30 O  pz              554      0.215614  30 O  px        
   343     -0.208054  19 N  px              579     -0.208647  31 N  px        
   346     -0.191649  19 N  px              582     -0.182723  31 N  px        

 Vector   73  Occ=2.000000D+00  E=-4.359167D-01
              MO Center=  2.4D+00,  2.4D+00,  7.2D-01, r^2= 2.5D+00
   Bfn.  Coefficient  Atom+Function         Bfn.  Coefficient  Atom+Function  
  ----- ------------  ---------------      ----- ------------  ---------------
    82      0.461544   6 O  px               85      0.368960   6 O  px        
    84     -0.290526   6 O  pz               13      0.265720   2 C  s         
   105      0.259130   7 N  s                16     -0.220581   2 C  pz        
    87     -0.219412   6 O  pz               19     -0.210879   2 C  pz        
    63     -0.189579   5 C  px              350     -0.168136  19 N  py        

 Vector   74  Occ=2.000000D+00  E=-4.153810D-01
              MO Center=  8.7D-01,  2.1D+00,  5.7D-01, r^2= 5.0D+00
   Bfn.  Coefficient  Atom+Function         Bfn.  Coefficient  Atom+Function  
  ----- ------------  ---------------      ----- ------------  ---------------
   108      0.390075   7 N  py              111      0.367200   7 N  py        
    83     -0.335837   6 O  py               86     -0.261151   6 O  py        
   106      0.233920   7 N  s               319     -0.167883  18 O  py        
   145     -0.150775   9 C  py        

 Vector   75  Occ=2.000000D+00  E=-3.677633D-01
              MO Center= -2.0D+00,  5.9D-01, -7.6D-01, r^2= 1.4D+01
   Bfn.  Coefficient  Atom+Function         Bfn.  Coefficient  Atom+Function  
  ----- ------------  ---------------      ----- ------------  ---------------
   244      0.272481  15 O  py              505     -0.268393  28 O  py        
   269     -0.247297  16 O  py              247      0.222388  15 O  py        
   508     -0.215357  28 O  py              270      0.207271  16 O  pz        
   272     -0.196784  16 O  py              350     -0.191040  19 N  py        
   268     -0.170997  16 O  px              273      0.165934  16 O  pz        

 Vector   76  Occ=0.000000D+00  E=-2.838914D-01
              MO Center= -1.5D+00, -9.6D-01, -3.8D-01, r^2= 1.4D+01
   Bfn.  Coefficient  Atom+Function         Bfn.  Coefficient  Atom+Function  
  ----- ------------  ---------------      ----- ------------  ---------------
   505      0.323643  28 O  py              508      0.260026  28 O  py        
   244      0.196505  15 O  py              412      0.190581  23 C  py        
   269     -0.176038  16 O  py              343      0.170873  19 N  px        
   346      0.170433  19 N  px              247      0.157944  15 O  py        

 Vector   77  Occ=0.000000D+00  E= 2.521622D-02
              MO Center= -9.0D-02, -2.7D+00, -1.1D+00, r^2= 2.8D+01
   Bfn.  Coefficient  Atom+Function         Bfn.  Coefficient  Atom+Function  
  ----- ------------  ---------------      ----- ------------  ---------------
   453      4.700207  26 C  s               528      4.251463  29 C  s         
    56      3.144195   5 C  s               578     -3.079842  31 N  s         
   217      2.942571  14 C  s               443     -2.164322  25 H  s         
   410     -2.028646  23 C  s               611     -1.611809  33 H  s         
    13     -1.450473   2 C  s               434     -1.442458  24 H  s         

 Vector   78  Occ=0.000000D+00  E= 3.270087D-02
              MO Center= -1.1D-02, -2.1D+00, -9.8D-02, r^2= 3.6D+01
   Bfn.  Coefficient  Atom+Function         Bfn.  Coefficient  Atom+Function  
  ----- ------------  ---------------      ----- ------------  ---------------
   217      3.671122  14 C  s               434     -2.463137  24 H  s         
   611      2.293616  33 H  s               453      1.975227  26 C  s         
   578      1.960200  31 N  s               198     -1.795879  12 H  s         
   535     -1.717578  29 C  px              536      1.619518  29 C  py        
   350      1.580967  19 N  py              366     -1.377009  20 H  s         

 Vector   79  Occ=0.000000D+00  E= 3.732880D-02
              MO Center=  9.3D-01,  3.7D+00, -3.2D-01, r^2= 3.1D+01
   Bfn.  Coefficient  Atom+Function         Bfn.  Coefficient  Atom+Function  
  ----- ------------  ---------------      ----- ------------  ---------------
   130      2.895520   8 H  s               217      2.814076  14 C  s         
     3     -2.591804   1 H  s               147      2.566169   9 C  px        
   300      2.509268  17 C  py              207     -2.495845  13 H  s         
   410      2.087979  23 C  s                63      1.959093   5 C  px        
   366     -1.954241  20 H  s               384      1.906803  21 C  py        

 Vector   80  Occ=0.000000D+00  E= 4.197952D-02
              MO Center= -6.2D-02, -6.5D-01, -4.6D-01, r^2= 3.4D+01
   Bfn.  Coefficient  Atom+Function         Bfn.  Coefficient  Atom+Function  
  ----- ------------  ---------------      ----- ------------  ---------------
   443      3.909015  25 H  s               383      3.173985  21 C  px        
   384     -2.685421  21 C  py               63     -2.453919   5 C  px        
   149      2.349105   9 C  pz              147     -2.205486   9 C  px        
   300     -2.210164  17 C  py              400     -2.140063  22 H  s         
    65      2.103324   5 C  pz              419      2.093736  23 C  pz        

 Vector   81  Occ=0.000000D+00  E= 4.899696D-02
              MO Center=  7.4D-01,  1.8D+00,  1.5D-01, r^2= 4.1D+01
   Bfn.  Coefficient  Atom+Function         Bfn.  Coefficient  Atom+Function  
  ----- ------------  ---------------      ----- ------------  ---------------
   434     -3.142803  24 H  s                63      3.079880   5 C  px        
   443      2.946689  25 H  s               130      2.686287   8 H  s         
   207      2.615724  13 H  s                37     -2.302263   3 H  s         
   147      2.235730   9 C  px              182     -1.749458  11 C  py        
   419      1.724724  23 C  pz               65     -1.620301   5 C  pz        

 Vector   82  Occ=0.000000D+00  E= 5.648673D-02
              MO Center=  1.0D-01, -1.6D+00,  7.8D-01, r^2= 3.7D+01
   Bfn.  Coefficient  Atom+Function         Bfn.  Coefficient  Atom+Function  
  ----- ------------  ---------------      ----- ------------  ---------------
   453     -5.702644  26 C  s               410      5.347026  23 C  s         
   384      3.731530  21 C  py              198     -3.651505  12 H  s         
   300      3.431712  17 C  py               56     -3.260230   5 C  s         
   400      3.270346  22 H  s               149     -3.116169   9 C  pz        
   611     -2.411315  33 H  s               602      2.225803  32 H  s         

 Vector   83  Occ=0.000000D+00  E= 5.807171D-02
              MO Center=  1.5D+00,  1.0D+00,  3.2D-01, r^2= 3.9D+01
   Bfn.  Coefficient  Atom+Function         Bfn.  Coefficient  Atom+Function  
  ----- ------------  ---------------      ----- ------------  ---------------
   164     -3.709903  10 H  s                 3      3.376783   1 H  s         
   400     -3.224101  22 H  s               434      3.087710  24 H  s         
   385      2.829797  21 C  pz              443     -2.693586  25 H  s         
    37     -2.636477   3 H  s               602      2.281891  32 H  s         
    46     -1.942506   4 H  s               578      1.894854  31 N  s         

 Vector   84  Occ=0.000000D+00  E= 6.332550D-02
              MO Center=  1.3D+00,  6.7D-01, -6.7D-01, r^2= 4.0D+01
   Bfn.  Coefficient  Atom+Function         Bfn.  Coefficient  Atom+Function  
  ----- ------------  ---------------      ----- ------------  ---------------
    37      4.790360   3 H  s               217      4.597216  14 C  s         
   400     -3.747526  22 H  s                13      3.605056   2 C  s         
   130     -3.604364   8 H  s                46     -3.148351   4 H  s         
   453     -2.995030  26 C  s                20     -2.463481   2 C  px        
   113     -2.447085   7 N  px              384     -2.365105  21 C  py        

 Vector   85  Occ=0.000000D+00  E= 7.090787D-02
              MO Center= -3.0D-02, -1.1D+00,  5.0D-01, r^2= 4.2D+01
   Bfn.  Coefficient  Atom+Function         Bfn.  Coefficient  Atom+Function  
  ----- ------------  ---------------      ----- ------------  ---------------
   300      5.473727  17 C  py              384      5.356278  21 C  py        
   198     -4.858440  12 H  s               149     -4.543439   9 C  pz        
   434      4.544669  24 H  s               217      4.490404  14 C  s         
   602     -4.023566  32 H  s               410      3.909439  23 C  s         
   292     -3.490000  17 C  s               147      3.471859   9 C  px        

 Vector   86  Occ=0.000000D+00  E= 7.452845D-02
              MO Center= -1.4D-01, -5.8D-01, -4.0D-01, r^2= 3.9D+01
   Bfn.  Coefficient  Atom+Function         Bfn.  Coefficient  Atom+Function  
  ----- ------------  ---------------      ----- ------------  ---------------
   453      9.080078  26 C  s               410     -7.141317  23 C  s         
   528     -6.654419  29 C  s               384     -5.301588  21 C  py        
    13      4.599249   2 C  s               217     -4.310946  14 C  s         
   292      4.108899  17 C  s                46     -3.960891   4 H  s         
   418      3.970627  23 C  py              342      3.319347  19 N  s         

 Vector   87  Occ=0.000000D+00  E= 7.578358D-02
              MO Center=  5.4D-01,  3.0D+00,  1.1D+00, r^2= 3.6D+01
   Bfn.  Coefficient  Atom+Function         Bfn.  Coefficient  Atom+Function  
  ----- ------------  ---------------      ----- ------------  ---------------
   164      6.529222  10 H  s               207     -5.707023  13 H  s         
   149     -5.134027   9 C  pz               13     -4.200054   2 C  s         
    46     -3.935645   4 H  s                63      3.686159   5 C  px        
     3      3.557945   1 H  s               113      2.774046   7 N  px        
    56     -2.741266   5 C  s               217      2.384651  14 C  s         

 Vector   88  Occ=0.000000D+00  E= 8.305395D-02
              MO Center=  4.7D-01, -5.8D-01, -2.6D-01, r^2= 3.8D+01
   Bfn.  Coefficient  Atom+Function         Bfn.  Coefficient  Atom+Function  
  ----- ------------  ---------------      ----- ------------  ---------------
   400      5.793740  22 H  s               410      5.240365  23 C  s         
   384      4.746295  21 C  py              602     -4.585988  32 H  s         
   217      3.981190  14 C  s               164     -3.913270  10 H  s         
   147      3.596835   9 C  px                3      3.453769   1 H  s         
    46     -3.427190   4 H  s               130     -3.436034   8 H  s         

 Vector   89  Occ=0.000000D+00  E= 9.208997D-02
              MO Center= -5.7D-01, -1.1D-01, -8.4D-01, r^2= 4.3D+01
   Bfn.  Coefficient  Atom+Function         Bfn.  Coefficient  Atom+Function  
  ----- ------------  ---------------      ----- ------------  ---------------
[...]
   106     10.196758   7 N  s               383      9.139519  21 C  px        
    63     -8.768453   5 C  px               65      8.225724   5 C  pz        
   113     -7.428864   7 N  px              528     -7.283942  29 C  s         
    12     -7.085932   2 C  s               174     -6.844268  11 C  s         

 Vector  178  Occ=0.000000D+00  E= 4.215351D-01
              MO Center=  9.7D-02,  1.0D+00, -4.9D-01, r^2= 2.3D+01
   Bfn.  Coefficient  Atom+Function         Bfn.  Coefficient  Atom+Function  
  ----- ------------  ---------------      ----- ------------  ---------------
   147     13.253304   9 C  px               56    -10.266216   5 C  s         
   384      9.502719  21 C  py              453      8.774546  26 C  s         
   113      7.270114   7 N  px              242      7.157674  15 O  s         
   299     -7.074036  17 C  px              385      5.859059  21 C  pz        
   410      5.577545  23 C  s               342     -5.446611  19 N  s         

 Vector  179  Occ=0.000000D+00  E= 4.239211D-01
              MO Center=  2.2D-01,  3.2D-01, -9.8D-02, r^2= 2.2D+01
   Bfn.  Coefficient  Atom+Function         Bfn.  Coefficient  Atom+Function  
  ----- ------------  ---------------      ----- ------------  ---------------
    56     33.477270   5 C  s               410    -26.015838  23 C  s         
   528     22.152690  29 C  s               174    -15.892942  11 C  s         
   113    -12.660432   7 N  px              383    -11.511458  21 C  px        
    13     -8.198546   2 C  s               442      7.478662  25 H  s         
   578     -6.355747  31 N  s               147     -6.119135   9 C  px        

 Vector  180  Occ=0.000000D+00  E= 4.244287D-01
              MO Center= -9.5D-02,  2.0D+00,  2.2D-01, r^2= 2.0D+01
   Bfn.  Coefficient  Atom+Function         Bfn.  Coefficient  Atom+Function  
  ----- ------------  ---------------      ----- ------------  ---------------
   113     17.806689   7 N  px              453    -16.262419  26 C  s         
   410     14.781412  23 C  s               528    -10.892791  29 C  s         
   418    -10.645033  23 C  py              130     -9.154396   8 H  s         
    56     -8.957580   5 C  s               366      8.952053  20 H  s         
   174      8.558414  11 C  s               300     -8.402789  17 C  py        

 Vector  181  Occ=0.000000D+00  E= 4.331431D-01
              MO Center=  7.0D-01,  2.4D-01, -3.7D-02, r^2= 2.3D+01
   Bfn.  Coefficient  Atom+Function         Bfn.  Coefficient  Atom+Function  
  ----- ------------  ---------------      ----- ------------  ---------------
   217     13.455496  14 C  s               453    -12.729113  26 C  s         
   528     -9.878343  29 C  s                13      8.264752   2 C  s         
   148     -7.358263   9 C  py               63     -7.311866   5 C  px        
   300     -6.653621  17 C  py              301     -6.298642  17 C  pz        
   147      5.848626   9 C  px              410      5.743426  23 C  s         

 Vector  182  Occ=0.000000D+00  E= 4.356658D-01
              MO Center=  1.4D-01, -7.6D-01,  1.3D-01, r^2= 2.0D+01
   Bfn.  Coefficient  Atom+Function         Bfn.  Coefficient  Atom+Function  
  ----- ------------  ---------------      ----- ------------  ---------------
   410     15.512944  23 C  s               300      9.610821  17 C  py        
   383      8.945365  21 C  px              384      8.855543  21 C  py        
   292     -8.124525  17 C  s               342     -7.780196  19 N  s         
   350      7.586860  19 N  py               56     -7.485459   5 C  s         
   366     -7.171764  20 H  s               418      6.456059  23 C  py        

 Vector  183  Occ=0.000000D+00  E= 4.387935D-01
              MO Center=  2.6D-02, -3.3D-01,  5.5D-02, r^2= 2.2D+01
   Bfn.  Coefficient  Atom+Function         Bfn.  Coefficient  Atom+Function  
  ----- ------------  ---------------      ----- ------------  ---------------
   453     13.680250  26 C  s               384     10.712428  21 C  py        
   115     -8.302699   7 N  pz              300      7.676224  17 C  py        
   503     -5.244578  28 O  s                13     -4.834477   2 C  s         
   106     -4.732825   7 N  s               578      4.639901  31 N  s         
   149     -4.434617   9 C  pz              148      4.214056   9 C  py        

 Vector  184  Occ=0.000000D+00  E= 4.490441D-01
              MO Center=  5.5D-01,  9.3D-01,  7.2D-03, r^2= 2.2D+01
   Bfn.  Coefficient  Atom+Function         Bfn.  Coefficient  Atom+Function  
  ----- ------------  ---------------      ----- ------------  ---------------
   528     21.648546  29 C  s               300     16.393526  17 C  py        
   106    -14.336132   7 N  s                56     13.507465   5 C  s         
    13    -10.943043   2 C  s               578     -8.750122  31 N  s         
   342      7.881964  19 N  s                12     -7.628218   2 C  s         
     2      6.817988   1 H  s               301      6.355317  17 C  pz        

 Vector  185  Occ=0.000000D+00  E= 4.515208D-01
              MO Center=  1.4D-01,  7.2D-02,  2.5D-01, r^2= 2.0D+01
   Bfn.  Coefficient  Atom+Function         Bfn.  Coefficient  Atom+Function  
  ----- ------------  ---------------      ----- ------------  ---------------
   410     27.471676  23 C  s                13     16.174650   2 C  s         
   292    -13.881355  17 C  s                63     -9.619234   5 C  px        
   453     -8.694253  26 C  s               300      8.564639  17 C  py        
   442     -8.254298  25 H  s               299     -7.835660  17 C  px        
   148     -7.421852   9 C  py              528     -7.136386  29 C  s         

 Vector  186  Occ=0.000000D+00  E= 4.556768D-01
              MO Center=  8.0D-01,  1.3D+00, -4.6D-01, r^2= 1.8D+01
   Bfn.  Coefficient  Atom+Function         Bfn.  Coefficient  Atom+Function  
  ----- ------------  ---------------      ----- ------------  ---------------
   217    -12.504801  14 C  s                13     11.569545   2 C  s         
   147    -10.767044   9 C  px              149      8.735675   9 C  pz        
   183     -7.428847  11 C  pz              113     -7.235760   7 N  px        
   578      6.885359  31 N  s               300     -6.670128  17 C  py        
   536      5.694987  29 C  py               20     -4.814545   2 C  px        

 Vector  187  Occ=0.000000D+00  E= 4.567837D-01
              MO Center=  2.1D-01,  6.1D-01, -2.3D-01, r^2= 2.2D+01
   Bfn.  Coefficient  Atom+Function         Bfn.  Coefficient  Atom+Function  
  ----- ------------  ---------------      ----- ------------  ---------------
   528     27.994367  29 C  s               384     19.782156  21 C  py        
   453    -17.973964  26 C  s               217    -17.833227  14 C  s         
   342    -17.876175  19 N  s                13    -17.738732   2 C  s         
   383    -15.927308  21 C  px              174     11.774120  11 C  s         
   536    -10.215761  29 C  py              385      9.380544  21 C  pz        

 Vector  188  Occ=0.000000D+00  E= 4.627000D-01
              MO Center=  8.8D-01,  7.6D-01, -1.1D-01, r^2= 2.0D+01
   Bfn.  Coefficient  Atom+Function         Bfn.  Coefficient  Atom+Function  
  ----- ------------  ---------------      ----- ------------  ---------------
   528     20.009412  29 C  s               300     19.088850  17 C  py        
   106    -15.866401   7 N  s                12    -14.733233   2 C  s         
   149    -12.558284   9 C  pz              174     11.546002  11 C  s         
   147     11.359804   9 C  px              383    -11.206947  21 C  px        
    13    -10.432474   2 C  s               342    -10.313881  19 N  s         

 Vector  189  Occ=0.000000D+00  E= 4.655395D-01
              MO Center= -4.0D-01,  2.5D-01,  6.0D-02, r^2= 2.2D+01
   Bfn.  Coefficient  Atom+Function         Bfn.  Coefficient  Atom+Function  
  ----- ------------  ---------------      ----- ------------  ---------------
   174     11.901735  11 C  s               217    -11.432404  14 C  s         
   106    -10.078751   7 N  s               292      7.836158  17 C  s         
   173      7.465498  11 C  s               197     -7.192425  12 H  s         
   433      6.852167  24 H  s                12      6.120900   2 C  s         
   206     -5.841586  13 H  s               149     -5.791161   9 C  pz        

 Vector  190  Occ=0.000000D+00  E= 4.679573D-01
              MO Center=  7.3D-01,  4.7D-01, -5.3D-01, r^2= 2.0D+01
   Bfn.  Coefficient  Atom+Function         Bfn.  Coefficient  Atom+Function  
  ----- ------------  ---------------      ----- ------------  ---------------
   528    -21.482123  29 C  s                13     19.602767   2 C  s         
   217    -15.529448  14 C  s               174     11.093831  11 C  s         
    45     -9.231465   4 H  s                12      9.055898   2 C  s         
   410      7.934133  23 C  s               453      7.673004  26 C  s         
   383      6.407939  21 C  px                2     -6.324594   1 H  s         

 Vector  191  Occ=0.000000D+00  E= 4.729105D-01
              MO Center=  2.5D-01, -7.2D-02, -3.4D-01, r^2= 2.2D+01
   Bfn.  Coefficient  Atom+Function         Bfn.  Coefficient  Atom+Function  
  ----- ------------  ---------------      ----- ------------  ---------------
   528     19.245160  29 C  s               384     18.394926  21 C  py        
   292    -14.688769  17 C  s                13    -14.569559   2 C  s         
   350     11.688056  19 N  py              385      9.134992  21 C  pz        
   410      9.067360  23 C  s               453      9.101141  26 C  s         
   217     -8.952486  14 C  s                56      8.723586   5 C  s         

 Vector  192  Occ=0.000000D+00  E= 4.759488D-01
              MO Center=  1.0D-02,  9.0D-01,  2.1D-02, r^2= 2.0D+01
   Bfn.  Coefficient  Atom+Function         Bfn.  Coefficient  Atom+Function  
  ----- ------------  ---------------      ----- ------------  ---------------
    13     10.476892   2 C  s               528     -9.849455  29 C  s         
   106      9.349723   7 N  s               149      8.345815   9 C  pz        
   578      6.363732  31 N  s               300     -5.403034  17 C  py        
   383      5.393939  21 C  px              113     -5.089284   7 N  px        
   410      4.618743  23 C  s               536      4.564279  29 C  py        

 Vector  193  Occ=0.000000D+00  E= 4.833276D-01
              MO Center=  2.1D-01, -3.4D-01, -2.8D-01, r^2= 2.1D+01
   Bfn.  Coefficient  Atom+Function         Bfn.  Coefficient  Atom+Function  
  ----- ------------  ---------------      ----- ------------  ---------------
   453     19.009994  26 C  s               217    -13.587826  14 C  s         
   418     11.819911  23 C  py              528     -8.006329  29 C  s         
   147     -6.734556   9 C  px              140     -6.203868   9 C  s         
   130      6.005983   8 H  s               366     -5.804419  20 H  s         
    13      5.110691   2 C  s                65      4.817817   5 C  pz        

 Vector  194  Occ=0.000000D+00  E= 4.873125D-01
              MO Center=  7.9D-01, -3.6D-01, -2.7D-01, r^2= 2.2D+01
   Bfn.  Coefficient  Atom+Function         Bfn.  Coefficient  Atom+Function  
  ----- ------------  ---------------      ----- ------------  ---------------
    13     10.958895   2 C  s               366    -10.195775  20 H  s         
   528     -9.441497  29 C  s                56     -9.281817   5 C  s         
   217     -7.609325  14 C  s               174      7.416459  11 C  s         
   148     -6.910634   9 C  py              383      6.931192  21 C  px        
   130      6.828959   8 H  s               385     -5.818873  21 C  pz        

 Vector  195  Occ=0.000000D+00  E= 4.906034D-01
              MO Center=  1.1D-01,  4.6D-01,  1.7D-01, r^2= 2.0D+01
   Bfn.  Coefficient  Atom+Function         Bfn.  Coefficient  Atom+Function  
  ----- ------------  ---------------      ----- ------------  ---------------
   174    -17.261375  11 C  s               106     16.399846   7 N  s         
   528     10.536177  29 C  s               217      9.881370  14 C  s         
    56      8.962022   5 C  s               292     -7.803302  17 C  s         
   197      7.576387  12 H  s                13     -6.262729   2 C  s         
   410     -6.215964  23 C  s               342      6.069194  19 N  s         

 Vector  196  Occ=0.000000D+00  E= 4.949956D-01
              MO Center= -9.0D-02,  9.7D-02,  4.5D-01, r^2= 1.9D+01
   Bfn.  Coefficient  Atom+Function         Bfn.  Coefficient  Atom+Function  
  ----- ------------  ---------------      ----- ------------  ---------------
   528     10.589031  29 C  s               453     -9.986707  26 C  s         
   384      9.465916  21 C  py              342     -8.574835  19 N  s         
   418     -8.089135  23 C  py              317      7.695759  18 O  s         
    56      5.507207   5 C  s               197     -4.599567  12 H  s         
   578     -4.472567  31 N  s                13     -4.427016   2 C  s         

 Vector  197  Occ=0.000000D+00  E= 4.970774D-01
              MO Center= -4.9D-01,  1.5D+00,  5.0D-01, r^2= 2.0D+01
   Bfn.  Coefficient  Atom+Function         Bfn.  Coefficient  Atom+Function  
  ----- ------------  ---------------      ----- ------------  ---------------
    56     11.779087   5 C  s               173    -10.375826  11 C  s         
   149     10.299650   9 C  pz              197      9.523281  12 H  s         
   300     -9.525252  17 C  py              174     -7.761125  11 C  s         
   410     -6.799063  23 C  s               206      6.655029  13 H  s         
    81     -6.142098   6 O  s                63     -6.048756   5 C  px        

 Vector  198  Occ=0.000000D+00  E= 5.081545D-01
              MO Center=  4.2D-01, -2.6D-01, -1.6D-02, r^2= 2.0D+01
   Bfn.  Coefficient  Atom+Function         Bfn.  Coefficient  Atom+Function  
  ----- ------------  ---------------      ----- ------------  ---------------
   528     12.505649  29 C  s               147     11.248340   9 C  px        
   300     10.791663  17 C  py              106    -10.504980   7 N  s         
   410     -9.589825  23 C  s               149     -9.414747   9 C  pz        
   453      7.295335  26 C  s               183      6.306014  11 C  pz        
    56      6.117834   5 C  s               418      5.415959  23 C  py        


 center of mass
 --------------
 x =  -0.04652875 y =  -0.03404918 z =   0.01159878

 moments of inertia (a.u.)
 ------------------
        8809.962446205334           0.000000000000           0.000000000000
           0.000000000000        4014.455344032317          -0.000000000000
           0.000000000000          -0.000000000000       10715.240485005235

  Mulliken analysis of the total density
  --------------------------------------

    Atom       Charge   Shell Charges
 -----------   ------   -------------------------------------------------------
    1 H    1     0.85   0.76  0.13 -0.00  0.03 -0.06
    2 C    6     6.26   2.01  0.66  0.28  0.13  2.07  0.97 -0.01  0.06  0.10
    3 H    1     1.03   0.77  0.28  0.01  0.03 -0.06
    4 H    1     0.86   0.76  0.12  0.01  0.03 -0.06
    5 C    6     5.07   2.01  0.68  0.16 -0.11  1.90  0.27 -0.05  0.24 -0.03
    6 O    8     8.74   2.01  0.82  1.00  0.17  2.78  1.82  0.14  0.01 -0.02
    7 N    7     7.44   2.01  0.72  0.78 -0.13  2.46  1.43  0.10  0.06  0.03
    8 H    1     0.91   0.73  0.20  0.01  0.06 -0.09
    9 C    6     6.38   2.01  0.66  0.07 -0.05  1.98  1.38  0.08  0.14  0.11
   10 H    1     1.08   0.77  0.27 -0.01  0.03  0.02
   11 C    6     6.63   2.01  0.67  0.59  0.10  2.03  0.95 -0.02  0.08  0.22
   12 H    1     0.83   0.77  0.09 -0.00  0.03 -0.05
   13 H    1     0.76   0.77  0.02  0.00  0.03 -0.06
   14 C    6     4.58   2.01  0.67  0.07 -0.24  1.87  0.18 -0.06  0.26 -0.18
   15 O    8     8.67   2.01  0.83  1.00  0.14  2.75  1.83  0.14  0.01 -0.03
   16 O    8     8.60   2.01  0.84  1.02  0.18  2.72  1.74  0.13  0.01 -0.03
   17 C    6     4.55   2.01  0.68 -0.04  0.01  1.89  0.05  0.06  0.23 -0.34
   18 O    8     8.70   2.01  0.83  1.04  0.15  2.76  1.81  0.10  0.01 -0.01
   19 N    7     7.43   2.01  0.73  0.80 -0.09  2.40  1.43  0.08  0.05  0.02
   20 H    1     0.86   0.74  0.16 -0.05  0.06 -0.04
   21 C    6     5.96   2.01  0.66  0.08  0.01  1.98  1.17 -0.07  0.13 -0.02
   22 H    1     1.15   0.76  0.34 -0.01  0.03  0.02
   23 C    6     6.84   2.01  0.69  0.53  0.30  1.99  1.03 -0.00  0.08  0.21
   24 H    1     0.78   0.75  0.06  0.01  0.03 -0.07
   25 H    1     0.81   0.76  0.07  0.01  0.03 -0.07
   26 C    6     4.38   2.01  0.69  0.07 -0.23  1.84 -0.01 -0.02  0.26 -0.22
   27 O    8     8.76   2.01  0.82  1.00  0.17  2.76  1.86  0.15  0.01 -0.03
   28 O    8     8.45   2.01  0.85  1.02  0.15  2.67  1.68  0.10  0.01 -0.03
   29 C    6     4.71   2.01  0.68  0.07  0.11  1.89 -0.15 -0.00  0.23 -0.12
   30 O    8     8.78   2.01  0.82  1.03  0.15  2.78  1.84  0.13  0.01 -0.00
   31 N    7     7.27   2.01  0.72  0.88 -0.16  2.46  1.25  0.08  0.04 -0.01
   32 H    1     0.86   0.72  0.17 -0.01  0.06 -0.08
   33 H    1     0.99   0.75  0.22 -0.01  0.05 -0.02

       Multipole analysis of the density wrt the origin
       ------------------------------------------------

     L   x y z        total         open         nuclear
     -   - - -        -----         ----         -------
     0   0 0 0     -0.000000      0.000000    150.000000

     1   1 0 0      0.145248      0.000000     -0.000000
     1   0 1 0     -1.089266      0.000000      0.000000
     1   0 0 1     -0.482976      0.000000      0.000000

     2   2 0 0    -97.163016      0.000000   1572.507153
     2   1 1 0      0.316795      0.000000      9.269126
     2   1 0 1     -8.865174      0.000000    -31.994264
     2   0 2 0    -93.215913      0.000000   4048.504981
     2   0 1 1      5.082803      0.000000      2.235692
     2   0 0 2    -98.270526      0.000000    561.309213

 ------------------------------------------------------------------------
 scf energy failed                                                                                  0
 ------------------------------------------------------------------------
 ------------------------------------------------------------------------
  current input line : 
    48: task scf energy
 ------------------------------------------------------------------------
 ------------------------------------------------------------------------
 This type of error is most commonly associated with calculations not reaching convergence criteria
 ------------------------------------------------------------------------
 For more information see the NWChem manual at https://nwchemgit.github.io


 For further details see manual section:                                                                                                                                                                                                                                                                
0:scf energy failed:Received an Error in Communication
--------------------------------------------------------------------------
MPI_ABORT was invoked on rank 0 in communicator MPI COMMUNICATOR 3 DUP FROM 0
with errorcode -1.

NOTE: invoking MPI_ABORT causes Open MPI to kill all MPI processes.
You may or may not see output from other processes, depending on
exactly when Open MPI kills them.
--------------------------------------------------------------------------
slurmstepd: error: *** STEP 6619389.97 ON nova21-speedy-12 CANCELLED AT 2025-07-11T02:56:39 ***
srun: Job step aborted: Waiting up to 32 seconds for job step to finish.
slurmstepd: error: --task-epilog failed status=9
srun: error: nova21-speedy-12: task 0: Exited with exit code 255
srun: error: nova21-speedy-12: tasks 1-7: Killed
