export TMOUT=5400
export TMPDIR=/tmp
export PTMPDIR=/tmp/ptmp
 argument  1 = inputs/ASP_CYS_4.nw



============================== echo of input deck ==============================
start ASP_CYS_4
geometry
H          4.51000        9.66200       -0.36100
C          4.80900       10.68600       -0.14500
H          4.47600       10.96700        0.85200
H          4.38600       11.36400       -0.88200
C          6.31500       10.77700       -0.19800
O          6.98200        9.78200       -0.44900
N          6.83200       11.97800        0.02800
H          6.20800       12.75300        0.23500
C          8.26300       12.28200        0.16300
H          8.84100       11.64700       -0.51000
C          8.48700       13.76000       -0.21800
H          9.56100       13.95900       -0.21800
H          8.11700       13.92900       -1.23000
C          7.78500       14.73500        0.74300
O          8.48700       15.61900        1.27500
O          6.58600       14.51700        1.04000
C          8.77700       12.05900        1.59900
O          9.89800       11.59400        1.79500
N          7.96000       12.42100        2.59700
H          7.09900       12.87500        2.31200
C          8.30900       12.47100        4.02100
H          7.47800       12.96500        4.52100
C          8.39400       11.04500        4.59700
H          9.14600       10.48200        4.04100
H          8.70200       11.09100        5.64200
S          6.78500       10.20400        4.47600
H          6.11800       11.01900        5.29700
C          9.53400       13.35600        4.36000
O         10.18800       13.15300        5.38100
N          9.85400       14.36700        3.56100
H          9.29100       14.59100        2.74500
H         10.65600       14.92500        3.78700
end

basis
 * library aug-cc-pvdz
end

echo

scf
 direct
end

task scf energy
================================================================================


                                         
                                         


             Northwest Computational Chemistry Package (NWChem) 7.2.0
             --------------------------------------------------------


                    Environmental Molecular Sciences Laboratory
                       Pacific Northwest National Laboratory
                                Richland, WA 99352

                              Copyright (c) 1994-2022
                       Pacific Northwest National Laboratory
                            Battelle Memorial Institute

             NWChem is an open-source computational chemistry package
                        distributed under the terms of the
                      Educational Community License (ECL) 2.0
             A copy of the license is included with this distribution
                              in the LICENSE.TXT file

                                  ACKNOWLEDGMENT
                                  --------------

            This software and its documentation were developed at the
            EMSL at Pacific Northwest National Laboratory, a multiprogram
            national laboratory, operated for the U.S. Department of Energy
            by Battelle under Contract Number DE-AC05-76RL01830. Support
            for this work was provided by the Department of Energy Office
            of Biological and Environmental Research, Office of Basic
            Energy Sciences, and the Office of Advanced Scientific Computing.


           Job information
           ---------------

    hostname        = nova21-speedy-11
    program         = /opt/rit/el9/20230413/app/linux-rhel9-x86_64_v3/gcc-11.2.1/nwchem-7.2.0-oxtctbuhfuzyfaoziquq6bki22grib3g/bin/nwchem
    date            = Fri Jul 11 03:00:04 2025

    compiled        = Wed_May_17_23:46:39_2023
    source          = /tmp/root/spack-stage/spack-stage-nwchem-7.2.0-oxtctbuhfuzyfaoziquq6bki22grib3g/spack-src
    nwchem branch   = 7.2.0
    nwchem revision = d0d141fd
    ga revision     = 5.8.0
    use scalapack   = T
    input           = inputs/ASP_CYS_4.nw
    prefix          = ASP_CYS_4.
    data base       = ./ASP_CYS_4.db
    status          = startup
    nproc           =        8
    time left       =     -1s



           Memory information
           ------------------

    heap     =   26214398 doubles =    200.0 Mbytes
    stack    =   26214395 doubles =    200.0 Mbytes
    global   =   52428800 doubles =    400.0 Mbytes (distinct from heap & stack)
    total    =  104857593 doubles =    800.0 Mbytes
    verify   = yes
    hardfail = no 


           Directory information
           ---------------------

  0 permanent = .
  0 scratch   = .




                                NWChem Input Module
                                -------------------



 Scaling coordinates for geometry "geometry" by  1.889725989
 (inverse scale =  0.529177249)

 C1  symmetry detected

          ------
          auto-z
          ------
  no constraints, skipping    0.0000000000000000     
  no constraints, skipping    0.0000000000000000     


                             Geometry "geometry" -> ""
                             -------------------------

 Output coordinates in angstroms (scale by  1.889725989 to convert to a.u.)

  No.       Tag          Charge          X              Y              Z
 ---- ---------------- ---------- -------------- -------------- --------------
    1 H                    1.0000    -2.30070778    -4.36379451    -0.68344919
    2 C                    6.0000    -1.42685577    -3.79104748    -0.98836966
    3 H                    1.0000    -1.71026976    -3.05102495    -1.73395813
    4 H                    1.0000    -0.66650315    -4.45368692    -1.39402331
    5 C                    6.0000    -0.86593542    -3.07612567     0.21719293
    6 O                    8.0000    -1.40462665    -3.19817284     1.30936107
    7 N                    7.0000     0.22141213    -2.34584135     0.00476385
    8 H                    1.0000     0.60416403    -2.29230837    -0.93517508
    9 C                    6.0000     0.86166653    -1.45903445     0.98560523
   10 H                    1.0000     0.78116080    -1.89222859     1.98365316
   11 C                    6.0000     2.35212063    -1.31477362     0.61471928
   12 H                    1.0000     2.85057837    -0.74112693     1.39928691
   13 H                    1.0000     2.81063693    -2.30389498     0.58298995
   14 C                    6.0000     2.56306222    -0.61944451    -0.74136740
   15 O                    8.0000     3.30729867     0.38205440    -0.76126748
   16 O                    8.0000     1.88465748    -1.00987650    -1.72150202
   17 C                    6.0000     0.22201014    -0.05687064     1.01384250
   18 O                    8.0000     0.08556194     0.54508777     2.07700287
   19 N                    7.0000    -0.14084494     0.46635072    -0.16476371
   20 H                    1.0000     0.10339119    -0.08551883    -0.97990217
   21 C                    6.0000    -0.59302257     1.84302590    -0.39362573
   22 H                    1.0000    -0.63714330     1.97351563    -1.47326585
   23 C                    6.0000    -2.02693586     2.02602432     0.13824012
   24 H                    1.0000    -2.04219815     1.79337362     1.20465923
   25 H                    1.0000    -2.33494569     3.06393562     0.00833608
   26 S                   16.0000    -3.18571175     0.93517495    -0.74385345
   27 H                    1.0000    -3.04140980     1.49196156    -1.94897611
   28 C                    6.0000     0.39366743     2.93910504     0.07947506
   29 O                    8.0000    -0.01074315     4.06671715     0.35571590
   30 N                    7.0000     1.69169401     2.66812061     0.14741941
   31 H                    1.0000     2.05525709     1.76196196    -0.13489139
   32 H                    1.0000     2.31769858     3.38399352     0.46567758

      Atomic Mass 
      ----------- 

      H                  1.007825
      C                 12.000000
      O                 15.994910
      N                 14.003070
      S                 31.972070


 Effective nuclear repulsion energy (a.u.)    1574.4250028084

            Nuclear Dipole moment (a.u.) 
            ----------------------------
        X                 Y               Z
 ---------------- ---------------- ----------------
    -0.0000000000     0.0000000000     0.0000000000



                                Z-matrix (autoz)
                                -------- 

 Units are Angstrom for bonds and degrees for angles

      Type          Name      I     J     K     L     M      Value
      ----------- --------  ----- ----- ----- ----- ----- ----------
    1 Stretch                  1     2                       1.08841
    2 Stretch                  2     3                       1.08805
    3 Stretch                  2     4                       1.08710
    4 Stretch                  2     5                       1.50968
    5 Stretch                  5     6                       1.22389
    6 Stretch                  5     7                       1.32694
    7 Stretch                  7     8                       1.01629
    8 Stretch                  7     9                       1.46915
    9 Stretch                  9    10                       1.09098
   10 Stretch                  9    11                       1.54267
   11 Stretch                  9    17                       1.54143
   12 Stretch                 11    12                       1.09228
   13 Stretch                 11    13                       1.09069
   14 Stretch                 11    14                       1.53849
   15 Stretch                 14    15                       1.24791
   16 Stretch                 14    16                       1.25433
   17 Stretch                 17    18                       1.22934
   18 Stretch                 17    19                       1.33960
   19 Stretch                 19    20                       1.01423
   20 Stretch                 19    21                       1.46700
   21 Stretch                 21    22                       1.08839
   22 Stretch                 21    23                       1.54028
   23 Stretch                 21    28                       1.54880
   24 Stretch                 23    24                       1.09161
   25 Stretch                 23    25                       1.09042
   26 Stretch                 23    26                       1.81956
   27 Stretch                 26    27                       1.33535
   28 Stretch                 28    29                       1.22938
   29 Stretch                 28    30                       1.32775
   30 Stretch                 30    31                       1.01637
   31 Stretch                 30    32                       1.00282
   32 Bend                     1     2     3               109.92243
   33 Bend                     1     2     4               110.20226
   34 Bend                     1     2     5               108.89213
   35 Bend                     2     5     6               120.12246
   36 Bend                     2     5     7               115.92837
   37 Bend                     3     2     4               109.94144
   38 Bend                     3     2     5               108.77832
   39 Bend                     4     2     5               109.07265
   40 Bend                     5     7     8               119.05614
   41 Bend                     5     7     9               125.62200
   42 Bend                     6     5     7               123.94619
   43 Bend                     7     9    10               109.81099
   44 Bend                     7     9    11               108.48078
   45 Bend                     7     9    17               112.36253
   46 Bend                     8     7     9               114.93200
   47 Bend                     9    11    12               108.50114
   48 Bend                     9    11    13               109.16872
   49 Bend                     9    11    14               112.74608
   50 Bend                     9    17    18               120.48543
   51 Bend                     9    17    19               116.84484
   52 Bend                    10     9    11               109.16958
   53 Bend                    10     9    17               108.28915
   54 Bend                    11     9    17               108.67919
   55 Bend                    11    14    15               117.29285
   56 Bend                    11    14    16               118.28938
   57 Bend                    12    11    13               107.77788
   58 Bend                    12    11    14               109.46286
   59 Bend                    13    11    14               109.06171
   60 Bend                    15    14    16               124.04893
   61 Bend                    17    19    20               115.42687
   62 Bend                    17    19    21               125.96425
   63 Bend                    18    17    19               122.65431
   64 Bend                    19    21    22               106.24579
   65 Bend                    19    21    23               110.15559
   66 Bend                    19    21    28               114.84120
   67 Bend                    20    19    21               117.35278
   68 Bend                    21    23    24               108.96741
   69 Bend                    21    23    25               109.56728
   70 Bend                    21    23    26               110.74681
   71 Bend                    21    28    29               120.54309
   72 Bend                    21    28    30               119.60398
   73 Bend                    22    21    23               106.89057
   74 Bend                    22    21    28               104.12186
   75 Bend                    23    21    28               113.79812
   76 Bend                    23    26    27                96.81793
   77 Bend                    24    23    25               108.37885
   78 Bend                    24    23    26               109.68940
   79 Bend                    25    23    26               109.45113
   80 Bend                    28    30    31               121.16130
   81 Bend                    28    30    32               118.73877
   82 Bend                    29    28    30               119.82099
   83 Bend                    31    30    32               120.08667
   84 Torsion                  1     2     5     6          -0.29587
   85 Torsion                  1     2     5     7         179.10075
   86 Torsion                  2     5     7     8           0.97015
   87 Torsion                  2     5     7     9         173.42009
   88 Torsion                  3     2     5     6         119.48965
   89 Torsion                  3     2     5     7         -61.11372
   90 Torsion                  4     2     5     6        -120.59541
   91 Torsion                  4     2     5     7          58.80122
   92 Torsion                  5     7     9    10          35.46933
   93 Torsion                  5     7     9    11         154.70476
   94 Torsion                  5     7     9    17         -85.12011
   95 Torsion                  6     5     7     8        -179.65897
   96 Torsion                  6     5     7     9          -7.20903
   97 Torsion                  7     9    11    12        -174.22149
   98 Torsion                  7     9    11    13         -57.01568
   99 Torsion                  7     9    11    14          64.36071
  100 Torsion                  7     9    17    18         142.41652
  101 Torsion                  7     9    17    19         -38.97444
  102 Torsion                  8     7     9    10        -151.80726
  103 Torsion                  8     7     9    11         -32.57183
  104 Torsion                  8     7     9    17          87.60329
  105 Torsion                  9    11    14    15         125.66065
  106 Torsion                  9    11    14    16         -47.65310
  107 Torsion                  9    17    19    20          -4.33080
  108 Torsion                  9    17    19    21        -171.11483
  109 Torsion                 10     9    11    12         -54.58378
  110 Torsion                 10     9    11    13          62.62203
  111 Torsion                 10     9    11    14        -176.00158
  112 Torsion                 10     9    17    18          20.95338
  113 Torsion                 10     9    17    19        -160.43758
  114 Torsion                 11     9    17    18         -97.52333
  115 Torsion                 11     9    17    19          81.08571
  116 Torsion                 12    11     9    17          63.33616
  117 Torsion                 12    11    14    15           4.79031
  118 Torsion                 12    11    14    16        -168.52345
  119 Torsion                 13    11     9    17        -179.45803
  120 Torsion                 13    11    14    15        -112.90222
  121 Torsion                 13    11    14    16          73.78403
  122 Torsion                 14    11     9    17         -58.08164
  123 Torsion                 17    19    21    22         170.43123
  124 Torsion                 17    19    21    23         -74.14397
  125 Torsion                 17    19    21    28          55.91567
  126 Torsion                 18    17    19    20         174.24550
  127 Torsion                 18    17    19    21           7.46146
  128 Torsion                 19    21    23    24          58.78494
  129 Torsion                 19    21    23    25         177.20926
  130 Torsion                 19    21    23    26         -61.95620
  131 Torsion                 19    21    28    29        -155.92955
  132 Torsion                 19    21    28    30          26.12971
  133 Torsion                 20    19    21    22           3.87363
  134 Torsion                 20    19    21    23         119.29843
  135 Torsion                 20    19    21    28        -110.64194
  136 Torsion                 21    23    26    27         -64.15790
  137 Torsion                 21    28    30    31           2.03071
  138 Torsion                 21    28    30    32        -179.29317
  139 Torsion                 22    21    23    24         173.80247
  140 Torsion                 22    21    23    25         -67.77321
  141 Torsion                 22    21    23    26          53.06134
  142 Torsion                 22    21    28    29          88.32596
  143 Torsion                 22    21    28    30         -89.61478
  144 Torsion                 23    21    28    29         -27.67550
  145 Torsion                 23    21    28    30         154.38376
  146 Torsion                 24    23    21    28         -71.82983
  147 Torsion                 24    23    26    27         175.53043
  148 Torsion                 25    23    21    28          46.59449
  149 Torsion                 25    23    26    27          56.74549
  150 Torsion                 26    23    21    28         167.42903
  151 Torsion                 29    28    30    31        -175.92507
  152 Torsion                 29    28    30    32           2.75105


            XYZ format geometry
            -------------------
    32
 geometry
 H                    -2.30070778    -4.36379451    -0.68344919
 C                    -1.42685577    -3.79104748    -0.98836966
 H                    -1.71026976    -3.05102495    -1.73395813
 H                    -0.66650315    -4.45368692    -1.39402331
 C                    -0.86593542    -3.07612567     0.21719293
 O                    -1.40462665    -3.19817284     1.30936107
 N                     0.22141213    -2.34584135     0.00476385
 H                     0.60416403    -2.29230837    -0.93517508
 C                     0.86166653    -1.45903445     0.98560523
 H                     0.78116080    -1.89222859     1.98365316
 C                     2.35212063    -1.31477362     0.61471928
 H                     2.85057837    -0.74112693     1.39928691
 H                     2.81063693    -2.30389498     0.58298995
 C                     2.56306222    -0.61944451    -0.74136740
 O                     3.30729867     0.38205440    -0.76126748
 O                     1.88465748    -1.00987650    -1.72150202
 C                     0.22201014    -0.05687064     1.01384250
 O                     0.08556194     0.54508777     2.07700287
 N                    -0.14084494     0.46635072    -0.16476371
 H                     0.10339119    -0.08551883    -0.97990217
 C                    -0.59302257     1.84302590    -0.39362573
 H                    -0.63714330     1.97351563    -1.47326585
 C                    -2.02693586     2.02602432     0.13824012
 H                    -2.04219815     1.79337362     1.20465923
 H                    -2.33494569     3.06393562     0.00833608
 S                    -3.18571175     0.93517495    -0.74385345
 H                    -3.04140980     1.49196156    -1.94897611
 C                     0.39366743     2.93910504     0.07947506
 O                    -0.01074315     4.06671715     0.35571590
 N                     1.69169401     2.66812061     0.14741941
 H                     2.05525709     1.76196196    -0.13489139
 H                     2.31769858     3.38399352     0.46567758

 ==============================================================================
                                internuclear distances
 ------------------------------------------------------------------------------
       center one      |      center two      | atomic units |  angstroms
 ------------------------------------------------------------------------------
    2 C                |   1 H                |     2.05679  |     1.08841
    3 H                |   2 C                |     2.05612  |     1.08805
    4 H                |   2 C                |     2.05432  |     1.08710
    5 C                |   2 C                |     2.85288  |     1.50968
    6 O                |   5 C                |     2.31282  |     1.22389
    7 N                |   5 C                |     2.50755  |     1.32694
    8 H                |   7 N                |     1.92051  |     1.01629
    9 C                |   7 N                |     2.77629  |     1.46915
   10 H                |   9 C                |     2.06165  |     1.09098
   11 C                |   9 C                |     2.91522  |     1.54267
   12 H                |  11 C                |     2.06411  |     1.09228
   13 H                |  11 C                |     2.06111  |     1.09069
   14 C                |  11 C                |     2.90732  |     1.53849
   15 O                |  14 C                |     2.35821  |     1.24791
   16 O                |  14 C                |     2.37033  |     1.25433
   17 C                |   9 C                |     2.91289  |     1.54143
   18 O                |  17 C                |     2.32312  |     1.22934
   19 N                |  17 C                |     2.53148  |     1.33960
   20 H                |  19 N                |     1.91662  |     1.01423
   21 C                |  19 N                |     2.77222  |     1.46700
   22 H                |  21 C                |     2.05676  |     1.08839
   23 C                |  21 C                |     2.91072  |     1.54028
   24 H                |  23 C                |     2.06284  |     1.09161
   25 H                |  23 C                |     2.06059  |     1.09042
   26 S                |  23 C                |     3.43847  |     1.81956
   27 H                |  26 S                |     2.52344  |     1.33535
   28 C                |  21 C                |     2.92680  |     1.54880
   29 O                |  28 C                |     2.32318  |     1.22938
   30 N                |  28 C                |     2.50909  |     1.32775
   31 H                |  30 N                |     1.92065  |     1.01637
   32 H                |  30 N                |     1.89505  |     1.00282
 ------------------------------------------------------------------------------
                         number of included internuclear distances:         31
 ==============================================================================



 ==============================================================================
                                 internuclear angles
 ------------------------------------------------------------------------------
        center 1       |       center 2       |       center 3       |  degrees
 ------------------------------------------------------------------------------
    1 H                |   2 C                |   3 H                |   109.92
    1 H                |   2 C                |   4 H                |   110.20
    1 H                |   2 C                |   5 C                |   108.89
    3 H                |   2 C                |   4 H                |   109.94
    3 H                |   2 C                |   5 C                |   108.78
    4 H                |   2 C                |   5 C                |   109.07
    2 C                |   5 C                |   6 O                |   120.12
    2 C                |   5 C                |   7 N                |   115.93
    6 O                |   5 C                |   7 N                |   123.95
    5 C                |   7 N                |   8 H                |   119.06
    5 C                |   7 N                |   9 C                |   125.62
    8 H                |   7 N                |   9 C                |   114.93
    7 N                |   9 C                |  10 H                |   109.81
    7 N                |   9 C                |  11 C                |   108.48
    7 N                |   9 C                |  17 C                |   112.36
   10 H                |   9 C                |  11 C                |   109.17
   10 H                |   9 C                |  17 C                |   108.29
   11 C                |   9 C                |  17 C                |   108.68
    9 C                |  11 C                |  12 H                |   108.50
    9 C                |  11 C                |  13 H                |   109.17
    9 C                |  11 C                |  14 C                |   112.75
   12 H                |  11 C                |  13 H                |   107.78
   12 H                |  11 C                |  14 C                |   109.46
   13 H                |  11 C                |  14 C                |   109.06
   11 C                |  14 C                |  15 O                |   117.29
   11 C                |  14 C                |  16 O                |   118.29
   15 O                |  14 C                |  16 O                |   124.05
    9 C                |  17 C                |  18 O                |   120.49
    9 C                |  17 C                |  19 N                |   116.84
   18 O                |  17 C                |  19 N                |   122.65
   17 C                |  19 N                |  20 H                |   115.43
   17 C                |  19 N                |  21 C                |   125.96
   20 H                |  19 N                |  21 C                |   117.35
   19 N                |  21 C                |  22 H                |   106.25
   19 N                |  21 C                |  23 C                |   110.16
   19 N                |  21 C                |  28 C                |   114.84
   22 H                |  21 C                |  23 C                |   106.89
   22 H                |  21 C                |  28 C                |   104.12
   23 C                |  21 C                |  28 C                |   113.80
   21 C                |  23 C                |  24 H                |   108.97
   21 C                |  23 C                |  25 H                |   109.57
   21 C                |  23 C                |  26 S                |   110.75
   24 H                |  23 C                |  25 H                |   108.38
   24 H                |  23 C                |  26 S                |   109.69
   25 H                |  23 C                |  26 S                |   109.45
   23 C                |  26 S                |  27 H                |    96.82
   21 C                |  28 C                |  29 O                |   120.54
   21 C                |  28 C                |  30 N                |   119.60
   29 O                |  28 C                |  30 N                |   119.82
   28 C                |  30 N                |  31 H                |   121.16
   28 C                |  30 N                |  32 H                |   118.74
   31 H                |  30 N                |  32 H                |   120.09
 ------------------------------------------------------------------------------
                            number of included internuclear angles:         52
 ==============================================================================



  library name resolved from: environment
  library file name is: </opt/rit/el9/20230413/app/linux-rhel9-x86_64_v3/gcc-11.2.1/nwchem-7.2.0-oxtctbuhfuzyfaoziquq6bki22grib3g/share/nwchem/libraries/>
  


 Summary of "ao basis" -> "" (cartesian)
 ------------------------------------------------------------------------------
       Tag                 Description            Shells   Functions and Types
 ---------------- ------------------------------  ------  ---------------------
 *                        aug-cc-pvdz                 on all atoms 


                      Basis "ao basis" -> "ao basis" (cartesian)
                      -----
  H (Hydrogen)
  ------------
            Exponent  Coefficients 
       -------------- ---------------------------------------------------------
  1 S  1.30100000E+01  0.019685
  1 S  1.96200000E+00  0.137977
  1 S  4.44600000E-01  0.478148

  2 S  1.22000000E-01  1.000000

  3 S  2.97400000E-02  1.000000

  4 P  7.27000000E-01  1.000000

  5 P  1.41000000E-01  1.000000

  C (Carbon)
  ----------
            Exponent  Coefficients 
       -------------- ---------------------------------------------------------
  1 S  6.66500000E+03  0.000692
  1 S  1.00000000E+03  0.005329
  1 S  2.28000000E+02  0.027077
  1 S  6.47100000E+01  0.101718
  1 S  2.10600000E+01  0.274740
  1 S  7.49500000E+00  0.448564
  1 S  2.79700000E+00  0.285074
  1 S  5.21500000E-01  0.015204

  2 S  6.66500000E+03 -0.000146
  2 S  1.00000000E+03 -0.001154
  2 S  2.28000000E+02 -0.005725
  2 S  6.47100000E+01 -0.023312
  2 S  2.10600000E+01 -0.063955
  2 S  7.49500000E+00 -0.149981
  2 S  2.79700000E+00 -0.127262
  2 S  5.21500000E-01  0.544529

  3 S  1.59600000E-01  1.000000

  4 S  4.69000000E-02  1.000000

  5 P  9.43900000E+00  0.038109
  5 P  2.00200000E+00  0.209480
  5 P  5.45600000E-01  0.508557

  6 P  1.51700000E-01  1.000000

  7 P  4.04100000E-02  1.000000

  8 D  5.50000000E-01  1.000000

  9 D  1.51000000E-01  1.000000

  O (Oxygen)
  ----------
            Exponent  Coefficients 
       -------------- ---------------------------------------------------------
  1 S  1.17200000E+04  0.000710
  1 S  1.75900000E+03  0.005470
  1 S  4.00800000E+02  0.027837
  1 S  1.13700000E+02  0.104800
  1 S  3.70300000E+01  0.283062
  1 S  1.32700000E+01  0.448719
  1 S  5.02500000E+00  0.270952
  1 S  1.01300000E+00  0.015458

  2 S  1.17200000E+04 -0.000160
  2 S  1.75900000E+03 -0.001263
  2 S  4.00800000E+02 -0.006267
  2 S  1.13700000E+02 -0.025716
  2 S  3.70300000E+01 -0.070924
  2 S  1.32700000E+01 -0.165411
  2 S  5.02500000E+00 -0.116955
  2 S  1.01300000E+00  0.557368

  3 S  3.02300000E-01  1.000000

  4 S  7.89600000E-02  1.000000

  5 P  1.77000000E+01  0.043018
  5 P  3.85400000E+00  0.228913
  5 P  1.04600000E+00  0.508728

  6 P  2.75300000E-01  1.000000

  7 P  6.85600000E-02  1.000000

  8 D  1.18500000E+00  1.000000

  9 D  3.32000000E-01  1.000000

  N (Nitrogen)
  ------------
            Exponent  Coefficients 
       -------------- ---------------------------------------------------------
  1 S  9.04600000E+03  0.000700
  1 S  1.35700000E+03  0.005389
  1 S  3.09300000E+02  0.027406
  1 S  8.77300000E+01  0.103207
  1 S  2.85600000E+01  0.278723
  1 S  1.02100000E+01  0.448540
  1 S  3.83800000E+00  0.278238
  1 S  7.46600000E-01  0.015440

  2 S  9.04600000E+03 -0.000153
  2 S  1.35700000E+03 -0.001208
  2 S  3.09300000E+02 -0.005992
  2 S  8.77300000E+01 -0.024544
  2 S  2.85600000E+01 -0.067459
  2 S  1.02100000E+01 -0.158078
  2 S  3.83800000E+00 -0.121831
  2 S  7.46600000E-01  0.549003

  3 S  2.24800000E-01  1.000000

  4 S  6.12400000E-02  1.000000

  5 P  1.35500000E+01  0.039919
  5 P  2.91700000E+00  0.217169
  5 P  7.97300000E-01  0.510319

  6 P  2.18500000E-01  1.000000

  7 P  5.61100000E-02  1.000000

  8 D  8.17000000E-01  1.000000

  9 D  2.30000000E-01  1.000000

  S (Sulphur)
  -----------
            Exponent  Coefficients 
       -------------- ---------------------------------------------------------
  1 S  1.10800000E+05  0.000248
  1 S  1.66100000E+04  0.001920
  1 S  3.78100000E+03  0.009962
  1 S  1.07100000E+03  0.040298
  1 S  3.49800000E+02  0.128604
  1 S  1.26300000E+02  0.303480
  1 S  4.92600000E+01  0.421432
  1 S  2.01600000E+01  0.230781
  1 S  5.72000000E+00  0.017897
  1 S  2.18200000E+00 -0.002975
  1 S  4.32700000E-01  0.000850

  2 S  1.10800000E+05 -0.000069
  2 S  1.66100000E+04 -0.000528
  2 S  3.78100000E+03 -0.002797
  2 S  1.07100000E+03 -0.011265
  2 S  3.49800000E+02 -0.038883
  2 S  1.26300000E+02 -0.099503
  2 S  4.92600000E+01 -0.199740
  2 S  2.01600000E+01 -0.123360
  2 S  5.72000000E+00  0.513194
  2 S  2.18200000E+00  0.607120
  2 S  4.32700000E-01  0.039675

  3 S  1.10800000E+05  0.000020
  3 S  1.66100000E+04  0.000153
  3 S  3.78100000E+03  0.000810
  3 S  1.07100000E+03  0.003290
  3 S  3.49800000E+02  0.011297
  3 S  1.26300000E+02  0.029639
  3 S  4.92600000E+01  0.059985
  3 S  2.01600000E+01  0.041325
  3 S  5.72000000E+00 -0.207474
  3 S  2.18200000E+00 -0.392889
  3 S  4.32700000E-01  0.632840

  4 S  1.57000000E-01  1.000000

  5 S  5.07000000E-02  1.000000

  6 P  3.99700000E+02  0.004475
  6 P  9.41900000E+01  0.034171
  6 P  2.97500000E+01  0.144250
  6 P  1.07700000E+01  0.353928
  6 P  4.11900000E+00  0.459085
  6 P  1.62500000E+00  0.206383
  6 P  4.72600000E-01  0.010214

  7 P  3.99700000E+02 -0.001163
  7 P  9.41900000E+01 -0.008657
  7 P  2.97500000E+01 -0.039089
  7 P  1.07700000E+01 -0.093463
  7 P  4.11900000E+00 -0.147994
  7 P  1.62500000E+00  0.030190
  7 P  4.72600000E-01  0.561573

  8 P  1.40700000E-01  1.000000

  9 P  3.99000000E-02  1.000000

 10 D  4.79000000E-01  1.000000

 11 D  1.52000000E-01  1.000000



 Summary of "ao basis" -> "ao basis" (cartesian)
 ------------------------------------------------------------------------------
       Tag                 Description            Shells   Functions and Types
 ---------------- ------------------------------  ------  ---------------------
 H                        aug-cc-pvdz                5        9   3s2p
 C                        aug-cc-pvdz                9       25   4s3p2d
 O                        aug-cc-pvdz                9       25   4s3p2d
 N                        aug-cc-pvdz                9       25   4s3p2d
 S                        aug-cc-pvdz               11       29   5s4p2d


 ------------------------------------------------------------------------
 scf: no. of closed-shell electrons is not even!                   0
 ------------------------------------------------------------------------
 ------------------------------------------------------------------------
  current input line : 
     0: 
 ------------------------------------------------------------------------
 ------------------------------------------------------------------------
 There is an error in the input file
 scf: no. of closed-shell electrons is not even!                   0
 ------------------------------------------------------------------------
 ------------------------------------------------------------------------
  current input line : 
     0: 
 ------------------------------------------------------------------------
 ------------------------------------------------------------------------
 There is an error in the input file
 ------------------------------------------------------------------------
 For more information see the NWChem manual at https://nwchemgit.github.io


 For further details see manual section:                                                                                                                                                                                                                                                                
 scf: no. of closed-shell electrons is not even!                   0
 ------------------------------------------------------------------------
 ------------------------------------------------------------------------
  current input line : 
     0: 
 ------------------------------------------------------------------------
 ------------------------------------------------------------------------
 There is an error in the input file
 ------------------------------------------------------------------------
 For more information see the NWChem manual at https://nwchemgit.github.io


 For further details see manual section:                                                                                                                                                                                                                                                                
 scf: no. of closed-shell electrons is not even!                   0
 ------------------------------------------------------------------------
 ------------------------------------------------------------------------
  current input line : 
     0: 
 ------------------------------------------------------------------------
 ------------------------------------------------------------------------
 There is an error in the input file
 ------------------------------------------------------------------------
 For more information see the NWChem manual at https://nwchemgit.github.io


 For further details see manual section:                                                                                                                                                                                                                                                                
 scf: no. of closed-shell electrons is not even!                   0
 ------------------------------------------------------------------------
 ------------------------------------------------------------------------
  current input line : 
     0: 
 ------------------------------------------------------------------------
 ------------------------------------------------------------------------
 There is an error in the input file
 ------------------------------------------------------------------------
 For more information see the NWChem manual at https://nwchemgit.github.io


 For further details see manual section:                                                                                                                                                                                                                                                                
 scf: no. of closed-shell electrons is not even!                   0
 ------------------------------------------------------------------------
 ------------------------------------------------------------------------
  current input line : 
     0: 
 ------------------------------------------------------------------------
 ------------------------------------------------------------------------
 There is an error in the input file
 ------------------------------------------------------------------------
 For more information see the NWChem manual at https://nwchemgit.github.io


 For further details see manual section:                                                                                                                                                                                                                                                                
 scf: no. of closed-shell electrons is not even!                   0
 ------------------------------------------------------------------------
 ------------------------------------------------------------------------
  current input line : 
     0: 
 ------------------------------------------------------------------------
 ------------------------------------------------------------------------
 There is an error in the input file
 ------------------------------------------------------------------------
 For more information see the NWChem manual at https://nwchemgit.github.io


 For further details see manual section:                                                                                                                                                                                                                                                                
 ------------------------------------------------------------------------
 For more information see the NWChem manual at https://nwchemgit.github.io


 For further details see manual section:                                                                                                                                                                                                                                                                
1:scf: no. of closed-shell electrons is not even!:Received an Error in Communication
2:scf: no. of closed-shell electrons is not even!:Received an Error in Communication
3:scf: no. of closed-shell electrons is not even!:Received an Error in Communication
4:scf: no. of closed-shell electrons is not even!:Received an Error in Communication
5:scf: no. of closed-shell electrons is not even!:Received an Error in Communication
6:scf: no. of closed-shell electrons is not even!:Received an Error in Communication
7:scf: no. of closed-shell electrons is not even!:Received an Error in Communication
--------------------------------------------------------------------------
MPI_ABORT was invoked on rank 1 in communicator MPI COMMUNICATOR 3 DUP FROM 0
with errorcode -1.

NOTE: invoking MPI_ABORT causes Open MPI to kill all MPI processes.
You may or may not see output from other processes, depending on
exactly when Open MPI kills them.
--------------------------------------------------------------------------
--------------------------------------------------------------------------
MPI_ABORT was invoked on rank 2 in communicator MPI COMMUNICATOR 3 DUP FROM 0
with errorcode -1.

NOTE: invoking MPI_ABORT causes Open MPI to kill all MPI processes.
You may or may not see output from other processes, depending on
exactly when Open MPI kills them.
--------------------------------------------------------------------------
--------------------------------------------------------------------------
MPI_ABORT was invoked on rank 3 in communicator MPI COMMUNICATOR 3 DUP FROM 0
with errorcode -1.

NOTE: invoking MPI_ABORT causes Open MPI to kill all MPI processes.
You may or may not see output from other processes, depending on
exactly when Open MPI kills them.
--------------------------------------------------------------------------
--------------------------------------------------------------------------
MPI_ABORT was invoked on rank 6 in communicator MPI COMMUNICATOR 3 DUP FROM 0
with errorcode -1.

NOTE: invoking MPI_ABORT causes Open MPI to kill all MPI processes.
You may or may not see output from other processes, depending on
exactly when Open MPI kills them.
--------------------------------------------------------------------------
--------------------------------------------------------------------------
MPI_ABORT was invoked on rank 4 in communicator MPI COMMUNICATOR 3 DUP FROM 0
with errorcode -1.

NOTE: invoking MPI_ABORT causes Open MPI to kill all MPI processes.
You may or may not see output from other processes, depending on
exactly when Open MPI kills them.
--------------------------------------------------------------------------
--------------------------------------------------------------------------
MPI_ABORT was invoked on rank 5 in communicator MPI COMMUNICATOR 3 DUP FROM 0
with errorcode -1.

NOTE: invoking MPI_ABORT causes Open MPI to kill all MPI processes.
You may or may not see output from other processes, depending on
exactly when Open MPI kills them.
--------------------------------------------------------------------------
--------------------------------------------------------------------------
MPI_ABORT was invoked on rank 7 in communicator MPI COMMUNICATOR 3 DUP FROM 0
with errorcode -1.

NOTE: invoking MPI_ABORT causes Open MPI to kill all MPI processes.
You may or may not see output from other processes, depending on
exactly when Open MPI kills them.
--------------------------------------------------------------------------
 scf: no. of closed-shell electrons is not even!                   0
 ------------------------------------------------------------------------
 ------------------------------------------------------------------------
  current input line : 
    47: task scf energy
 ------------------------------------------------------------------------
 ------------------------------------------------------------------------
 There is an error in the input file
 ------------------------------------------------------------------------
 For more information see the NWChem manual at https://nwchemgit.github.io


 For further details see manual section:                                                                                                                                                                                                                                                                
0:scf: no. of closed-shell electrons is not even!:Received an Error in Communication
--------------------------------------------------------------------------
MPI_ABORT was invoked on rank 0 in communicator MPI COMMUNICATOR 3 DUP FROM 0
with errorcode -1.

NOTE: invoking MPI_ABORT causes Open MPI to kill all MPI processes.
You may or may not see output from other processes, depending on
exactly when Open MPI kills them.
--------------------------------------------------------------------------
slurmstepd: error: *** STEP 6619389.102 ON nova21-speedy-11 CANCELLED AT 2025-07-11T03:00:05 ***
srun: Job step aborted: Waiting up to 32 seconds for job step to finish.
slurmstepd: error: --task-epilog failed status=9
srun: error: nova21-speedy-11: tasks 0,2-7: Killed
srun: error: nova21-speedy-11: task 1: Exited with exit code 255
