export TMOUT=5400
export TMPDIR=/tmp
export PTMPDIR=/tmp/ptmp
 argument  1 = inputs/ASP_ASN_0.nw



============================== echo of input deck ==============================
start ASP_ASN_0
geometry
H          5.83300       -2.81500       -3.38800
C          5.96900       -3.01400       -2.32700
H          7.03000       -3.02700       -2.08500
H          5.52100       -3.97000       -2.06500
C          5.29900       -1.92200       -1.53100
O          4.72400       -1.00600       -2.10400
N          5.40900       -2.01300       -0.21000
H          5.97500       -2.76900        0.17100
C          4.90100       -1.04400        0.77600
H          3.81300       -1.00100        0.72400
C          5.32400       -1.53000        2.17800
H          5.10800       -0.75500        2.91600
H          4.73200       -2.41000        2.43700
C          6.81300       -1.90600        2.22800
O          7.14400       -3.01100        1.74100
O          7.63700       -1.04600        2.60800
C          5.43800        0.38100        0.54900
O          4.71300        1.36300        0.70000
N          6.70700        0.48100        0.15500
H          7.23400       -0.38100        0.12300
C          7.43000        1.71700       -0.13500
H          6.98300        2.51900        0.45400
C          8.88700        1.54100        0.33900
H          9.47800        2.40400        0.03600
H          8.89400        1.49200        1.42800
C          9.55400        0.28400       -0.19600
O         10.15900        0.27300       -1.25400
N          9.45100       -0.82400        0.50100
H          8.90500       -0.85600        1.37200
H          9.86500       -1.65500        0.13300
C          7.31300        2.16600       -1.61000
O          7.90000        3.16900       -2.00700
N          6.55400        1.46600       -2.44600
H          6.48400        1.77200       -3.40000
H          6.02500        0.67200       -2.10900
end

basis
 * library aug-cc-pvdz
end

echo

scf
 direct
end

task scf energy
================================================================================


                                         
                                         


             Northwest Computational Chemistry Package (NWChem) 7.2.0
             --------------------------------------------------------


                    Environmental Molecular Sciences Laboratory
                       Pacific Northwest National Laboratory
                                Richland, WA 99352

                              Copyright (c) 1994-2022
                       Pacific Northwest National Laboratory
                            Battelle Memorial Institute

             NWChem is an open-source computational chemistry package
                        distributed under the terms of the
                      Educational Community License (ECL) 2.0
             A copy of the license is included with this distribution
                              in the LICENSE.TXT file

                                  ACKNOWLEDGMENT
                                  --------------

            This software and its documentation were developed at the
            EMSL at Pacific Northwest National Laboratory, a multiprogram
            national laboratory, operated for the U.S. Department of Energy
            by Battelle under Contract Number DE-AC05-76RL01830. Support
            for this work was provided by the Department of Energy Office
            of Biological and Environmental Research, Office of Basic
            Energy Sciences, and the Office of Advanced Scientific Computing.


           Job information
           ---------------

    hostname        = nova21-swift-1
    program         = /opt/rit/el9/20230413/app/linux-rhel9-x86_64_v3/gcc-11.2.1/nwchem-7.2.0-oxtctbuhfuzyfaoziquq6bki22grib3g/bin/nwchem
    date            = Thu Jul 10 14:03:18 2025

    compiled        = Wed_May_17_23:46:39_2023
    source          = /tmp/root/spack-stage/spack-stage-nwchem-7.2.0-oxtctbuhfuzyfaoziquq6bki22grib3g/spack-src
    nwchem branch   = 7.2.0
    nwchem revision = d0d141fd
    ga revision     = 5.8.0
    use scalapack   = T
    input           = inputs/ASP_ASN_0.nw
    prefix          = ASP_ASN_0.
    data base       = ./ASP_ASN_0.db
    status          = startup
    nproc           =        8
    time left       =     -1s



           Memory information
           ------------------

    heap     =   26214396 doubles =    200.0 Mbytes
    stack    =   26214401 doubles =    200.0 Mbytes
    global   =   52428800 doubles =    400.0 Mbytes (distinct from heap & stack)
    total    =  104857597 doubles =    800.0 Mbytes
    verify   = yes
    hardfail = no 


           Directory information
           ---------------------

  0 permanent = .
  0 scratch   = .




                                NWChem Input Module
                                -------------------



 Scaling coordinates for geometry "geometry" by  1.889725989
 (inverse scale =  0.529177249)

 C1  symmetry detected

          ------
          auto-z
          ------
  no constraints, skipping    0.0000000000000000     
  no constraints, skipping    0.0000000000000000     


                             Geometry "geometry" -> ""
                             -------------------------

 Output coordinates in angstroms (scale by  1.889725989 to convert to a.u.)

  No.       Tag          Charge          X              Y              Z
 ---- ---------------- ---------- -------------- -------------- --------------
    1 H                    1.0000    -2.63424846    -1.09736554    -3.18771681
    2 C                    6.0000    -1.81210049    -1.62789443    -2.71187039
    3 H                    1.0000    -0.86172162    -1.22101018    -3.05198686
    4 H                    1.0000    -1.86348007    -2.68820768    -2.94931505
    5 C                    6.0000    -1.91227658    -1.45298311    -1.21709590
    6 O                    8.0000    -2.82231402    -0.79263968    -0.73357919
    7 N                    7.0000    -0.95079692    -2.02251606    -0.49833929
    8 H                    1.0000    -0.19214068    -2.48433322    -0.99655473
    9 C                    6.0000    -0.79128019    -1.94224057     0.96362215
   10 H                    1.0000    -1.64018190    -2.41897918     1.45391104
   11 C                    6.0000     0.50175822    -2.69514933     1.34033035
   12 H                    1.0000     0.73767702    -2.51679003     2.39126103
   13 H                    1.0000     0.33251339    -3.76637588     1.21473239
   14 C                    6.0000     1.68599045    -2.27656568     0.45524350
   15 O                    8.0000     1.73866495    -2.75651200    -0.70001921
   16 O                    8.0000     2.45063782    -1.37512159     0.86229259
   17 C                    6.0000    -0.70443127    -0.49416934     1.47944185
   18 O                    8.0000    -1.25731146    -0.16000072     2.52605775
   19 N                    7.0000    -0.03067454     0.36733976     0.71822510
   20 H                    1.0000     0.43937495    -0.02157183    -0.08775148
   21 C                    6.0000     0.17483497     1.78801378     0.99021072
   22 H                    1.0000     0.13769567     1.93664826     2.07023964
   23 C                    6.0000     1.59128645     2.16634517     0.51163829
   24 H                    1.0000     1.73278660     3.24251205     0.59939678
   25 H                    1.0000     2.31864153     1.67587465     1.15875827
   26 C                    6.0000     1.87988580     1.75430219    -0.92296758
   27 O                    8.0000     1.63529739     2.48479535    -1.86746018
   28 N                    7.0000     2.38892677     0.56386878    -1.14166276
   29 H                    1.0000     2.55931945    -0.09234632    -0.36827471
   30 H                    1.0000     2.55024245     0.28430129    -2.08675549
   31 C                    6.0000    -0.93424709     2.69266565     0.40501250
   32 O                    8.0000    -0.87363204     3.91342326     0.52444312
   33 N                    7.0000    -1.96890331     2.13653299    -0.21561618
   34 H                    1.0000    -2.68380168     2.73635103    -0.58681780
   35 H                    1.0000    -2.04980343     1.12921123    -0.26664614

      Atomic Mass 
      ----------- 

      H                  1.007825
      C                 12.000000
      O                 15.994910
      N                 14.003070


 Effective nuclear repulsion energy (a.u.)    1750.0477013639

            Nuclear Dipole moment (a.u.) 
            ----------------------------
        X                 Y               Z
 ---------------- ---------------- ----------------
     0.0000000000     0.0000000000    -0.0000000000



                                Z-matrix (autoz)
                                -------- 

 Units are Angstrom for bonds and degrees for angles

      Type          Name      I     J     K     L     M      Value
      ----------- --------  ----- ----- ----- ----- ----- ----------
    1 Stretch                  1     2                       1.08803
    2 Stretch                  2     3                       1.08833
    3 Stretch                  2     4                       1.08779
    4 Stretch                  2     5                       1.50830
    5 Stretch                  5     6                       1.22393
    6 Stretch                  5     7                       1.32869
    7 Stretch                  7     8                       1.01836
    8 Stretch                  7     9                       1.47283
    9 Stretch                  9    10                       1.09009
   10 Stretch                  9    11                       1.54296
   11 Stretch                  9    17                       1.53965
   12 Stretch                 11    12                       1.09175
   13 Stretch                 11    13                       1.09176
   14 Stretch                 11    14                       1.53655
   15 Stretch                 14    15                       1.25210
   16 Stretch                 14    16                       1.25019
   17 Stretch                 17    18                       1.22994
   18 Stretch                 17    19                       1.33252
   19 Stretch                 19    20                       1.01084
   20 Stretch                 19    21                       1.46100
   21 Stretch                 21    22                       1.09084
   22 Stretch                 21    23                       1.54224
   23 Stretch                 21    31                       1.54626
   24 Stretch                 23    24                       1.08897
   25 Stretch                 23    25                       1.09012
   26 Stretch                 23    26                       1.52025
   27 Stretch                 26    27                       1.21881
   28 Stretch                 26    28                       1.31304
   29 Stretch                 28    29                       1.02848
   30 Stretch                 28    30                       0.99869
   31 Stretch                 31    32                       1.22808
   32 Stretch                 31    33                       1.32852
   33 Stretch                 33    34                       1.00432
   34 Stretch                 33    35                       1.01185
   35 Bend                     1     2     3               109.93033
   36 Bend                     1     2     4               110.12883
   37 Bend                     1     2     5               109.06806
   38 Bend                     2     5     6               120.22903
   39 Bend                     2     5     7               115.99737
   40 Bend                     3     2     4               109.72156
   41 Bend                     3     2     5               108.92638
   42 Bend                     4     2     5               109.03972
   43 Bend                     5     7     8               117.95793
   44 Bend                     5     7     9               126.29696
   45 Bend                     6     5     7               123.75232
   46 Bend                     7     9    10               109.77156
   47 Bend                     7     9    11               107.84917
   48 Bend                     7     9    17               112.94977
   49 Bend                     8     7     9               115.44572
   50 Bend                     9    11    12               109.65701
   51 Bend                     9    11    13               108.71057
   52 Bend                     9    11    14               111.85801
   53 Bend                     9    17    18               121.01528
   54 Bend                     9    17    19               116.43661
   55 Bend                    10     9    11               109.23186
   56 Bend                    10     9    17               107.73228
   57 Bend                    11     9    17               109.26107
   58 Bend                    11    14    15               117.35311
   59 Bend                    11    14    16               118.70252
   60 Bend                    12    11    13               107.73019
   61 Bend                    12    11    14               110.08625
   62 Bend                    13    11    14               108.69327
   63 Bend                    15    14    16               123.44006
   64 Bend                    17    19    20               116.22278
   65 Bend                    17    19    21               126.40275
   66 Bend                    18    17    19               122.53034
   67 Bend                    19    21    22               108.18133
   68 Bend                    19    21    23               108.05706
   69 Bend                    19    21    31               113.42576
   70 Bend                    20    19    21               117.20311
   71 Bend                    21    23    24               109.67974
   72 Bend                    21    23    25               108.55557
   73 Bend                    21    23    26               113.62151
   74 Bend                    21    31    32               120.62129
   75 Bend                    21    31    33               119.37336
   76 Bend                    22    21    23               107.76289
   77 Bend                    22    21    31               105.69825
   78 Bend                    23    21    31               113.44096
   79 Bend                    23    26    27               122.05479
   80 Bend                    23    26    28               118.45680
   81 Bend                    24    23    25               108.06489
   82 Bend                    24    23    26               108.61638
   83 Bend                    25    23    26               108.15386
   84 Bend                    26    28    29               121.16103
   85 Bend                    26    28    30               118.29640
   86 Bend                    27    26    28               119.47942
   87 Bend                    29    28    30               120.41384
   88 Bend                    31    33    34               118.49123
   89 Bend                    31    33    35               120.16962
   90 Bend                    32    31    33               119.99887
   91 Bend                    34    33    35               121.26609
   92 Torsion                  1     2     5     6          -0.06059
   93 Torsion                  1     2     5     7        -178.44469
   94 Torsion                  2     5     7     8           3.52523
   95 Torsion                  2     5     7     9         176.92894
   96 Torsion                  3     2     5     6         119.92636
   97 Torsion                  3     2     5     7         -58.45774
   98 Torsion                  4     2     5     6        -120.35677
   99 Torsion                  4     2     5     7          61.25913
  100 Torsion                  5     7     9    10          63.95610
  101 Torsion                  5     7     9    11        -177.13117
  102 Torsion                  5     7     9    17         -56.28765
  103 Torsion                  6     5     7     8        -174.79554
  104 Torsion                  6     5     7     9          -1.39183
  105 Torsion                  7     9    11    12         170.73771
  106 Torsion                  7     9    11    13         -71.71985
  107 Torsion                  7     9    11    14          48.31052
  108 Torsion                  7     9    17    18         140.60493
  109 Torsion                  7     9    17    19         -37.89960
  110 Torsion                  8     7     9    10        -122.49567
  111 Torsion                  8     7     9    11          -3.58294
  112 Torsion                  8     7     9    17         117.26059
  113 Torsion                  9    11    14    15         -77.81219
  114 Torsion                  9    11    14    16          94.32546
  115 Torsion                  9    17    19    20          -5.57523
  116 Torsion                  9    17    19    21         179.34249
  117 Torsion                 10     9    11    12         -70.00594
  118 Torsion                 10     9    11    13          47.53650
  119 Torsion                 10     9    11    14         167.56688
  120 Torsion                 10     9    17    18          19.20082
  121 Torsion                 10     9    17    19        -159.30370
  122 Torsion                 11     9    17    18         -99.35806
  123 Torsion                 11     9    17    19          82.13741
  124 Torsion                 12    11     9    17          47.61378
  125 Torsion                 12    11    14    15         160.00599
  126 Torsion                 12    11    14    16         -27.85636
  127 Torsion                 13    11     9    17         165.15621
  128 Torsion                 13    11    14    15          42.22832
  129 Torsion                 13    11    14    16        -145.63403
  130 Torsion                 14    11     9    17         -74.81341
  131 Torsion                 17    19    21    22          27.23680
  132 Torsion                 17    19    21    23         143.64845
  133 Torsion                 17    19    21    31         -89.67818
  134 Torsion                 18    17    19    20         175.94494
  135 Torsion                 18    17    19    21           0.86266
  136 Torsion                 19    21    23    24         173.72990
  137 Torsion                 19    21    23    25         -68.40159
  138 Torsion                 19    21    23    26          51.96382
  139 Torsion                 19    21    31    32        -178.00250
  140 Torsion                 19    21    31    33           2.92286
  141 Torsion                 20    19    21    22        -147.80285
  142 Torsion                 20    19    21    23         -31.39119
  143 Torsion                 20    19    21    31          95.28218
  144 Torsion                 21    23    26    27          89.30094
  145 Torsion                 21    23    26    28         -89.60236
  146 Torsion                 21    31    33    34         179.71182
  147 Torsion                 21    31    33    35           2.78051
  148 Torsion                 22    21    23    24         -69.58676
  149 Torsion                 22    21    23    25          48.28175
  150 Torsion                 22    21    23    26         168.64715
  151 Torsion                 22    21    31    32          63.63799
  152 Torsion                 22    21    31    33        -115.43665
  153 Torsion                 23    21    31    32         -54.21902
  154 Torsion                 23    21    31    33         126.70634
  155 Torsion                 23    26    28    29           2.17686
  156 Torsion                 23    26    28    30         178.06825
  157 Torsion                 24    23    21    31          47.06539
  158 Torsion                 24    23    26    27         -33.05464
  159 Torsion                 24    23    26    28         148.04206
  160 Torsion                 25    23    21    31         164.93390
  161 Torsion                 25    23    26    27        -150.10720
  162 Torsion                 25    23    26    28          30.98950
  163 Torsion                 26    23    21    31         -74.70070
  164 Torsion                 27    26    28    29        -176.75541
  165 Torsion                 27    26    28    30          -0.86402
  166 Torsion                 32    31    33    34           0.63132
  167 Torsion                 32    31    33    35        -176.30000


            XYZ format geometry
            -------------------
    35
 geometry
 H                    -2.63424846    -1.09736554    -3.18771681
 C                    -1.81210049    -1.62789443    -2.71187039
 H                    -0.86172162    -1.22101018    -3.05198686
 H                    -1.86348007    -2.68820768    -2.94931505
 C                    -1.91227658    -1.45298311    -1.21709590
 O                    -2.82231402    -0.79263968    -0.73357919
 N                    -0.95079692    -2.02251606    -0.49833929
 H                    -0.19214068    -2.48433322    -0.99655473
 C                    -0.79128019    -1.94224057     0.96362215
 H                    -1.64018190    -2.41897918     1.45391104
 C                     0.50175822    -2.69514933     1.34033035
 H                     0.73767702    -2.51679003     2.39126103
 H                     0.33251339    -3.76637588     1.21473239
 C                     1.68599045    -2.27656568     0.45524350
 O                     1.73866495    -2.75651200    -0.70001921
 O                     2.45063782    -1.37512159     0.86229259
 C                    -0.70443127    -0.49416934     1.47944185
 O                    -1.25731146    -0.16000072     2.52605775
 N                    -0.03067454     0.36733976     0.71822510
 H                     0.43937495    -0.02157183    -0.08775148
 C                     0.17483497     1.78801378     0.99021072
 H                     0.13769567     1.93664826     2.07023964
 C                     1.59128645     2.16634517     0.51163829
 H                     1.73278660     3.24251205     0.59939678
 H                     2.31864153     1.67587465     1.15875827
 C                     1.87988580     1.75430219    -0.92296758
 O                     1.63529739     2.48479535    -1.86746018
 N                     2.38892677     0.56386878    -1.14166276
 H                     2.55931945    -0.09234632    -0.36827471
 H                     2.55024245     0.28430129    -2.08675549
 C                    -0.93424709     2.69266565     0.40501250
 O                    -0.87363204     3.91342326     0.52444312
 N                    -1.96890331     2.13653299    -0.21561618
 H                    -2.68380168     2.73635103    -0.58681780
 H                    -2.04980343     1.12921123    -0.26664614

 ==============================================================================
                                internuclear distances
 ------------------------------------------------------------------------------
       center one      |      center two      | atomic units |  angstroms
 ------------------------------------------------------------------------------
    2 C                |   1 H                |     2.05609  |     1.08803
    3 H                |   2 C                |     2.05664  |     1.08833
    4 H                |   2 C                |     2.05562  |     1.08779
    5 C                |   2 C                |     2.85028  |     1.50830
    6 O                |   5 C                |     2.31290  |     1.22393
    7 N                |   5 C                |     2.51086  |     1.32869
    8 H                |   7 N                |     1.92442  |     1.01836
    9 C                |   7 N                |     2.78324  |     1.47283
   10 H                |   9 C                |     2.05997  |     1.09009
   11 C                |   9 C                |     2.91577  |     1.54296
   12 H                |  11 C                |     2.06311  |     1.09175
   13 H                |  11 C                |     2.06313  |     1.09176
   14 C                |  11 C                |     2.90367  |     1.53655
   15 O                |  14 C                |     2.36613  |     1.25210
   16 O                |  14 C                |     2.36252  |     1.25019
   17 C                |   9 C                |     2.90952  |     1.53965
   18 O                |  17 C                |     2.32425  |     1.22994
   19 N                |  17 C                |     2.51809  |     1.33252
   20 H                |  19 N                |     1.91021  |     1.01084
   21 C                |  19 N                |     2.76089  |     1.46100
   22 H                |  21 C                |     2.06139  |     1.09084
   23 C                |  21 C                |     2.91441  |     1.54224
   24 H                |  23 C                |     2.05786  |     1.08897
   25 H                |  23 C                |     2.06004  |     1.09012
   26 C                |  23 C                |     2.87286  |     1.52025
   27 O                |  26 C                |     2.30323  |     1.21881
   28 N                |  26 C                |     2.48129  |     1.31304
   29 H                |  28 N                |     1.94355  |     1.02848
   30 H                |  28 N                |     1.88725  |     0.99869
   31 C                |  21 C                |     2.92200  |     1.54626
   32 O                |  31 C                |     2.32074  |     1.22808
   33 N                |  31 C                |     2.51055  |     1.32852
   34 H                |  33 N                |     1.89788  |     1.00432
   35 H                |  33 N                |     1.91212  |     1.01185
 ------------------------------------------------------------------------------
                         number of included internuclear distances:         34
 ==============================================================================



 ==============================================================================
                                 internuclear angles
 ------------------------------------------------------------------------------
        center 1       |       center 2       |       center 3       |  degrees
 ------------------------------------------------------------------------------
    1 H                |   2 C                |   3 H                |   109.93
    1 H                |   2 C                |   4 H                |   110.13
    1 H                |   2 C                |   5 C                |   109.07
    3 H                |   2 C                |   4 H                |   109.72
    3 H                |   2 C                |   5 C                |   108.93
    4 H                |   2 C                |   5 C                |   109.04
    2 C                |   5 C                |   6 O                |   120.23
    2 C                |   5 C                |   7 N                |   116.00
    6 O                |   5 C                |   7 N                |   123.75
    5 C                |   7 N                |   8 H                |   117.96
    5 C                |   7 N                |   9 C                |   126.30
    8 H                |   7 N                |   9 C                |   115.45
    7 N                |   9 C                |  10 H                |   109.77
    7 N                |   9 C                |  11 C                |   107.85
    7 N                |   9 C                |  17 C                |   112.95
   10 H                |   9 C                |  11 C                |   109.23
   10 H                |   9 C                |  17 C                |   107.73
   11 C                |   9 C                |  17 C                |   109.26
    9 C                |  11 C                |  12 H                |   109.66
    9 C                |  11 C                |  13 H                |   108.71
    9 C                |  11 C                |  14 C                |   111.86
   12 H                |  11 C                |  13 H                |   107.73
   12 H                |  11 C                |  14 C                |   110.09
   13 H                |  11 C                |  14 C                |   108.69
   11 C                |  14 C                |  15 O                |   117.35
   11 C                |  14 C                |  16 O                |   118.70
   15 O                |  14 C                |  16 O                |   123.44
    9 C                |  17 C                |  18 O                |   121.02
    9 C                |  17 C                |  19 N                |   116.44
   18 O                |  17 C                |  19 N                |   122.53
   17 C                |  19 N                |  20 H                |   116.22
   17 C                |  19 N                |  21 C                |   126.40
   20 H                |  19 N                |  21 C                |   117.20
   19 N                |  21 C                |  22 H                |   108.18
   19 N                |  21 C                |  23 C                |   108.06
   19 N                |  21 C                |  31 C                |   113.43
   22 H                |  21 C                |  23 C                |   107.76
   22 H                |  21 C                |  31 C                |   105.70
   23 C                |  21 C                |  31 C                |   113.44
   21 C                |  23 C                |  24 H                |   109.68
   21 C                |  23 C                |  25 H                |   108.56
   21 C                |  23 C                |  26 C                |   113.62
   24 H                |  23 C                |  25 H                |   108.06
   24 H                |  23 C                |  26 C                |   108.62
   25 H                |  23 C                |  26 C                |   108.15
   23 C                |  26 C                |  27 O                |   122.05
   23 C                |  26 C                |  28 N                |   118.46
   27 O                |  26 C                |  28 N                |   119.48
   26 C                |  28 N                |  29 H                |   121.16
   26 C                |  28 N                |  30 H                |   118.30
   29 H                |  28 N                |  30 H                |   120.41
   21 C                |  31 C                |  32 O                |   120.62
   21 C                |  31 C                |  33 N                |   119.37
   32 O                |  31 C                |  33 N                |   120.00
   31 C                |  33 N                |  34 H                |   118.49
   31 C                |  33 N                |  35 H                |   120.17
   34 H                |  33 N                |  35 H                |   121.27
 ------------------------------------------------------------------------------
                            number of included internuclear angles:         57
 ==============================================================================



  library name resolved from: environment
  library file name is: </opt/rit/el9/20230413/app/linux-rhel9-x86_64_v3/gcc-11.2.1/nwchem-7.2.0-oxtctbuhfuzyfaoziquq6bki22grib3g/share/nwchem/libraries/>
  


 Summary of "ao basis" -> "" (cartesian)
 ------------------------------------------------------------------------------
       Tag                 Description            Shells   Functions and Types
 ---------------- ------------------------------  ------  ---------------------
 *                        aug-cc-pvdz                 on all atoms 


                      Basis "ao basis" -> "ao basis" (cartesian)
                      -----
  H (Hydrogen)
  ------------
            Exponent  Coefficients 
       -------------- ---------------------------------------------------------
  1 S  1.30100000E+01  0.019685
  1 S  1.96200000E+00  0.137977
  1 S  4.44600000E-01  0.478148

  2 S  1.22000000E-01  1.000000

  3 S  2.97400000E-02  1.000000

  4 P  7.27000000E-01  1.000000

  5 P  1.41000000E-01  1.000000

  C (Carbon)
  ----------
            Exponent  Coefficients 
       -------------- ---------------------------------------------------------
  1 S  6.66500000E+03  0.000692
  1 S  1.00000000E+03  0.005329
  1 S  2.28000000E+02  0.027077
  1 S  6.47100000E+01  0.101718
  1 S  2.10600000E+01  0.274740
  1 S  7.49500000E+00  0.448564
  1 S  2.79700000E+00  0.285074
  1 S  5.21500000E-01  0.015204

  2 S  6.66500000E+03 -0.000146
  2 S  1.00000000E+03 -0.001154
  2 S  2.28000000E+02 -0.005725
  2 S  6.47100000E+01 -0.023312
  2 S  2.10600000E+01 -0.063955
  2 S  7.49500000E+00 -0.149981
  2 S  2.79700000E+00 -0.127262
  2 S  5.21500000E-01  0.544529

  3 S  1.59600000E-01  1.000000

  4 S  4.69000000E-02  1.000000

  5 P  9.43900000E+00  0.038109
  5 P  2.00200000E+00  0.209480
  5 P  5.45600000E-01  0.508557

  6 P  1.51700000E-01  1.000000

  7 P  4.04100000E-02  1.000000

  8 D  5.50000000E-01  1.000000

  9 D  1.51000000E-01  1.000000

  O (Oxygen)
  ----------
            Exponent  Coefficients 
       -------------- ---------------------------------------------------------
  1 S  1.17200000E+04  0.000710
  1 S  1.75900000E+03  0.005470
  1 S  4.00800000E+02  0.027837
  1 S  1.13700000E+02  0.104800
  1 S  3.70300000E+01  0.283062
  1 S  1.32700000E+01  0.448719
  1 S  5.02500000E+00  0.270952
  1 S  1.01300000E+00  0.015458

  2 S  1.17200000E+04 -0.000160
  2 S  1.75900000E+03 -0.001263
  2 S  4.00800000E+02 -0.006267
  2 S  1.13700000E+02 -0.025716
  2 S  3.70300000E+01 -0.070924
  2 S  1.32700000E+01 -0.165411
  2 S  5.02500000E+00 -0.116955
  2 S  1.01300000E+00  0.557368

  3 S  3.02300000E-01  1.000000

  4 S  7.89600000E-02  1.000000

  5 P  1.77000000E+01  0.043018
  5 P  3.85400000E+00  0.228913
  5 P  1.04600000E+00  0.508728

  6 P  2.75300000E-01  1.000000

  7 P  6.85600000E-02  1.000000

  8 D  1.18500000E+00  1.000000

  9 D  3.32000000E-01  1.000000

  N (Nitrogen)
  ------------
            Exponent  Coefficients 
       -------------- ---------------------------------------------------------
  1 S  9.04600000E+03  0.000700
  1 S  1.35700000E+03  0.005389
  1 S  3.09300000E+02  0.027406
  1 S  8.77300000E+01  0.103207
  1 S  2.85600000E+01  0.278723
  1 S  1.02100000E+01  0.448540
  1 S  3.83800000E+00  0.278238
  1 S  7.46600000E-01  0.015440

  2 S  9.04600000E+03 -0.000153
  2 S  1.35700000E+03 -0.001208
  2 S  3.09300000E+02 -0.005992
  2 S  8.77300000E+01 -0.024544
  2 S  2.85600000E+01 -0.067459
  2 S  1.02100000E+01 -0.158078
  2 S  3.83800000E+00 -0.121831
  2 S  7.46600000E-01  0.549003

  3 S  2.24800000E-01  1.000000

  4 S  6.12400000E-02  1.000000

  5 P  1.35500000E+01  0.039919
  5 P  2.91700000E+00  0.217169
  5 P  7.97300000E-01  0.510319

  6 P  2.18500000E-01  1.000000

  7 P  5.61100000E-02  1.000000

  8 D  8.17000000E-01  1.000000

  9 D  2.30000000E-01  1.000000



 Summary of "ao basis" -> "ao basis" (cartesian)
 ------------------------------------------------------------------------------
       Tag                 Description            Shells   Functions and Types
 ---------------- ------------------------------  ------  ---------------------
 H                        aug-cc-pvdz                5        9   3s2p
 C                        aug-cc-pvdz                9       25   4s3p2d
 O                        aug-cc-pvdz                9       25   4s3p2d
 N                        aug-cc-pvdz                9       25   4s3p2d


 ------------------------------------------------------------------------
 scf: no. of closed-shell electrons is not even!                   0
 ------------------------------------------------------------------------
 ------------------------------------------------------------------------
 scf: no. of closed-shell electrons is not even!                   0
 ------------------------------------------------------------------------
 ------------------------------------------------------------------------
  current input line : 
     0: 
 scf: no. of closed-shell electrons is not even!                   0
 ------------------------------------------------------------------------
 ------------------------------------------------------------------------
  current input line : 
     0: 
 ------------------------------------------------------------------------
 ------------------------------------------------------------------------
 scf: no. of closed-shell electrons is not even!                   0
 ------------------------------------------------------------------------
 ------------------------------------------------------------------------
  current input line : 
     0: 
 ------------------------------------------------------------------------
 ------------------------------------------------------------------------
 There is an error in the input file
 ------------------------------------------------------------------------
 For more information see the NWChem manual at https://nwchemgit.github.io


 For further details see manual section:                                                                                                                                                                                                                                                                
 scf: no. of closed-shell electrons is not even!                   0
 ------------------------------------------------------------------------
 ------------------------------------------------------------------------
  current input line : 
     0: 
 ------------------------------------------------------------------------
 ------------------------------------------------------------------------
 There is an error in the input file
 ------------------------------------------------------------------------
 For more information see the NWChem manual at https://nwchemgit.github.io


 For further details see manual section:                                                                                                                                                                                                                                                                
 scf: no. of closed-shell electrons is not even!                   0
 ------------------------------------------------------------------------
 ------------------------------------------------------------------------
  current input line : 
     0: 
 ------------------------------------------------------------------------
 ------------------------------------------------------------------------
 There is an error in the input file
 ------------------------------------------------------------------------
 For more information see the NWChem manual at https://nwchemgit.github.io


 For further details see manual section:                                                                                                                                                                                                                                                                
 scf: no. of closed-shell electrons is not even!                   0
 ------------------------------------------------------------------------
 ------------------------------------------------------------------------
  current input line : 
     0: 
 ------------------------------------------------------------------------
 ------------------------------------------------------------------------
 There is an error in the input file
 ------------------------------------------------------------------------
 For more information see the NWChem manual at https://nwchemgit.github.io


 For further details see manual section:                                                                                                                                                                                                                                                                
  current input line : 
     0: 
 ------------------------------------------------------------------------
 ------------------------------------------------------------------------
 There is an error in the input file
 ------------------------------------------------------------------------
 For more information see the NWChem manual at https://nwchemgit.github.io


 For further details see manual section:                                                                                                                                                                                                                                                                
1:scf: no. of closed-shell electrons is not even!:Received an Error in Communication
 ------------------------------------------------------------------------
 ------------------------------------------------------------------------
 There is an error in the input file
 ------------------------------------------------------------------------
 For more information see the NWChem manual at https://nwchemgit.github.io


 For further details see manual section:                                                                                                                                                                                                                                                                
2:scf: no. of closed-shell electrons is not even!:Received an Error in Communication
 There is an error in the input file
 ------------------------------------------------------------------------
 For more information see the NWChem manual at https://nwchemgit.github.io


 For further details see manual section:                                                                                                                                                                                                                                                                
3:scf: no. of closed-shell electrons is not even!:Received an Error in Communication
4:scf: no. of closed-shell electrons is not even!:Received an Error in Communication
5:scf: no. of closed-shell electrons is not even!:Received an Error in Communication
6:scf: no. of closed-shell electrons is not even!:Received an Error in Communication
7:scf: no. of closed-shell electrons is not even!:Received an Error in Communication
 scf: no. of closed-shell electrons is not even!                   0
 ------------------------------------------------------------------------
 ------------------------------------------------------------------------
  current input line : 
    50: task scf energy
 ------------------------------------------------------------------------
 ------------------------------------------------------------------------
 There is an error in the input file
 ------------------------------------------------------------------------
 For more information see the NWChem manual at https://nwchemgit.github.io


 For further details see manual section:                                                                                                                                                                                                                                                                
0:scf: no. of closed-shell electrons is not even!:Received an Error in Communication
--------------------------------------------------------------------------
MPI_ABORT was invoked on rank 0 in communicator MPI COMMUNICATOR 3 DUP FROM 0
with errorcode -1.

NOTE: invoking MPI_ABORT causes Open MPI to kill all MPI processes.
You may or may not see output from other processes, depending on
exactly when Open MPI kills them.
--------------------------------------------------------------------------
--------------------------------------------------------------------------
MPI_ABORT was invoked on rank 1 in communicator MPI COMMUNICATOR 3 DUP FROM 0
with errorcode -1.

NOTE: invoking MPI_ABORT causes Open MPI to kill all MPI processes.
You may or may not see output from other processes, depending on
exactly when Open MPI kills them.
--------------------------------------------------------------------------
--------------------------------------------------------------------------
MPI_ABORT was invoked on rank 5 in communicator MPI COMMUNICATOR 3 DUP FROM 0
with errorcode -1.

NOTE: invoking MPI_ABORT causes Open MPI to kill all MPI processes.
You may or may not see output from other processes, depending on
exactly when Open MPI kills them.
--------------------------------------------------------------------------
--------------------------------------------------------------------------
MPI_ABORT was invoked on rank 6 in communicator MPI COMMUNICATOR 3 DUP FROM 0
with errorcode -1.

NOTE: invoking MPI_ABORT causes Open MPI to kill all MPI processes.
You may or may not see output from other processes, depending on
exactly when Open MPI kills them.
--------------------------------------------------------------------------
--------------------------------------------------------------------------
MPI_ABORT was invoked on rank 7 in communicator MPI COMMUNICATOR 3 DUP FROM 0
with errorcode -1.

NOTE: invoking MPI_ABORT causes Open MPI to kill all MPI processes.
You may or may not see output from other processes, depending on
exactly when Open MPI kills them.
--------------------------------------------------------------------------
--------------------------------------------------------------------------
MPI_ABORT was invoked on rank 2 in communicator MPI COMMUNICATOR 3 DUP FROM 0
with errorcode -1.

NOTE: invoking MPI_ABORT causes Open MPI to kill all MPI processes.
You may or may not see output from other processes, depending on
exactly when Open MPI kills them.
--------------------------------------------------------------------------
--------------------------------------------------------------------------
MPI_ABORT was invoked on rank 3 in communicator MPI COMMUNICATOR 3 DUP FROM 0
with errorcode -1.

NOTE: invoking MPI_ABORT causes Open MPI to kill all MPI processes.
You may or may not see output from other processes, depending on
exactly when Open MPI kills them.
--------------------------------------------------------------------------
--------------------------------------------------------------------------
MPI_ABORT was invoked on rank 4 in communicator MPI COMMUNICATOR 3 DUP FROM 0
with errorcode -1.

NOTE: invoking MPI_ABORT causes Open MPI to kill all MPI processes.
You may or may not see output from other processes, depending on
exactly when Open MPI kills them.
--------------------------------------------------------------------------
slurmstepd: error: *** STEP 6619389.86 ON nova21-swift-1 CANCELLED AT 2025-07-10T14:03:18 ***
srun: Job step aborted: Waiting up to 32 seconds for job step to finish.
slurmstepd: error: --task-epilog failed status=9
srun: error: nova21-swift-1: tasks 0-7: Killed
