export TMOUT=5400
export TMPDIR=/tmp
export PTMPDIR=/tmp/ptmp
 argument  1 = inputs/ASP_GLN_3.nw



============================== echo of input deck ==============================
start ASP_GLN_3
geometry
H         24.90500       11.06000        0.36200
C         25.35100       10.65300       -0.54300
H         26.07500        9.88200       -0.28400
H         25.83800       11.44600       -1.10700
C         24.26400       10.04300       -1.39400
O         24.06500       10.46000       -2.52700
N         23.57900        9.05100       -0.83800
H         23.79900        8.78200        0.11500
C         22.40600        8.38700       -1.42100
H         22.50500        8.35800       -2.50700
C         22.34300        6.93500       -0.89000
H         21.47100        6.44900       -1.33000
H         23.22600        6.40200       -1.24500
C         22.27800        6.78400        0.64600
O         21.72300        5.76500        1.10400
O         22.69100        7.71100        1.38600
C         21.09500        9.13100       -1.09100
O         20.27600        9.40500       -1.96500
N         20.91300        9.43900        0.19300
H         21.64400        9.10200        0.81300
C         19.77600       10.11800        0.81800
H         19.53900       11.00800        0.23400
C         18.53000        9.20000        0.81900
H         17.75300        9.66200        1.43100
H         18.14800        9.17300       -0.20200
C         18.71700        7.73500        1.26900
H         17.78800        7.20000        1.07600
H         19.48300        7.25800        0.66000
C         19.04000        7.55600        2.74900
O         18.37500        8.08300        3.62600
N         20.05400        6.79800        3.09700
H         20.66800        6.38200        2.38500
H         20.25500        6.71700        4.07100
C         20.12800       10.59600        2.24200
O         19.56100       11.56800        2.72900
N         21.10000        9.98300        2.91500
H         21.30200       10.30000        3.84600
H         21.55800        9.16300        2.53200
end

basis
 * library aug-cc-pvdz
end

echo

scf
 direct
end

task scf energy
================================================================================


                                         
                                         


             Northwest Computational Chemistry Package (NWChem) 7.2.0
             --------------------------------------------------------


                    Environmental Molecular Sciences Laboratory
                       Pacific Northwest National Laboratory
                                Richland, WA 99352

                              Copyright (c) 1994-2022
                       Pacific Northwest National Laboratory
                            Battelle Memorial Institute

             NWChem is an open-source computational chemistry package
                        distributed under the terms of the
                      Educational Community License (ECL) 2.0
             A copy of the license is included with this distribution
                              in the LICENSE.TXT file

                                  ACKNOWLEDGMENT
                                  --------------

            This software and its documentation were developed at the
            EMSL at Pacific Northwest National Laboratory, a multiprogram
            national laboratory, operated for the U.S. Department of Energy
            by Battelle under Contract Number DE-AC05-76RL01830. Support
            for this work was provided by the Department of Energy Office
            of Biological and Environmental Research, Office of Basic
            Energy Sciences, and the Office of Advanced Scientific Computing.


           Job information
           ---------------

    hostname        = nova21-swift-2
    program         = /opt/rit/el9/20230413/app/linux-rhel9-x86_64_v3/gcc-11.2.1/nwchem-7.2.0-oxtctbuhfuzyfaoziquq6bki22grib3g/bin/nwchem
    date            = Fri Jul 11 03:00:04 2025

    compiled        = Wed_May_17_23:46:39_2023
    source          = /tmp/root/spack-stage/spack-stage-nwchem-7.2.0-oxtctbuhfuzyfaoziquq6bki22grib3g/spack-src
    nwchem branch   = 7.2.0
    nwchem revision = d0d141fd
    ga revision     = 5.8.0
    use scalapack   = T
    input           = inputs/ASP_GLN_3.nw
    prefix          = ASP_GLN_3.
    data base       = ./ASP_GLN_3.db
    status          = startup
    nproc           =        8
    time left       =     -1s



           Memory information
           ------------------

    heap     =   26214396 doubles =    200.0 Mbytes
    stack    =   26214401 doubles =    200.0 Mbytes
    global   =   52428800 doubles =    400.0 Mbytes (distinct from heap & stack)
    total    =  104857597 doubles =    800.0 Mbytes
    verify   = yes
    hardfail = no 


           Directory information
           ---------------------

  0 permanent = .
  0 scratch   = .




                                NWChem Input Module
                                -------------------



 Scaling coordinates for geometry "geometry" by  1.889725989
 (inverse scale =  0.529177249)

 C1  symmetry detected

          ------
          auto-z
          ------
  no constraints, skipping    0.0000000000000000     
  no constraints, skipping    0.0000000000000000     


                             Geometry "geometry" -> ""
                             -------------------------

 Output coordinates in angstroms (scale by  1.889725989 to convert to a.u.)

  No.       Tag          Charge          X              Y              Z
 ---- ---------------- ---------- -------------- -------------- --------------
    1 H                    1.0000     1.44228293    -3.24961302     2.37729526
    2 C                    6.0000     0.92894061    -4.09926240     1.93213733
    3 H                    1.0000     0.03296002    -4.33185913     2.50556173
    4 H                    1.0000     1.59022451    -4.96313589     1.90889517
    5 C                    6.0000     0.53263120    -3.74746659     0.51896764
    6 O                    8.0000     0.95174395    -4.41170808    -0.41927899
    7 N                    7.0000    -0.28298053    -2.70845694     0.38607125
    8 H                    1.0000    -0.56630734    -2.20263818     1.21844334
    9 C                    6.0000    -0.70747597    -2.10902216    -0.88561879
   10 H                    1.0000    -0.78458983    -2.88575819    -1.64770317
   11 C                    6.0000    -2.10131211    -1.46617727    -0.69015712
   12 H                    1.0000    -2.40960335    -1.02617969    -1.63965100
   13 H                    1.0000    -2.81310502    -2.25772698    -0.45224347
   14 C                    6.0000    -2.19549510    -0.38991094     0.41397256
   15 O                    8.0000    -3.06673865     0.49386135     0.28735819
   16 O                    8.0000    -1.35377800    -0.37130895     1.34599418
   17 C                    6.0000     0.29783982    -1.05425120    -1.39351187
   18 O                    8.0000     0.71091199    -1.06734711    -2.55062591
   19 N                    7.0000     0.67013141    -0.13506888    -0.50292397
   20 H                    1.0000     0.20680419    -0.21194047     0.39804698
   21 C                    6.0000     1.58391064     0.99498581    -0.68297651
   22 H                    1.0000     2.48798359     0.63564571    -1.17577647
   23 C                    6.0000     0.94115864     2.07308659    -1.58840989
   24 H                    1.0000     1.56848787     2.96633615    -1.57166882
   25 H                    1.0000     0.96630036     1.69337589    -2.61031090
   26 C                    6.0000    -0.51876399     2.48082450    -1.29503354
   27 H                    1.0000    -0.85684372     3.13249660    -2.09973259
   28 H                    1.0000    -1.15843607     1.60023113    -1.31829189
   29 C                    6.0000    -0.72134232     3.23904166     0.01295682
   30 O                    8.0000    -0.04643263     4.21138183     0.30983138
   31 N                    7.0000    -1.66171690     2.84827954     0.84172977
   32 H                    1.0000    -2.21324643     2.00214541     0.64971879
   33 H                    1.0000    -1.75665692     3.34947316     1.69930155
   34 C                    6.0000     2.01673982     1.58220764     0.67643271
   35 O                    8.0000     3.09674046     2.15116179     0.79189603
   36 N                    7.0000     1.23535771     1.40956751     1.74091352
   37 H                    1.0000     1.52849565     1.81347846     2.61210816
   38 H                    1.0000     0.32914335     0.96275994     1.65151820

      Atomic Mass 
      ----------- 

      H                  1.007825
      C                 12.000000
      O                 15.994910
      N                 14.003070


 Effective nuclear repulsion energy (a.u.)    1879.5217236062

            Nuclear Dipole moment (a.u.) 
            ----------------------------
        X                 Y               Z
 ---------------- ---------------- ----------------
     0.0000000000     0.0000000000     0.0000000000



                                Z-matrix (autoz)
                                -------- 

 Units are Angstrom for bonds and degrees for angles

      Type          Name      I     J     K     L     M      Value
      ----------- --------  ----- ----- ----- ----- ----- ----------
    1 Stretch                  1     2                       1.08793
    2 Stretch                  2     3                       1.08890
    3 Stretch                  2     4                       1.08817
    4 Stretch                  2     5                       1.50926
    5 Stretch                  5     6                       1.22359
    6 Stretch                  5     7                       1.32756
    7 Stretch                  7     8                       1.01438
    8 Stretch                  7     9                       1.46858
    9 Stretch                  9    10                       1.09089
   10 Stretch                  9    11                       1.54733
   11 Stretch                  9    17                       1.54310
   12 Stretch                 11    12                       1.09095
   13 Stretch                 11    13                       1.09078
   14 Stretch                 11    14                       1.54477
   15 Stretch                 14    15                       1.24746
   16 Stretch                 14    16                       1.25598
   17 Stretch                 17    18                       1.22870
   18 Stretch                 17    19                       1.33291
   19 Stretch                 19    20                       1.01604
   20 Stretch                 19    21                       1.46439
   21 Stretch                 21    22                       1.09056
   22 Stretch                 21    23                       1.54766
   23 Stretch                 21    34                       1.54278
   24 Stretch                 23    24                       1.09166
   25 Stretch                 23    25                       1.09046
   26 Stretch                 23    26                       1.54392
   27 Stretch                 26    27                       1.08927
   28 Stretch                 26    28                       1.08865
   29 Stretch                 26    29                       1.52538
   30 Stretch                 29    30                       1.22028
   31 Stretch                 29    31                       1.31296
   32 Stretch                 31    32                       1.02810
   33 Stretch                 31    33                       0.99782
   34 Stretch                 34    35                       1.22615
   35 Stretch                 34    36                       1.33172
   36 Stretch                 36    37                       1.00402
   37 Stretch                 36    38                       1.01432
   38 Bend                     1     2     3               109.85256
   39 Bend                     1     2     4               109.99844
   40 Bend                     1     2     5               108.96494
   41 Bend                     2     5     6               120.09912
   42 Bend                     2     5     7               115.94341
   43 Bend                     3     2     4               109.98093
   44 Bend                     3     2     5               109.07517
   45 Bend                     4     2     5               108.94259
   46 Bend                     5     7     8               118.66703
   47 Bend                     5     7     9               125.71292
   48 Bend                     6     5     7               123.95516
   49 Bend                     7     9    10               109.55658
   50 Bend                     7     9    11               108.69739
   51 Bend                     7     9    17               112.06762
   52 Bend                     8     7     9               115.23237
   53 Bend                     9    11    12               108.19020
   54 Bend                     9    11    13               108.29377
   55 Bend                     9    11    14               115.76383
   56 Bend                     9    17    18               121.44618
   57 Bend                     9    17    19               115.68515
   58 Bend                    10     9    11               108.68607
   59 Bend                    10     9    17               107.62681
   60 Bend                    11     9    17               110.14890
   61 Bend                    11    14    15               117.62157
   62 Bend                    11    14    16               119.99020
   63 Bend                    12    11    13               107.34360
   64 Bend                    12    11    14               108.89583
   65 Bend                    13    11    14               108.05349
   66 Bend                    15    14    16               122.20017
   67 Bend                    17    19    20               114.38986
   68 Bend                    17    19    21               128.63073
   69 Bend                    18    17    19               122.86594
   70 Bend                    19    21    22               108.57725
   71 Bend                    19    21    23               110.50823
   72 Bend                    19    21    34               111.12782
   73 Bend                    20    19    21               116.86999
   74 Bend                    21    23    24               108.80596
   75 Bend                    21    23    25               107.22434
   76 Bend                    21    23    26               117.74324
   77 Bend                    21    34    35               120.44454
   78 Bend                    21    34    36               119.36465
   79 Bend                    22    21    23               108.02636
   80 Bend                    22    21    34               106.91833
   81 Bend                    23    21    34               111.52271
   82 Bend                    23    26    27               108.12586
   83 Bend                    23    26    28               109.75102
   84 Bend                    23    26    29               114.82147
   85 Bend                    24    23    25               106.62146
   86 Bend                    24    23    26               108.92830
   87 Bend                    25    23    26               106.96791
   88 Bend                    26    29    30               122.08891
   89 Bend                    26    29    31               119.23867
   90 Bend                    27    26    28               106.60510
   91 Bend                    27    26    29               107.14977
   92 Bend                    28    26    29               110.02051
   93 Bend                    29    31    32               120.74876
   94 Bend                    29    31    33               117.46205
   95 Bend                    30    29    31               118.66642
   96 Bend                    32    31    33               121.52414
   97 Bend                    34    36    37               118.04213
   98 Bend                    34    36    38               120.72157
   99 Bend                    35    34    36               120.11207
  100 Bend                    37    36    38               120.96601
  101 Torsion                  1     2     5     6         120.32550
  102 Torsion                  1     2     5     7         -60.20622
  103 Torsion                  2     5     7     8           1.77566
  104 Torsion                  2     5     7     9         174.26578
  105 Torsion                  3     2     5     6        -119.75472
  106 Torsion                  3     2     5     7          59.71355
  107 Torsion                  4     2     5     6           0.30760
  108 Torsion                  4     2     5     7         179.77587
  109 Torsion                  5     7     9    10          33.32644
  110 Torsion                  5     7     9    11         151.95702
  111 Torsion                  5     7     9    17         -86.06461
  112 Torsion                  6     5     7     8        -178.77895
  113 Torsion                  6     5     7     9          -6.28882
  114 Torsion                  7     9    11    12        -179.84727
  115 Torsion                  7     9    11    13         -63.79967
  116 Torsion                  7     9    11    14          57.66607
  117 Torsion                  7     9    17    18         130.92829
  118 Torsion                  7     9    17    19         -49.65576
  119 Torsion                  8     7     9    10        -153.95668
  120 Torsion                  8     7     9    11         -35.32610
  121 Torsion                  8     7     9    17          86.65228
  122 Torsion                  9    11    14    15         152.70737
  123 Torsion                  9    11    14    16         -22.41909
  124 Torsion                  9    17    19    20          -2.98812
  125 Torsion                  9    17    19    21        -179.02319
  126 Torsion                 10     9    11    12         -60.67006
  127 Torsion                 10     9    11    13          55.37754
  128 Torsion                 10     9    11    14         176.84329
  129 Torsion                 10     9    17    18          10.41078
  130 Torsion                 10     9    17    19        -170.17327
  131 Torsion                 11     9    17    18        -107.92655
  132 Torsion                 11     9    17    19          71.48940
  133 Torsion                 12    11     9    17          57.01424
  134 Torsion                 12    11    14    15          30.59513
  135 Torsion                 12    11    14    16        -144.53133
  136 Torsion                 13    11     9    17         173.06184
  137 Torsion                 13    11    14    15         -85.69832
  138 Torsion                 13    11    14    16          99.17522
  139 Torsion                 14    11     9    17         -65.47241
  140 Torsion                 17    19    21    22         -47.89421
  141 Torsion                 17    19    21    23          70.41773
  142 Torsion                 17    19    21    34        -165.21715
  143 Torsion                 18    17    19    20         176.41866
  144 Torsion                 18    17    19    21           0.38359
  145 Torsion                 19    21    23    24         170.79325
  146 Torsion                 19    21    23    25         -74.24952
  147 Torsion                 19    21    23    26          46.30022
  148 Torsion                 19    21    34    35         152.52726
  149 Torsion                 19    21    34    36         -24.24975
  150 Torsion                 20    19    21    22         136.15407
  151 Torsion                 20    19    21    23        -105.53399
  152 Torsion                 20    19    21    34          18.83114
  153 Torsion                 21    23    26    27        -172.04196
  154 Torsion                 21    23    26    28         -56.12751
  155 Torsion                 21    23    26    29          68.40343
  156 Torsion                 21    34    36    37        -178.97219
  157 Torsion                 21    34    36    38          -4.88697
  158 Torsion                 22    21    23    24         -70.55895
  159 Torsion                 22    21    23    25          44.39828
  160 Torsion                 22    21    23    26         164.94803
  161 Torsion                 22    21    34    35          34.19834
  162 Torsion                 22    21    34    36        -142.57866
  163 Torsion                 23    21    34    35         -83.68376
  164 Torsion                 23    21    34    36          99.53924
  165 Torsion                 23    26    29    30          50.47922
  166 Torsion                 23    26    29    31        -130.42447
  167 Torsion                 24    23    21    34          46.65452
  168 Torsion                 24    23    26    27          63.52593
  169 Torsion                 24    23    26    28         179.44037
  170 Torsion                 24    23    26    29         -56.02869
  171 Torsion                 25    23    21    34         161.61175
  172 Torsion                 25    23    26    27         -51.35894
  173 Torsion                 25    23    26    28          64.55550
  174 Torsion                 25    23    26    29        -170.91356
  175 Torsion                 26    23    21    34         -77.83851
  176 Torsion                 26    29    31    32           4.38695
  177 Torsion                 26    29    31    33         178.56182
  178 Torsion                 27    26    29    30         -69.61674
  179 Torsion                 27    26    29    31         109.47957
  180 Torsion                 28    26    29    30         174.86812
  181 Torsion                 28    26    29    31          -6.03558
  182 Torsion                 30    29    31    32        -176.48563
  183 Torsion                 30    29    31    33          -2.31076
  184 Torsion                 35    34    36    37           4.23989
  185 Torsion                 35    34    36    38         178.32511


            XYZ format geometry
            -------------------
    38
 geometry
 H                     1.44228293    -3.24961302     2.37729526
 C                     0.92894061    -4.09926240     1.93213733
 H                     0.03296002    -4.33185913     2.50556173
 H                     1.59022451    -4.96313589     1.90889517
 C                     0.53263120    -3.74746659     0.51896764
 O                     0.95174395    -4.41170808    -0.41927899
 N                    -0.28298053    -2.70845694     0.38607125
 H                    -0.56630734    -2.20263818     1.21844334
 C                    -0.70747597    -2.10902216    -0.88561879
 H                    -0.78458983    -2.88575819    -1.64770317
 C                    -2.10131211    -1.46617727    -0.69015712
 H                    -2.40960335    -1.02617969    -1.63965100
 H                    -2.81310502    -2.25772698    -0.45224347
 C                    -2.19549510    -0.38991094     0.41397256
 O                    -3.06673865     0.49386135     0.28735819
 O                    -1.35377800    -0.37130895     1.34599418
 C                     0.29783982    -1.05425120    -1.39351187
 O                     0.71091199    -1.06734711    -2.55062591
 N                     0.67013141    -0.13506888    -0.50292397
 H                     0.20680419    -0.21194047     0.39804698
 C                     1.58391064     0.99498581    -0.68297651
 H                     2.48798359     0.63564571    -1.17577647
 C                     0.94115864     2.07308659    -1.58840989
 H                     1.56848787     2.96633615    -1.57166882
 H                     0.96630036     1.69337589    -2.61031090
 C                    -0.51876399     2.48082450    -1.29503354
 H                    -0.85684372     3.13249660    -2.09973259
 H                    -1.15843607     1.60023113    -1.31829189
 C                    -0.72134232     3.23904166     0.01295682
 O                    -0.04643263     4.21138183     0.30983138
 N                    -1.66171690     2.84827954     0.84172977
 H                    -2.21324643     2.00214541     0.64971879
 H                    -1.75665692     3.34947316     1.69930155
 C                     2.01673982     1.58220764     0.67643271
 O                     3.09674046     2.15116179     0.79189603
 N                     1.23535771     1.40956751     1.74091352
 H                     1.52849565     1.81347846     2.61210816
 H                     0.32914335     0.96275994     1.65151820

 ==============================================================================
                                internuclear distances
 ------------------------------------------------------------------------------
       center one      |      center two      | atomic units |  angstroms
 ------------------------------------------------------------------------------
    2 C                |   1 H                |     2.05589  |     1.08793
    3 H                |   2 C                |     2.05772  |     1.08890
    4 H                |   2 C                |     2.05634  |     1.08817
    5 C                |   2 C                |     2.85209  |     1.50926
    6 O                |   5 C                |     2.31225  |     1.22359
    7 N                |   5 C                |     2.50873  |     1.32756
    8 H                |   7 N                |     1.91690  |     1.01438
    9 C                |   7 N                |     2.77521  |     1.46858
   10 H                |   9 C                |     2.06148  |     1.09089
   11 C                |   9 C                |     2.92403  |     1.54733
   12 H                |  11 C                |     2.06160  |     1.09095
   13 H                |  11 C                |     2.06128  |     1.09078
   14 C                |  11 C                |     2.91920  |     1.54477
   15 O                |  14 C                |     2.35735  |     1.24746
   16 O                |  14 C                |     2.37347  |     1.25598
   17 C                |   9 C                |     2.91604  |     1.54310
   18 O                |  17 C                |     2.32191  |     1.22870
   19 N                |  17 C                |     2.51883  |     1.33291
   20 H                |  19 N                |     1.92003  |     1.01604
   21 C                |  19 N                |     2.76729  |     1.46439
   22 H                |  21 C                |     2.06086  |     1.09056
   23 C                |  21 C                |     2.92465  |     1.54766
   24 H                |  23 C                |     2.06293  |     1.09166
   25 H                |  23 C                |     2.06066  |     1.09046
   26 C                |  23 C                |     2.91759  |     1.54392
   27 H                |  26 C                |     2.05843  |     1.08927
   28 H                |  26 C                |     2.05726  |     1.08865
   29 C                |  26 C                |     2.88254  |     1.52538
   30 O                |  29 C                |     2.30599  |     1.22028
   31 N                |  29 C                |     2.48113  |     1.31296
   32 H                |  31 N                |     1.94283  |     1.02810
   33 H                |  31 N                |     1.88560  |     0.99782
   34 C                |  21 C                |     2.91543  |     1.54278
   35 O                |  34 C                |     2.31709  |     1.22615
   36 N                |  34 C                |     2.51659  |     1.33172
   37 H                |  36 N                |     1.89732  |     1.00402
   38 H                |  36 N                |     1.91679  |     1.01432
 ------------------------------------------------------------------------------
                         number of included internuclear distances:         37
 ==============================================================================



 ==============================================================================
                                 internuclear angles
 ------------------------------------------------------------------------------
        center 1       |       center 2       |       center 3       |  degrees
 ------------------------------------------------------------------------------
    1 H                |   2 C                |   3 H                |   109.85
    1 H                |   2 C                |   4 H                |   110.00
    1 H                |   2 C                |   5 C                |   108.96
    3 H                |   2 C                |   4 H                |   109.98
    3 H                |   2 C                |   5 C                |   109.08
    4 H                |   2 C                |   5 C                |   108.94
    2 C                |   5 C                |   6 O                |   120.10
    2 C                |   5 C                |   7 N                |   115.94
    6 O                |   5 C                |   7 N                |   123.96
    5 C                |   7 N                |   8 H                |   118.67
    5 C                |   7 N                |   9 C                |   125.71
    8 H                |   7 N                |   9 C                |   115.23
    7 N                |   9 C                |  10 H                |   109.56
    7 N                |   9 C                |  11 C                |   108.70
    7 N                |   9 C                |  17 C                |   112.07
   10 H                |   9 C                |  11 C                |   108.69
   10 H                |   9 C                |  17 C                |   107.63
   11 C                |   9 C                |  17 C                |   110.15
    9 C                |  11 C                |  12 H                |   108.19
    9 C                |  11 C                |  13 H                |   108.29
    9 C                |  11 C                |  14 C                |   115.76
   12 H                |  11 C                |  13 H                |   107.34
   12 H                |  11 C                |  14 C                |   108.90
   13 H                |  11 C                |  14 C                |   108.05
   11 C                |  14 C                |  15 O                |   117.62
   11 C                |  14 C                |  16 O                |   119.99
   15 O                |  14 C                |  16 O                |   122.20
    9 C                |  17 C                |  18 O                |   121.45
    9 C                |  17 C                |  19 N                |   115.69
   18 O                |  17 C                |  19 N                |   122.87
   17 C                |  19 N                |  20 H                |   114.39
   17 C                |  19 N                |  21 C                |   128.63
   20 H                |  19 N                |  21 C                |   116.87
   19 N                |  21 C                |  22 H                |   108.58
   19 N                |  21 C                |  23 C                |   110.51
   19 N                |  21 C                |  34 C                |   111.13
   22 H                |  21 C                |  23 C                |   108.03
   22 H                |  21 C                |  34 C                |   106.92
   23 C                |  21 C                |  34 C                |   111.52
   21 C                |  23 C                |  24 H                |   108.81
   21 C                |  23 C                |  25 H                |   107.22
   21 C                |  23 C                |  26 C                |   117.74
   24 H                |  23 C                |  25 H                |   106.62
   24 H                |  23 C                |  26 C                |   108.93
   25 H                |  23 C                |  26 C                |   106.97
   23 C                |  26 C                |  27 H                |   108.13
   23 C                |  26 C                |  28 H                |   109.75
   23 C                |  26 C                |  29 C                |   114.82
   27 H                |  26 C                |  28 H                |   106.61
   27 H                |  26 C                |  29 C                |   107.15
   28 H                |  26 C                |  29 C                |   110.02
   26 C                |  29 C                |  30 O                |   122.09
   26 C                |  29 C                |  31 N                |   119.24
   30 O                |  29 C                |  31 N                |   118.67
   29 C                |  31 N                |  32 H                |   120.75
   29 C                |  31 N                |  33 H                |   117.46
   32 H                |  31 N                |  33 H                |   121.52
   21 C                |  34 C                |  35 O                |   120.44
   21 C                |  34 C                |  36 N                |   119.36
   35 O                |  34 C                |  36 N                |   120.11
   34 C                |  36 N                |  37 H                |   118.04
   34 C                |  36 N                |  38 H                |   120.72
   37 H                |  36 N                |  38 H                |   120.97
 ------------------------------------------------------------------------------
                            number of included internuclear angles:         63
 ==============================================================================



  library name resolved from: environment
  library file name is: </opt/rit/el9/20230413/app/linux-rhel9-x86_64_v3/gcc-11.2.1/nwchem-7.2.0-oxtctbuhfuzyfaoziquq6bki22grib3g/share/nwchem/libraries/>
  


 Summary of "ao basis" -> "" (cartesian)
 ------------------------------------------------------------------------------
       Tag                 Description            Shells   Functions and Types
 ---------------- ------------------------------  ------  ---------------------
 *                        aug-cc-pvdz                 on all atoms 


                      Basis "ao basis" -> "ao basis" (cartesian)
                      -----
  H (Hydrogen)
  ------------
            Exponent  Coefficients 
       -------------- ---------------------------------------------------------
  1 S  1.30100000E+01  0.019685
  1 S  1.96200000E+00  0.137977
  1 S  4.44600000E-01  0.478148

  2 S  1.22000000E-01  1.000000

  3 S  2.97400000E-02  1.000000

  4 P  7.27000000E-01  1.000000

  5 P  1.41000000E-01  1.000000

  C (Carbon)
  ----------
            Exponent  Coefficients 
       -------------- ---------------------------------------------------------
  1 S  6.66500000E+03  0.000692
  1 S  1.00000000E+03  0.005329
  1 S  2.28000000E+02  0.027077
  1 S  6.47100000E+01  0.101718
  1 S  2.10600000E+01  0.274740
  1 S  7.49500000E+00  0.448564
  1 S  2.79700000E+00  0.285074
  1 S  5.21500000E-01  0.015204

  2 S  6.66500000E+03 -0.000146
  2 S  1.00000000E+03 -0.001154
  2 S  2.28000000E+02 -0.005725
  2 S  6.47100000E+01 -0.023312
  2 S  2.10600000E+01 -0.063955
  2 S  7.49500000E+00 -0.149981
  2 S  2.79700000E+00 -0.127262
  2 S  5.21500000E-01  0.544529

  3 S  1.59600000E-01  1.000000

  4 S  4.69000000E-02  1.000000

  5 P  9.43900000E+00  0.038109
  5 P  2.00200000E+00  0.209480
  5 P  5.45600000E-01  0.508557

  6 P  1.51700000E-01  1.000000

  7 P  4.04100000E-02  1.000000

  8 D  5.50000000E-01  1.000000

  9 D  1.51000000E-01  1.000000

  O (Oxygen)
  ----------
            Exponent  Coefficients 
       -------------- ---------------------------------------------------------
  1 S  1.17200000E+04  0.000710
  1 S  1.75900000E+03  0.005470
  1 S  4.00800000E+02  0.027837
  1 S  1.13700000E+02  0.104800
  1 S  3.70300000E+01  0.283062
  1 S  1.32700000E+01  0.448719
  1 S  5.02500000E+00  0.270952
  1 S  1.01300000E+00  0.015458

  2 S  1.17200000E+04 -0.000160
  2 S  1.75900000E+03 -0.001263
  2 S  4.00800000E+02 -0.006267
  2 S  1.13700000E+02 -0.025716
  2 S  3.70300000E+01 -0.070924
  2 S  1.32700000E+01 -0.165411
  2 S  5.02500000E+00 -0.116955
  2 S  1.01300000E+00  0.557368

  3 S  3.02300000E-01  1.000000

  4 S  7.89600000E-02  1.000000

  5 P  1.77000000E+01  0.043018
  5 P  3.85400000E+00  0.228913
  5 P  1.04600000E+00  0.508728

  6 P  2.75300000E-01  1.000000

  7 P  6.85600000E-02  1.000000

  8 D  1.18500000E+00  1.000000

  9 D  3.32000000E-01  1.000000

  N (Nitrogen)
  ------------
            Exponent  Coefficients 
       -------------- ---------------------------------------------------------
  1 S  9.04600000E+03  0.000700
  1 S  1.35700000E+03  0.005389
  1 S  3.09300000E+02  0.027406
  1 S  8.77300000E+01  0.103207
  1 S  2.85600000E+01  0.278723
  1 S  1.02100000E+01  0.448540
  1 S  3.83800000E+00  0.278238
  1 S  7.46600000E-01  0.015440

  2 S  9.04600000E+03 -0.000153
  2 S  1.35700000E+03 -0.001208
  2 S  3.09300000E+02 -0.005992
  2 S  8.77300000E+01 -0.024544
  2 S  2.85600000E+01 -0.067459
  2 S  1.02100000E+01 -0.158078
  2 S  3.83800000E+00 -0.121831
  2 S  7.46600000E-01  0.549003

  3 S  2.24800000E-01  1.000000

  4 S  6.12400000E-02  1.000000

  5 P  1.35500000E+01  0.039919
  5 P  2.91700000E+00  0.217169
  5 P  7.97300000E-01  0.510319

  6 P  2.18500000E-01  1.000000

  7 P  5.61100000E-02  1.000000

  8 D  8.17000000E-01  1.000000

  9 D  2.30000000E-01  1.000000



 Summary of "ao basis" -> "ao basis" (cartesian)
 ------------------------------------------------------------------------------
       Tag                 Description            Shells   Functions and Types
 ---------------- ------------------------------  ------  ---------------------
 H                        aug-cc-pvdz                5        9   3s2p
 C                        aug-cc-pvdz                9       25   4s3p2d
 O                        aug-cc-pvdz                9       25   4s3p2d
 N                        aug-cc-pvdz                9       25   4s3p2d


 ------------------------------------------------------------------------
 scf: no. of closed-shell electrons is not even!                   0
 ------------------------------------------------------------------------
 ------------------------------------------------------------------------
  current input line : 
     0: 
 scf: no. of closed-shell electrons is not even!                   0
 ------------------------------------------------------------------------
 ------------------------------------------------------------------------
  current input line : 
     0: 
 ------------------------------------------------------------------------
 scf: no. of closed-shell electrons is not even!                   0
 ------------------------------------------------------------------------
 ------------------------------------------------------------------------
  current input line : 
     0: 
 ------------------------------------------------------------------------
 ------------------------------------------------------------------------
 There is an error in the input file
 scf: no. of closed-shell electrons is not even!                   0
 ------------------------------------------------------------------------
 ------------------------------------------------------------------------
  current input line : 
     0: 
 ------------------------------------------------------------------------
 ------------------------------------------------------------------------
 There is an error in the input file
 ------------------------------------------------------------------------
 For more information see the NWChem manual at https://nwchemgit.github.io


 For further details see manual section:                                                                                                                                                                                                                                                                
 scf: no. of closed-shell electrons is not even!                   0
 ------------------------------------------------------------------------
 ------------------------------------------------------------------------
  current input line : 
     0: 
 ------------------------------------------------------------------------
 ------------------------------------------------------------------------
 There is an error in the input file
 ------------------------------------------------------------------------
 For more information see the NWChem manual at https://nwchemgit.github.io


 For further details see manual section:                                                                                                                                                                                                                                                                
 scf: no. of closed-shell electrons is not even!                   0
 ------------------------------------------------------------------------
 ------------------------------------------------------------------------
  current input line : 
     0: 
 ------------------------------------------------------------------------
 ------------------------------------------------------------------------
 There is an error in the input file
 ------------------------------------------------------------------------
 For more information see the NWChem manual at https://nwchemgit.github.io


 For further details see manual section:                                                                                                                                                                                                                                                                
 scf: no. of closed-shell electrons is not even!                   0
 ------------------------------------------------------------------------
 ------------------------------------------------------------------------
  current input line : 
     0: 
 ------------------------------------------------------------------------
 ------------------------------------------------------------------------
 There is an error in the input file
 ------------------------------------------------------------------------
 For more information see the NWChem manual at https://nwchemgit.github.io


 For further details see manual section:                                                                                                                                                                                                                                                                
 ------------------------------------------------------------------------
 ------------------------------------------------------------------------
 There is an error in the input file
 ------------------------------------------------------------------------
 For more information see the NWChem manual at https://nwchemgit.github.io


 For further details see manual section:                                                                                                                                                                                                                                                                
1:scf: no. of closed-shell electrons is not even!:Received an Error in Communication
 ------------------------------------------------------------------------
 There is an error in the input file
 ------------------------------------------------------------------------
 For more information see the NWChem manual at https://nwchemgit.github.io


 For further details see manual section:                                                                                                                                                                                                                                                                
2:scf: no. of closed-shell electrons is not even!:Received an Error in Communication
 ------------------------------------------------------------------------
 For more information see the NWChem manual at https://nwchemgit.github.io


 For further details see manual section:                                                                                                                                                                                                                                                                
3:scf: no. of closed-shell electrons is not even!:Received an Error in Communication
4:scf: no. of closed-shell electrons is not even!:Received an Error in Communication
5:scf: no. of closed-shell electrons is not even!:Received an Error in Communication
6:scf: no. of closed-shell electrons is not even!:Received an Error in Communication
7:scf: no. of closed-shell electrons is not even!:Received an Error in Communication
 scf: no. of closed-shell electrons is not even!                   0
 ------------------------------------------------------------------------
 ------------------------------------------------------------------------
  current input line : 
    53: task scf energy
 ------------------------------------------------------------------------
 ------------------------------------------------------------------------
 There is an error in the input file
 ------------------------------------------------------------------------
 For more information see the NWChem manual at https://nwchemgit.github.io


 For further details see manual section:                                                                                                                                                                                                                                                                
0:scf: no. of closed-shell electrons is not even!:Received an Error in Communication
--------------------------------------------------------------------------
MPI_ABORT was invoked on rank 7 in communicator MPI COMMUNICATOR 3 DUP FROM 0
with errorcode -1.

NOTE: invoking MPI_ABORT causes Open MPI to kill all MPI processes.
You may or may not see output from other processes, depending on
exactly when Open MPI kills them.
--------------------------------------------------------------------------
--------------------------------------------------------------------------
MPI_ABORT was invoked on rank 0 in communicator MPI COMMUNICATOR 3 DUP FROM 0
with errorcode -1.

NOTE: invoking MPI_ABORT causes Open MPI to kill all MPI processes.
You may or may not see output from other processes, depending on
exactly when Open MPI kills them.
--------------------------------------------------------------------------
--------------------------------------------------------------------------
MPI_ABORT was invoked on rank 2 in communicator MPI COMMUNICATOR 3 DUP FROM 0
with errorcode -1.

NOTE: invoking MPI_ABORT causes Open MPI to kill all MPI processes.
You may or may not see output from other processes, depending on
exactly when Open MPI kills them.
--------------------------------------------------------------------------
--------------------------------------------------------------------------
MPI_ABORT was invoked on rank 3 in communicator MPI COMMUNICATOR 3 DUP FROM 0
with errorcode -1.

NOTE: invoking MPI_ABORT causes Open MPI to kill all MPI processes.
You may or may not see output from other processes, depending on
exactly when Open MPI kills them.
--------------------------------------------------------------------------
--------------------------------------------------------------------------
MPI_ABORT was invoked on rank 4 in communicator MPI COMMUNICATOR 3 DUP FROM 0
with errorcode -1.

NOTE: invoking MPI_ABORT causes Open MPI to kill all MPI processes.
You may or may not see output from other processes, depending on
exactly when Open MPI kills them.
--------------------------------------------------------------------------
--------------------------------------------------------------------------
MPI_ABORT was invoked on rank 5 in communicator MPI COMMUNICATOR 3 DUP FROM 0
with errorcode -1.

NOTE: invoking MPI_ABORT causes Open MPI to kill all MPI processes.
You may or may not see output from other processes, depending on
exactly when Open MPI kills them.
--------------------------------------------------------------------------
--------------------------------------------------------------------------
MPI_ABORT was invoked on rank 6 in communicator MPI COMMUNICATOR 3 DUP FROM 0
with errorcode -1.

NOTE: invoking MPI_ABORT causes Open MPI to kill all MPI processes.
You may or may not see output from other processes, depending on
exactly when Open MPI kills them.
--------------------------------------------------------------------------
--------------------------------------------------------------------------
MPI_ABORT was invoked on rank 1 in communicator MPI COMMUNICATOR 3 DUP FROM 0
with errorcode -1.

NOTE: invoking MPI_ABORT causes Open MPI to kill all MPI processes.
You may or may not see output from other processes, depending on
exactly when Open MPI kills them.
--------------------------------------------------------------------------
slurmstepd: error: *** STEP 6619389.105 ON nova21-swift-2 CANCELLED AT 2025-07-11T03:00:05 ***
srun: Job step aborted: Waiting up to 32 seconds for job step to finish.
slurmstepd: error: --task-epilog failed status=9
srun: error: nova21-swift-2: tasks 0-7: Killed
