export TMOUT=5400
export TMPDIR=/tmp
export PTMPDIR=/tmp/ptmp
 argument  1 = ALA_GLY_1.nw
                                         
                                         


             Northwest Computational Chemistry Package (NWChem) 7.2.0
             --------------------------------------------------------


                    Environmental Molecular Sciences Laboratory
                       Pacific Northwest National Laboratory
                                Richland, WA 99352

                              Copyright (c) 1994-2022
                       Pacific Northwest National Laboratory
                            Battelle Memorial Institute

             NWChem is an open-source computational chemistry package
                        distributed under the terms of the
                      Educational Community License (ECL) 2.0
             A copy of the license is included with this distribution
                              in the LICENSE.TXT file

                                  ACKNOWLEDGMENT
                                  --------------

            This software and its documentation were developed at the
            EMSL at Pacific Northwest National Laboratory, a multiprogram
            national laboratory, operated for the U.S. Department of Energy
            by Battelle under Contract Number DE-AC05-76RL01830. Support
            for this work was provided by the Department of Energy Office
            of Biological and Environmental Research, Office of Basic
            Energy Sciences, and the Office of Advanced Scientific Computing.


           Job information
           ---------------

    hostname        = nova18-18
    program         = /opt/rit/el9/20230413/app/linux-rhel9-x86_64_v3/gcc-11.2.1/nwchem-7.2.0-oxtctbuhfuzyfaoziquq6bki22grib3g/bin/nwchem
    date            = Thu Jun 26 15:10:41 2025

    compiled        = Wed_May_17_23:46:39_2023
    source          = /tmp/root/spack-stage/spack-stage-nwchem-7.2.0-oxtctbuhfuzyfaoziquq6bki22grib3g/spack-src
    nwchem branch   = 7.2.0
    nwchem revision = d0d141fd
    ga revision     = 5.8.0
    use scalapack   = T
    input           = ALA_GLY_1.nw
    prefix          = ALA_GLY_1.
    data base       = ./ALA_GLY_1.db
    status          = startup
    nproc           =        8
    time left       =     -1s



           Memory information
           ------------------

    heap     =   26214396 doubles =    200.0 Mbytes
    stack    =   26214401 doubles =    200.0 Mbytes
    global   =   52428800 doubles =    400.0 Mbytes (distinct from heap & stack)
    total    =  104857597 doubles =    800.0 Mbytes
    verify   = yes
    hardfail = no 


           Directory information
           ---------------------

  0 permanent = .
  0 scratch   = .




                                NWChem Input Module
                                -------------------



 Scaling coordinates for geometry "geometry" by  1.889725989
 (inverse scale =  0.529177249)

 C1  symmetry detected

          ------
          auto-z
          ------
  no constraints, skipping    0.0000000000000000     
  no constraints, skipping    0.0000000000000000     


                             Geometry "geometry" -> ""
                             -------------------------

 Output coordinates in angstroms (scale by  1.889725989 to convert to a.u.)

  No.       Tag          Charge          X              Y              Z
 ---- ---------------- ---------- -------------- -------------- --------------
    1 H                    1.0000    -3.15675528     2.87175434     0.45501934
    2 C                    6.0000    -2.18858818     2.82279096     0.95101134
    3 H                    1.0000    -2.27557568     2.22825996     1.85829248
    4 H                    1.0000    -1.85486848     3.82940072     1.19578459
    5 C                    6.0000    -1.19212841     2.17601359     0.01853670
    6 O                    8.0000    -1.54181658     1.79606767    -1.09046478
    7 N                    7.0000     0.05228122     2.03449940     0.47380518
    8 H                    1.0000     0.25149712     2.36564341     1.40263599
    9 C                    6.0000     1.16772025     1.46061709    -0.28838368
   10 H                    1.0000     1.12233554     1.86497462    -1.30108612
   11 C                    6.0000     2.47741662     1.95439233     0.34615270
   12 H                    1.0000     2.57367178     1.56464874     1.36047705
   13 H                    1.0000     3.32473503     1.60657362    -0.24602857
   14 H                    1.0000     2.49328364     3.04483928     0.37150400
   15 C                    6.0000     1.09710964    -0.08194725    -0.43208618
   16 O                    8.0000     2.04414500    -0.79204223    -0.09595801
   17 N                    7.0000    -0.04346112    -0.61171963    -0.88377363
   18 H                    1.0000    -0.78045316     0.04070082    -1.13244065
   19 C                    6.0000    -0.30884322    -2.04328803    -1.09898114
   20 H                    1.0000    -1.19883645    -2.14959470    -1.71929151
   21 H                    1.0000     0.53444085    -2.47656758    -1.63804774
   22 C                    6.0000    -0.51841264    -2.86838411     0.17901069
   23 O                    8.0000    -1.44364321    -3.66508851     0.25662174
   24 N                    7.0000     0.28841488    -2.67502580     1.21272822
   25 H                    1.0000     1.07008305    -2.04115533     1.11336982
   26 H                    1.0000     0.14067125    -3.21641867     2.04733866

      Atomic Mass 
      ----------- 

      H                  1.007825
      C                 12.000000
      O                 15.994910
      N                 14.003070


 Effective nuclear repulsion energy (a.u.)     840.9644654828

            Nuclear Dipole moment (a.u.) 
            ----------------------------
        X                 Y               Z
 ---------------- ---------------- ----------------
     0.0000000000    -0.0000000000     0.0000000000



                                Z-matrix (autoz)
                                -------- 

 Units are Angstrom for bonds and degrees for angles

      Type          Name      I     J     K     L     M      Value
      ----------- --------  ----- ----- ----- ----- ----- ----------
    1 Stretch                  1     2                       1.08892
    2 Stretch                  2     3                       1.08821
    3 Stretch                  2     4                       1.08837
    4 Stretch                  2     5                       1.51022
    5 Stretch                  5     6                       1.22333
    6 Stretch                  5     7                       1.33261
    7 Stretch                  7     8                       1.00602
    8 Stretch                  7     9                       1.46781
    9 Stretch                  9    10                       1.09139
   10 Stretch                  9    11                       1.53680
   11 Stretch                  9    15                       1.55085
   12 Stretch                 11    12                       1.09088
   13 Stretch                 11    13                       1.09069
   14 Stretch                 11    14                       1.09086
   15 Stretch                 15    16                       1.23048
   16 Stretch                 15    17                       1.33626
   17 Stretch                 17    18                       1.01521
   18 Stretch                 17    19                       1.47178
   19 Stretch                 19    20                       1.09003
   20 Stretch                 19    21                       1.09062
   21 Stretch                 19    22                       1.53557
   22 Stretch                 22    23                       1.22344
   23 Stretch                 22    24                       1.32549
   24 Stretch                 24    25                       1.01127
   25 Stretch                 24    26                       1.00574
   26 Bend                     1     2     3               109.46635
   27 Bend                     1     2     4               109.47969
   28 Bend                     1     2     5               108.94500
   29 Bend                     2     5     6               120.27473
   30 Bend                     2     5     7               116.78723
   31 Bend                     3     2     4               110.01718
   32 Bend                     3     2     5               109.48442
   33 Bend                     4     2     5               109.42935
   34 Bend                     5     7     8               117.73531
   35 Bend                     5     7     9               125.01236
   36 Bend                     6     5     7               122.93304
   37 Bend                     7     9    10               107.78056
   38 Bend                     7     9    11               107.91509
   39 Bend                     7     9    15               113.72855
   40 Bend                     8     7     9               117.23480
   41 Bend                     9    11    12               110.14046
   42 Bend                     9    11    13               109.59819
   43 Bend                     9    11    14               110.07023
   44 Bend                     9    15    16               120.90712
   45 Bend                     9    15    17               117.67952
   46 Bend                    10     9    11               107.42898
   47 Bend                    10     9    15               106.29870
   48 Bend                    11     9    15               113.36859
   49 Bend                    12    11    13               108.80557
   50 Bend                    12    11    14               109.52681
   51 Bend                    13    11    14               108.66873
   52 Bend                    15    17    18               116.59326
   53 Bend                    15    17    19               126.08350
   54 Bend                    16    15    17               121.36450
   55 Bend                    17    19    20               108.98353
   56 Bend                    17    19    21               108.61922
   57 Bend                    17    19    22               115.18591
   58 Bend                    18    17    19               117.28229
   59 Bend                    19    22    23               120.39184
   60 Bend                    19    22    24               119.18311
   61 Bend                    20    19    21               108.13711
   62 Bend                    20    19    22               108.04622
   63 Bend                    21    19    22               107.66344
   64 Bend                    22    24    25               119.03288
   65 Bend                    22    24    26               118.63534
   66 Bend                    23    22    24               120.38796
   67 Bend                    25    24    26               122.17408
   68 Torsion                  1     2     5     6          -0.64865
   69 Torsion                  1     2     5     7        -179.85904
   70 Torsion                  2     5     7     8          -0.10136
   71 Torsion                  2     5     7     9        -178.53157
   72 Torsion                  3     2     5     6         119.03365
   73 Torsion                  3     2     5     7         -60.17674
   74 Torsion                  4     2     5     6        -120.31434
   75 Torsion                  4     2     5     7          60.47527
   76 Torsion                  5     7     9    10          42.99969
   77 Torsion                  5     7     9    11         158.73731
   78 Torsion                  5     7     9    15         -74.57490
   79 Torsion                  6     5     7     8        -179.28887
   80 Torsion                  6     5     7     9           2.28091
   81 Torsion                  7     9    11    12          64.68355
   82 Torsion                  7     9    11    13        -175.64354
   83 Torsion                  7     9    11    14         -56.18237
   84 Torsion                  7     9    15    16        -126.02504
   85 Torsion                  7     9    15    17          51.46663
   86 Torsion                  8     7     9    10        -135.43765
   87 Torsion                  8     7     9    11         -19.70003
   88 Torsion                  8     7     9    15         106.98776
   89 Torsion                  9    15    17    18           1.95835
   90 Torsion                  9    15    17    19         179.55631
   91 Torsion                 10     9    11    12        -179.34860
   92 Torsion                 10     9    11    13         -59.67569
   93 Torsion                 10     9    11    14          59.78548
   94 Torsion                 10     9    15    16         115.54623
   95 Torsion                 10     9    15    17         -66.96211
   96 Torsion                 11     9    15    16          -2.24757
   97 Torsion                 11     9    15    17         175.24409
   98 Torsion                 12    11     9    15         -62.21400
   99 Torsion                 13    11     9    15          57.45892
  100 Torsion                 14    11     9    15         176.92008
  101 Torsion                 15    17    19    20        -164.48334
  102 Torsion                 15    17    19    21         -46.88457
  103 Torsion                 15    17    19    22          73.92971
  104 Torsion                 16    15    17    18         179.43788
  105 Torsion                 16    15    17    19          -2.96416
  106 Torsion                 17    19    22    23         134.30316
  107 Torsion                 17    19    22    24         -43.49017
  108 Torsion                 18    17    19    20          13.09989
  109 Torsion                 18    17    19    21         130.69866
  110 Torsion                 18    17    19    22        -108.48706
  111 Torsion                 19    22    24    25          -4.78467
  112 Torsion                 19    22    24    26         179.67911
  113 Torsion                 20    19    22    23          12.21073
  114 Torsion                 20    19    22    24        -165.58260
  115 Torsion                 21    19    22    23        -104.36288
  116 Torsion                 21    19    22    24          77.84379
  117 Torsion                 23    22    24    25         177.42191
  118 Torsion                 23    22    24    26           1.88569


            XYZ format geometry
            -------------------
    26
 geometry
 H                    -3.15675528     2.87175434     0.45501934
 C                    -2.18858818     2.82279096     0.95101134
 H                    -2.27557568     2.22825996     1.85829248
 H                    -1.85486848     3.82940072     1.19578459
 C                    -1.19212841     2.17601359     0.01853670
 O                    -1.54181658     1.79606767    -1.09046478
 N                     0.05228122     2.03449940     0.47380518
 H                     0.25149712     2.36564341     1.40263599
 C                     1.16772025     1.46061709    -0.28838368
 H                     1.12233554     1.86497462    -1.30108612
 C                     2.47741662     1.95439233     0.34615270
 H                     2.57367178     1.56464874     1.36047705
 H                     3.32473503     1.60657362    -0.24602857
 H                     2.49328364     3.04483928     0.37150400
 C                     1.09710964    -0.08194725    -0.43208618
 O                     2.04414500    -0.79204223    -0.09595801
 N                    -0.04346112    -0.61171963    -0.88377363
 H                    -0.78045316     0.04070082    -1.13244065
 C                    -0.30884322    -2.04328803    -1.09898114
 H                    -1.19883645    -2.14959470    -1.71929151
 H                     0.53444085    -2.47656758    -1.63804774
 C                    -0.51841264    -2.86838411     0.17901069
 O                    -1.44364321    -3.66508851     0.25662174
 N                     0.28841488    -2.67502580     1.21272822
 H                     1.07008305    -2.04115533     1.11336982
 H                     0.14067125    -3.21641867     2.04733866

 ==============================================================================
                                internuclear distances
 ------------------------------------------------------------------------------
       center one      |      center two      | atomic units |  angstroms
 ------------------------------------------------------------------------------
    2 C                |   1 H                |     2.05777  |     1.08892
    3 H                |   2 C                |     2.05641  |     1.08821
    4 H                |   2 C                |     2.05672  |     1.08837
    5 C                |   2 C                |     2.85390  |     1.51022
    6 O                |   5 C                |     2.31175  |     1.22333
    7 N                |   5 C                |     2.51827  |     1.33261
    8 H                |   7 N                |     1.90110  |     1.00602
    9 C                |   7 N                |     2.77377  |     1.46781
   10 H                |   9 C                |     2.06243  |     1.09139
   11 C                |   9 C                |     2.90413  |     1.53680
   12 H                |  11 C                |     2.06146  |     1.09088
   13 H                |  11 C                |     2.06111  |     1.09069
   14 H                |  11 C                |     2.06142  |     1.09086
   15 C                |   9 C                |     2.93068  |     1.55085
   16 O                |  15 C                |     2.32528  |     1.23048
   17 N                |  15 C                |     2.52516  |     1.33626
   18 H                |  17 N                |     1.91846  |     1.01521
   19 C                |  17 N                |     2.78126  |     1.47178
   20 H                |  19 C                |     2.05987  |     1.09003
   21 H                |  19 C                |     2.06097  |     1.09062
   22 C                |  19 C                |     2.90180  |     1.53557
   23 O                |  22 C                |     2.31197  |     1.22344
   24 N                |  22 C                |     2.50482  |     1.32549
   25 H                |  24 N                |     1.91103  |     1.01127
   26 H                |  24 N                |     1.90057  |     1.00574
 ------------------------------------------------------------------------------
                         number of included internuclear distances:         25
 ==============================================================================



 ==============================================================================
                                 internuclear angles
 ------------------------------------------------------------------------------
        center 1       |       center 2       |       center 3       |  degrees
 ------------------------------------------------------------------------------
    1 H                |   2 C                |   3 H                |   109.47
    1 H                |   2 C                |   4 H                |   109.48
    1 H                |   2 C                |   5 C                |   108.95
    3 H                |   2 C                |   4 H                |   110.02
    3 H                |   2 C                |   5 C                |   109.48
    4 H                |   2 C                |   5 C                |   109.43
    2 C                |   5 C                |   6 O                |   120.27
    2 C                |   5 C                |   7 N                |   116.79
    6 O                |   5 C                |   7 N                |   122.93
    5 C                |   7 N                |   8 H                |   117.74
    5 C                |   7 N                |   9 C                |   125.01
    8 H                |   7 N                |   9 C                |   117.23
    7 N                |   9 C                |  10 H                |   107.78
    7 N                |   9 C                |  11 C                |   107.92
    7 N                |   9 C                |  15 C                |   113.73
   10 H                |   9 C                |  11 C                |   107.43
   10 H                |   9 C                |  15 C                |   106.30
   11 C                |   9 C                |  15 C                |   113.37
    9 C                |  11 C                |  12 H                |   110.14
    9 C                |  11 C                |  13 H                |   109.60
    9 C                |  11 C                |  14 H                |   110.07
   12 H                |  11 C                |  13 H                |   108.81
   12 H                |  11 C                |  14 H                |   109.53
   13 H                |  11 C                |  14 H                |   108.67
    9 C                |  15 C                |  16 O                |   120.91
    9 C                |  15 C                |  17 N                |   117.68
   16 O                |  15 C                |  17 N                |   121.36
   15 C                |  17 N                |  18 H                |   116.59
   15 C                |  17 N                |  19 C                |   126.08
   18 H                |  17 N                |  19 C                |   117.28
   17 N                |  19 C                |  20 H                |   108.98
   17 N                |  19 C                |  21 H                |   108.62
   17 N                |  19 C                |  22 C                |   115.19
   20 H                |  19 C                |  21 H                |   108.14
   20 H                |  19 C                |  22 C                |   108.05
   21 H                |  19 C                |  22 C                |   107.66
   19 C                |  22 C                |  23 O                |   120.39
   19 C                |  22 C                |  24 N                |   119.18
   23 O                |  22 C                |  24 N                |   120.39
   22 C                |  24 N                |  25 H                |   119.03
   22 C                |  24 N                |  26 H                |   118.64
   25 H                |  24 N                |  26 H                |   122.17
 ------------------------------------------------------------------------------
                            number of included internuclear angles:         42
 ==============================================================================



  library name resolved from: environment
  library file name is: </opt/rit/el9/20230413/app/linux-rhel9-x86_64_v3/gcc-11.2.1/nwchem-7.2.0-oxtctbuhfuzyfaoziquq6bki22grib3g/share/nwchem/libraries/>
  


 Summary of "ao basis" -> "" (cartesian)
 ------------------------------------------------------------------------------
       Tag                 Description            Shells   Functions and Types
 ---------------- ------------------------------  ------  ---------------------
 *                        aug-cc-pvdz                 on all atoms 


                      Basis "ao basis" -> "ao basis" (cartesian)
                      -----
  H (Hydrogen)
  ------------
            Exponent  Coefficients 
       -------------- ---------------------------------------------------------
  1 S  1.30100000E+01  0.019685
  1 S  1.96200000E+00  0.137977
  1 S  4.44600000E-01  0.478148

  2 S  1.22000000E-01  1.000000

  3 S  2.97400000E-02  1.000000

  4 P  7.27000000E-01  1.000000

  5 P  1.41000000E-01  1.000000

  C (Carbon)
  ----------
            Exponent  Coefficients 
       -------------- ---------------------------------------------------------
  1 S  6.66500000E+03  0.000692
  1 S  1.00000000E+03  0.005329
  1 S  2.28000000E+02  0.027077
  1 S  6.47100000E+01  0.101718
  1 S  2.10600000E+01  0.274740
  1 S  7.49500000E+00  0.448564
  1 S  2.79700000E+00  0.285074
  1 S  5.21500000E-01  0.015204

  2 S  6.66500000E+03 -0.000146
  2 S  1.00000000E+03 -0.001154
  2 S  2.28000000E+02 -0.005725
  2 S  6.47100000E+01 -0.023312
  2 S  2.10600000E+01 -0.063955
  2 S  7.49500000E+00 -0.149981
  2 S  2.79700000E+00 -0.127262
  2 S  5.21500000E-01  0.544529

  3 S  1.59600000E-01  1.000000

  4 S  4.69000000E-02  1.000000

  5 P  9.43900000E+00  0.038109
  5 P  2.00200000E+00  0.209480
  5 P  5.45600000E-01  0.508557

  6 P  1.51700000E-01  1.000000

  7 P  4.04100000E-02  1.000000

  8 D  5.50000000E-01  1.000000

  9 D  1.51000000E-01  1.000000

  O (Oxygen)
  ----------
            Exponent  Coefficients 
       -------------- ---------------------------------------------------------
  1 S  1.17200000E+04  0.000710
  1 S  1.75900000E+03  0.005470
  1 S  4.00800000E+02  0.027837
  1 S  1.13700000E+02  0.104800
  1 S  3.70300000E+01  0.283062
  1 S  1.32700000E+01  0.448719
  1 S  5.02500000E+00  0.270952
  1 S  1.01300000E+00  0.015458

  2 S  1.17200000E+04 -0.000160
  2 S  1.75900000E+03 -0.001263
  2 S  4.00800000E+02 -0.006267
  2 S  1.13700000E+02 -0.025716
  2 S  3.70300000E+01 -0.070924
  2 S  1.32700000E+01 -0.165411
  2 S  5.02500000E+00 -0.116955
  2 S  1.01300000E+00  0.557368

  3 S  3.02300000E-01  1.000000

  4 S  7.89600000E-02  1.000000

  5 P  1.77000000E+01  0.043018
  5 P  3.85400000E+00  0.228913
  5 P  1.04600000E+00  0.508728

  6 P  2.75300000E-01  1.000000

  7 P  6.85600000E-02  1.000000

  8 D  1.18500000E+00  1.000000

  9 D  3.32000000E-01  1.000000

  N (Nitrogen)
  ------------
            Exponent  Coefficients 
       -------------- ---------------------------------------------------------
  1 S  9.04600000E+03  0.000700
  1 S  1.35700000E+03  0.005389
  1 S  3.09300000E+02  0.027406
  1 S  8.77300000E+01  0.103207
  1 S  2.85600000E+01  0.278723
  1 S  1.02100000E+01  0.448540
  1 S  3.83800000E+00  0.278238
  1 S  7.46600000E-01  0.015440

  2 S  9.04600000E+03 -0.000153
  2 S  1.35700000E+03 -0.001208
  2 S  3.09300000E+02 -0.005992
  2 S  8.77300000E+01 -0.024544
  2 S  2.85600000E+01 -0.067459
  2 S  1.02100000E+01 -0.158078
  2 S  3.83800000E+00 -0.121831
  2 S  7.46600000E-01  0.549003

  3 S  2.24800000E-01  1.000000

  4 S  6.12400000E-02  1.000000

  5 P  1.35500000E+01  0.039919
  5 P  2.91700000E+00  0.217169
  5 P  7.97300000E-01  0.510319

  6 P  2.18500000E-01  1.000000

  7 P  5.61100000E-02  1.000000

  8 D  8.17000000E-01  1.000000

  9 D  2.30000000E-01  1.000000



 Summary of "ao basis" -> "ao basis" (cartesian)
 ------------------------------------------------------------------------------
       Tag                 Description            Shells   Functions and Types
 ---------------- ------------------------------  ------  ---------------------
 H                        aug-cc-pvdz                5        9   3s2p
 C                        aug-cc-pvdz                9       25   4s3p2d
 O                        aug-cc-pvdz                9       25   4s3p2d
 N                        aug-cc-pvdz                9       25   4s3p2d


                                 NWChem SCF Module
                                 -----------------



  ao basis        = "ao basis"
  functions       =   442
  atoms           =    26
  closed shells   =    50
  open shells     =     0
  charge          =   0.00
  wavefunction    = RHF 
  input vectors   = atomic
  output vectors  = ./ALA_GLY_1.movecs
  use symmetry    = F
  symmetry adapt  = F


 Summary of "ao basis" -> "ao basis" (cartesian)
 ------------------------------------------------------------------------------
       Tag                 Description            Shells   Functions and Types
 ---------------- ------------------------------  ------  ---------------------
 H                        aug-cc-pvdz                5        9   3s2p
 C                        aug-cc-pvdz                9       25   4s3p2d
 O                        aug-cc-pvdz                9       25   4s3p2d
 N                        aug-cc-pvdz                9       25   4s3p2d



 Forming initial guess at       0.9s


 !! The overlap matrix has   1 vectors deemed linearly dependent with
    eigenvalues:
 5.24D-06


      Superposition of Atomic Density Guess
      -------------------------------------

 Sum of atomic energies:        -657.36908239

      Non-variational initial energy
      ------------------------------

 Total energy =    -665.540697
 1-e energy   =   -2563.269789
 2-e energy   =    1056.764627
 HOMO         =      -0.307861
 LUMO         =       0.008024


 Starting SCF solution at     102.2s



 ----------------------------------------------
         Quadratically convergent ROHF

 Convergence threshold     :          1.000E-04
 Maximum no. of iterations :           30
 Final Fock-matrix accuracy:          1.000E-10
 ----------------------------------------------


              iter       energy          gnorm     gmax       time
             ----- ------------------- --------- --------- --------
                 1     -660.4207720403  2.28D+00  1.60D-01    217.4
                 2     -660.6939151984  7.39D-01  4.28D-02    444.7
                 3     -660.7420559581  6.03D-02  5.79D-03    786.3
                 4     -660.7426402693  1.57D-03  1.05D-04   1326.9
                 5     -660.7426405809  4.38D-06  3.64D-07   2020.5


       Final RHF  results 
       ------------------ 

         Total SCF energy =   -660.742640580917
      One-electron energy =  -2572.186817599249
      Two-electron energy =   1070.479711535553
 Nuclear repulsion energy =    840.964465482779

        Time for solution =   1923.8s


             Final eigenvalues
             -----------------

              1      
    1  -20.5509
    2  -20.5435
    3  -20.5133
    4  -15.6251
    5  -15.6018
    6  -15.5768
    7  -11.3804
    8  -11.3734
    9  -11.3476
   10  -11.3165
   11  -11.2907
   12  -11.2609
   13  -11.2532
   14   -1.4175
   15   -1.4024
   16   -1.3752
   17   -1.2728
   18   -1.2439
   19   -1.2056
   20   -1.0779
   21   -1.0117
   22   -0.9992
   23   -0.9013
   24   -0.8338
   25   -0.8133
   26   -0.7813
   27   -0.7468
   28   -0.7307
   29   -0.7045
   30   -0.6930
   31   -0.6723
   32   -0.6543
   33   -0.6350
   34   -0.6192
   35   -0.6049
   36   -0.5921
   37   -0.5888
   38   -0.5802
   39   -0.5664
   40   -0.5554
   41   -0.5519
   42   -0.5461
   43   -0.5292
   44   -0.5261
   45   -0.4631
   46   -0.4460
   47   -0.4357
   48   -0.4141
   49   -0.3981
   50   -0.3897
   51    0.0205
   52    0.0359
   53    0.0381
   54    0.0418
   55    0.0549
   56    0.0569
   57    0.0592
   58    0.0612
   59    0.0662
   60    0.0766

                       ROHF Final Molecular Orbital Analysis
                       -------------------------------------

 Vector   14  Occ=2.000000D+00  E=-1.417496D+00
              MO Center= -1.0D+00,  1.7D+00, -5.7D-01, r^2= 1.9D+00
   Bfn.  Coefficient  Atom+Function         Bfn.  Coefficient  Atom+Function  
  ----- ------------  ---------------      ----- ------------  ---------------
    80      0.338688   6 O  s                79      0.333306   6 O  s         
    54      0.233917   5 C  s                12      0.170895   2 C  s         

 Vector   15  Occ=2.000000D+00  E=-1.402372D+00
              MO Center=  1.3D+00, -4.1D-01, -2.9D-01, r^2= 2.3D+00
   Bfn.  Coefficient  Atom+Function         Bfn.  Coefficient  Atom+Function  
  ----- ------------  ---------------      ----- ------------  ---------------
   250      0.359641  16 O  s               249      0.338545  16 O  s         
   224      0.227610  15 C  s         

 Vector   16  Occ=2.000000D+00  E=-1.375249D+00
              MO Center= -9.4D-01, -3.3D+00,  3.1D-01, r^2= 1.2D+00
   Bfn.  Coefficient  Atom+Function         Bfn.  Coefficient  Atom+Function  
  ----- ------------  ---------------      ----- ------------  ---------------
   377      0.365988  23 O  s               376      0.350234  23 O  s         
   351      0.244870  22 C  s         

 Vector   17  Occ=2.000000D+00  E=-1.272780D+00
              MO Center= -9.9D-02,  1.9D+00,  1.6D-01, r^2= 1.9D+00
   Bfn.  Coefficient  Atom+Function         Bfn.  Coefficient  Atom+Function  
  ----- ------------  ---------------      ----- ------------  ---------------
   105      0.407039   7 N  s               104      0.340337   7 N  s         
    80     -0.215251   6 O  s                79     -0.181147   6 O  s         
   128      0.156888   8 H  s         

 Vector   18  Occ=2.000000D+00  E=-1.243925D+00
              MO Center=  2.1D-01, -6.9D-01, -6.7D-01, r^2= 2.1D+00
   Bfn.  Coefficient  Atom+Function         Bfn.  Coefficient  Atom+Function  
  ----- ------------  ---------------      ----- ------------  ---------------
   275      0.356281  17 N  s               274      0.342455  17 N  s         
   250     -0.205709  16 O  s               227     -0.177565  15 C  px        
   249     -0.163951  16 O  s         

 Vector   19  Occ=2.000000D+00  E=-1.205649D+00
              MO Center=  1.1D-02, -2.7D+00,  8.7D-01, r^2= 1.6D+00
   Bfn.  Coefficient  Atom+Function         Bfn.  Coefficient  Atom+Function  
  ----- ------------  ---------------      ----- ------------  ---------------
   402      0.371399  24 N  s               401      0.366739  24 N  s         
   377     -0.212418  23 O  s               376     -0.174924  23 O  s         
   354      0.164531  22 C  px              425      0.163795  25 H  s         
   434      0.156997  26 H  s         

 Vector   20  Occ=2.000000D+00  E=-1.077908D+00
              MO Center=  5.6D-01,  1.7D+00,  1.1D-01, r^2= 4.4D+00
   Bfn.  Coefficient  Atom+Function         Bfn.  Coefficient  Atom+Function  
  ----- ------------  ---------------      ----- ------------  ---------------
   138      0.246120   9 C  s               172      0.197286  11 C  s         
   144      0.166593   9 C  px               12     -0.162413   2 C  s         
    11     -0.151475   2 C  s         

 Vector   21  Occ=2.000000D+00  E=-1.011670D+00
              MO Center= -1.1D+00,  2.3D+00,  5.8D-01, r^2= 5.2D+00
   Bfn.  Coefficient  Atom+Function         Bfn.  Coefficient  Atom+Function  
  ----- ------------  ---------------      ----- ------------  ---------------
    11      0.317321   2 C  s                56     -0.232569   5 C  s         
    13      0.196491   2 C  s                55      0.151550   5 C  s         

 Vector   22  Occ=2.000000D+00  E=-9.991947D-01
              MO Center=  2.2D-01, -1.1D+00, -5.9D-01, r^2= 5.2D+00
   Bfn.  Coefficient  Atom+Function         Bfn.  Coefficient  Atom+Function  
  ----- ------------  ---------------      ----- ------------  ---------------
   308      0.300320  19 C  s               309      0.227467  19 C  s         
   139     -0.195356   9 C  s               145      0.193112   9 C  py        
   225      0.182789  15 C  s               231      0.171000  15 C  py        
   144      0.165962   9 C  px              278     -0.160498  17 N  py        

 Vector   23  Occ=2.000000D+00  E=-9.013323D-01
              MO Center=  1.3D+00,  1.1D+00,  2.7D-02, r^2= 5.7D+00
   Bfn.  Coefficient  Atom+Function         Bfn.  Coefficient  Atom+Function  
  ----- ------------  ---------------      ----- ------------  ---------------
   139      0.254781   9 C  s               172     -0.242178  11 C  s         
   145     -0.212195   9 C  py              173     -0.199691  11 C  s         
   138      0.193268   9 C  s               225     -0.151682  15 C  s         

 Vector   24  Occ=2.000000D+00  E=-8.338194D-01
              MO Center= -1.5D-01,  1.5D+00,  2.4D-01, r^2= 4.8D+00
   Bfn.  Coefficient  Atom+Function         Bfn.  Coefficient  Atom+Function  
  ----- ------------  ---------------      ----- ------------  ---------------
   107      0.285585   7 N  px              139     -0.217573   9 C  s         
   128      0.215466   8 H  s                54     -0.207625   5 C  s         
   105      0.169814   7 N  s               109      0.165329   7 N  pz        
    80      0.164318   6 O  s               309     -0.162490  19 C  s         
    56      0.159536   5 C  s                60     -0.158295   5 C  px        

 Vector   25  Occ=2.000000D+00  E=-8.133035D-01
              MO Center=  1.5D-01, -5.8D-01,  1.1D-02, r^2= 6.0D+00
   Bfn.  Coefficient  Atom+Function         Bfn.  Coefficient  Atom+Function  
  ----- ------------  ---------------      ----- ------------  ---------------
   309      0.265508  19 C  s               277      0.212737  17 N  px        
   310      0.206691  19 C  s               128      0.176048   8 H  s         
   406     -0.176163  24 N  pz              109      0.171320   7 N  pz        
   351      0.160884  22 C  s         

 Vector   26  Occ=2.000000D+00  E=-7.813484D-01
              MO Center=  4.8D-02, -1.7D+00,  3.5D-02, r^2= 4.4D+00
   Bfn.  Coefficient  Atom+Function         Bfn.  Coefficient  Atom+Function  
  ----- ------------  ---------------      ----- ------------  ---------------
   277      0.225798  17 N  px              298     -0.223755  18 H  s         
   406      0.208719  24 N  pz              225      0.186775  15 C  s         
   404      0.183085  24 N  px              353      0.179344  22 C  s         
   351     -0.176931  22 C  s               226     -0.159307  15 C  s         
   425      0.151503  25 H  s         

 Vector   27  Occ=2.000000D+00  E=-7.467639D-01
              MO Center=  5.4D-01,  3.6D-01, -3.2D-02, r^2= 5.5D+00
   Bfn.  Coefficient  Atom+Function         Bfn.  Coefficient  Atom+Function  
  ----- ------------  ---------------      ----- ------------  ---------------
   145      0.342844   9 C  py              225      0.235192  15 C  s         
   139     -0.223453   9 C  s               142      0.221793   9 C  py        
   109     -0.213896   7 N  pz              228     -0.183762  15 C  py        
   253     -0.178236  16 O  py              231      0.156474  15 C  py        
    55      0.153535   5 C  s               128     -0.151787   8 H  s         

 Vector   28  Occ=2.000000D+00  E=-7.307382D-01
              MO Center=  2.2D-01, -1.8D+00,  4.6D-01, r^2= 4.4D+00
   Bfn.  Coefficient  Atom+Function         Bfn.  Coefficient  Atom+Function  
  ----- ------------  ---------------      ----- ------------  ---------------
   425      0.282766  25 H  s               404      0.243105  24 N  px        
   405      0.231461  24 N  py              356     -0.179648  22 C  pz        
   426      0.178958  25 H  s               434     -0.173999  26 H  s         
   225     -0.160233  15 C  s               145     -0.152367   9 C  py        
   435     -0.151354  26 H  s               352     -0.150047  22 C  s         

 Vector   29  Occ=2.000000D+00  E=-7.045250D-01
              MO Center= -1.0D+00,  1.4D+00,  1.9D-02, r^2= 6.6D+00
   Bfn.  Coefficient  Atom+Function         Bfn.  Coefficient  Atom+Function  
  ----- ------------  ---------------      ----- ------------  ---------------
    57      0.240711   5 C  px               84     -0.221830   6 O  pz        
    13      0.195432   2 C  s                56     -0.189161   5 C  s         
    80      0.185011   6 O  s                16      0.181343   2 C  pz        
    19      0.170935   2 C  pz              225      0.159768  15 C  s         

 Vector   30  Occ=2.000000D+00  E=-6.930497D-01
              MO Center=  2.3D-01,  1.4D+00, -1.9D-01, r^2= 4.8D+00
   Bfn.  Coefficient  Atom+Function         Bfn.  Coefficient  Atom+Function  
  ----- ------------  ---------------      ----- ------------  ---------------
   143      0.232401   9 C  pz               84      0.212072   6 O  pz        
   162     -0.210210  10 H  s               144     -0.202657   9 C  px        
   108     -0.201148   7 N  py               80     -0.166007   6 O  s         
   146      0.153771   9 C  pz        

 Vector   31  Occ=2.000000D+00  E=-6.722701D-01
              MO Center=  1.2D-01, -1.1D+00, -1.3D-01, r^2= 6.6D+00
   Bfn.  Coefficient  Atom+Function         Bfn.  Coefficient  Atom+Function  
  ----- ------------  ---------------      ----- ------------  ---------------
   310      0.260811  19 C  s               315     -0.245862  19 C  py        
   278      0.240140  17 N  py              226     -0.231093  15 C  s         
   139     -0.214718   9 C  s               312     -0.200795  19 C  py        
   250      0.189945  16 O  s               227     -0.177391  15 C  px        
   253     -0.170300  16 O  py              309      0.165511  19 C  s         

 Vector   32  Occ=2.000000D+00  E=-6.543316D-01
              MO Center=  1.3D-02, -1.4D+00, -2.5D-01, r^2= 6.8D+00
   Bfn.  Coefficient  Atom+Function         Bfn.  Coefficient  Atom+Function  
  ----- ------------  ---------------      ----- ------------  ---------------
   341      0.217839  21 H  s               311      0.178067  19 C  px        
   252      0.170315  16 O  px              313     -0.167132  19 C  pz        
   380     -0.165917  23 O  py              353     -0.163281  22 C  s         
   354      0.161655  22 C  px              406     -0.154196  24 N  pz        

 Vector   33  Occ=2.000000D+00  E=-6.349837D-01
              MO Center= -1.1D+00,  1.7D+00,  3.9D-01, r^2= 6.6D+00
   Bfn.  Coefficient  Atom+Function         Bfn.  Coefficient  Atom+Function  
  ----- ------------  ---------------      ----- ------------  ---------------
   139      0.297512   9 C  s                15     -0.270035   2 C  py        
   310     -0.224843  19 C  s                44     -0.209144   4 H  s         
    35      0.204214   3 H  s                83     -0.168463   6 O  py        
    58     -0.152331   5 C  py              225     -0.151421  15 C  s         

 Vector   34  Occ=2.000000D+00  E=-6.192342D-01
              MO Center=  6.9D-01,  1.1D-01, -1.7D-01, r^2= 6.7D+00
   Bfn.  Coefficient  Atom+Function         Bfn.  Coefficient  Atom+Function  
  ----- ------------  ---------------      ----- ------------  ---------------
   252      0.220209  16 O  px              227     -0.182224  15 C  px        
   243     -0.174715  15 C  dxy             145     -0.171627   9 C  py        
   254      0.161728  16 O  pz               56     -0.159950   5 C  s         
   250      0.157793  16 O  s               176     -0.152608  11 C  py        
    84     -0.150618   6 O  pz              253     -0.150274  16 O  py        

 Vector   35  Occ=2.000000D+00  E=-6.049377D-01
              MO Center= -4.9D-01,  1.6D+00, -1.2D-01, r^2= 6.1D+00
   Bfn.  Coefficient  Atom+Function         Bfn.  Coefficient  Atom+Function  
  ----- ------------  ---------------      ----- ------------  ---------------
    59      0.277129   5 C  pz               84     -0.242312   6 O  pz        
    82     -0.208566   6 O  px              128     -0.164230   8 H  s         
   139     -0.160504   9 C  s                80      0.156627   6 O  s         
   109     -0.154263   7 N  pz              226     -0.153887  15 C  s         

 Vector   36  Occ=2.000000D+00  E=-5.921115D-01
              MO Center= -5.4D-01, -4.6D-01,  1.7D-01, r^2= 1.2D+01
   Bfn.  Coefficient  Atom+Function         Bfn.  Coefficient  Atom+Function  
  ----- ------------  ---------------      ----- ------------  ---------------
   379      0.254050  23 O  px              355     -0.199483  22 C  py        
     1     -0.183531   1 H  s               175     -0.159716  11 C  px        
     2     -0.153632   1 H  s                14      0.154339   2 C  px        
   311      0.151745  19 C  px        

 Vector   37  Occ=2.000000D+00  E=-5.887604D-01
              MO Center= -1.1D+00,  6.1D-01,  3.4D-01, r^2= 1.1D+01
   Bfn.  Coefficient  Atom+Function         Bfn.  Coefficient  Atom+Function  
  ----- ------------  ---------------      ----- ------------  ---------------
    13     -0.266470   2 C  s                 1      0.252124   1 H  s         
     2      0.251754   1 H  s                14     -0.205138   2 C  px        
    16     -0.200720   2 C  pz              379      0.198350  23 O  px        

 Vector   38  Occ=2.000000D+00  E=-5.801836D-01
              MO Center= -4.2D-01, -2.1D+00, -2.7D-01, r^2= 5.1D+00
   Bfn.  Coefficient  Atom+Function         Bfn.  Coefficient  Atom+Function  
  ----- ------------  ---------------      ----- ------------  ---------------
   332      0.238185  20 H  s               313     -0.201991  19 C  pz        
   380      0.202422  23 O  py              311     -0.197530  19 C  px        
   356      0.193826  22 C  pz              405      0.174556  24 N  py        
   354     -0.167830  22 C  px              359      0.152075  22 C  pz        

 Vector   39  Occ=2.000000D+00  E=-5.664306D-01
              MO Center=  1.0D+00,  4.2D-01,  2.0D-01, r^2= 8.4D+00
   Bfn.  Coefficient  Atom+Function         Bfn.  Coefficient  Atom+Function  
  ----- ------------  ---------------      ----- ------------  ---------------
   177      0.249935  11 C  pz              196      0.231355  12 H  s         
   206     -0.230185  13 H  s               254     -0.186308  16 O  pz        
   174      0.174158  11 C  s               197      0.172792  12 H  s         
   205     -0.166886  13 H  s               229     -0.166401  15 C  pz        
   379     -0.150678  23 O  px        

 Vector   40  Occ=2.000000D+00  E=-5.553764D-01
              MO Center=  2.7D-01,  1.0D+00,  5.1D-02, r^2= 7.9D+00
   Bfn.  Coefficient  Atom+Function         Bfn.  Coefficient  Atom+Function  
  ----- ------------  ---------------      ----- ------------  ---------------
   141      0.178266   9 C  px              108      0.176485   7 N  py        
   176     -0.174535  11 C  py              254      0.174042  16 O  pz        
   214     -0.163079  14 H  s                44     -0.154489   4 H  s         
    14     -0.150730   2 C  px              111      0.151295   7 N  py        

 Vector   41  Occ=2.000000D+00  E=-5.518551D-01
              MO Center=  1.4D+00,  1.4D+00,  1.0D-01, r^2= 6.7D+00
   Bfn.  Coefficient  Atom+Function         Bfn.  Coefficient  Atom+Function  
  ----- ------------  ---------------      ----- ------------  ---------------
   206     -0.285342  13 H  s               176      0.271857  11 C  py        
   214      0.257072  14 H  s               205     -0.239640  13 H  s         
    12     -0.233405   2 C  s               215      0.214376  14 H  s         
    55      0.201697   5 C  s               228      0.160607  15 C  py        
   254      0.151821  16 O  pz        

 Vector   42  Occ=2.000000D+00  E=-5.461001D-01
              MO Center= -2.2D-01,  1.4D+00,  1.7D-01, r^2= 7.7D+00
   Bfn.  Coefficient  Atom+Function         Bfn.  Coefficient  Atom+Function  
  ----- ------------  ---------------      ----- ------------  ---------------
    83      0.239461   6 O  py              175      0.210468  11 C  px        
   141     -0.194143   9 C  px               35      0.187393   3 H  s         
    86      0.184250   6 O  py               15     -0.173034   2 C  py        
   276      0.155884  17 N  s                58      0.151926   5 C  py        

 Vector   43  Occ=2.000000D+00  E=-5.291704D-01
              MO Center=  5.2D-01, -1.6D-01,  1.5D-03, r^2= 8.9D+00
   Bfn.  Coefficient  Atom+Function         Bfn.  Coefficient  Atom+Function  
  ----- ------------  ---------------      ----- ------------  ---------------
   143      0.213528   9 C  pz              162     -0.203924  10 H  s         
   177     -0.194999  11 C  pz              196     -0.195270  12 H  s         
   197     -0.183915  12 H  s               173      0.175784  11 C  s         
   178     -0.174595  11 C  px              139     -0.156485   9 C  s         
   380      0.155839  23 O  py        

 Vector   44  Occ=2.000000D+00  E=-5.260882D-01
              MO Center=  6.6D-01, -6.6D-01, -1.9D-01, r^2= 7.6D+00
   Bfn.  Coefficient  Atom+Function         Bfn.  Coefficient  Atom+Function  
  ----- ------------  ---------------      ----- ------------  ---------------
   333     -0.217955  20 H  s               178      0.210754  11 C  px        
   341      0.191556  21 H  s               311      0.187628  19 C  px        
   143     -0.175313   9 C  pz              162      0.169533  10 H  s         
   174      0.169289  11 C  s               215     -0.162885  14 H  s         
   173     -0.160799  11 C  s               252     -0.157725  16 O  px        

 Vector   45  Occ=2.000000D+00  E=-4.631344D-01
              MO Center=  4.2D-01,  6.1D-01, -3.1D-01, r^2= 5.4D+00
   Bfn.  Coefficient  Atom+Function         Bfn.  Coefficient  Atom+Function  
  ----- ------------  ---------------      ----- ------------  ---------------
   253      0.322993  16 O  py              256      0.265253  16 O  py        
    13      0.251935   2 C  s                82     -0.230698   6 O  px        
   252      0.205534  16 O  px               83     -0.190253   6 O  py        
   108      0.186457   7 N  py               85     -0.181565   6 O  px        
   111      0.175399   7 N  py              139     -0.168047   9 C  s         

 Vector   46  Occ=2.000000D+00  E=-4.460204D-01
              MO Center= -1.2D+00,  1.7D+00, -5.3D-01, r^2= 3.4D+00
   Bfn.  Coefficient  Atom+Function         Bfn.  Coefficient  Atom+Function  
  ----- ------------  ---------------      ----- ------------  ---------------
    13      0.473836   2 C  s                82     -0.442763   6 O  px        
    56     -0.363949   5 C  s                85     -0.362155   6 O  px        
    83      0.247961   6 O  py               63      0.229496   5 C  px        
    86      0.201325   6 O  py              105      0.198804   7 N  s         
    16      0.171087   2 C  pz               19      0.167447   2 C  pz        

 Vector   47  Occ=2.000000D+00  E=-4.357391D-01
              MO Center= -2.8D-01, -2.1D+00, -7.7D-02, r^2= 5.5D+00
   Bfn.  Coefficient  Atom+Function         Bfn.  Coefficient  Atom+Function  
  ----- ------------  ---------------      ----- ------------  ---------------
   381      0.394874  23 O  pz              384      0.302908  23 O  pz        
   279      0.256386  17 N  pz              254     -0.252819  16 O  pz        
   282      0.224544  17 N  pz              257     -0.199352  16 O  pz        
    56     -0.190183   5 C  s               379      0.159223  23 O  px        

 Vector   48  Occ=2.000000D+00  E=-4.140593D-01
              MO Center=  4.0D-01,  7.2D-01, -1.0D-01, r^2= 5.2D+00
   Bfn.  Coefficient  Atom+Function         Bfn.  Coefficient  Atom+Function  
  ----- ------------  ---------------      ----- ------------  ---------------
   108      0.318672   7 N  py              111      0.288335   7 N  py        
   253     -0.275073  16 O  py              256     -0.212629  16 O  py        
    83     -0.210775   6 O  py              142     -0.180155   9 C  py        
    13      0.172875   2 C  s               145     -0.172389   9 C  py        
    86     -0.171120   6 O  py              228      0.158692  15 C  py        

 Vector   49  Occ=2.000000D+00  E=-3.980773D-01
              MO Center= -3.8D-01, -2.7D+00,  6.2D-01, r^2= 3.6D+00
   Bfn.  Coefficient  Atom+Function         Bfn.  Coefficient  Atom+Function  
  ----- ------------  ---------------      ----- ------------  ---------------
   310      0.339744  19 C  s               405      0.284034  24 N  py        
   404     -0.269205  24 N  px              381     -0.267665  23 O  pz        
   408      0.239820  24 N  py              407     -0.223096  24 N  px        
   380     -0.220838  23 O  py              384     -0.206420  23 O  pz        
   379      0.187257  23 O  px              383     -0.171970  23 O  py        

 Vector   50  Occ=2.000000D+00  E=-3.897153D-01
              MO Center= -1.9D-01, -2.0D+00, -2.1D-01, r^2= 4.4D+00
   Bfn.  Coefficient  Atom+Function         Bfn.  Coefficient  Atom+Function  
  ----- ------------  ---------------      ----- ------------  ---------------
   279      0.318465  17 N  pz              282      0.283215  17 N  pz        
   381     -0.259446  23 O  pz               56     -0.219620   5 C  s         
   380      0.208229  23 O  py              254     -0.203277  16 O  pz        
   384     -0.200267  23 O  pz              276     -0.172520  17 N  s         
   257     -0.164600  16 O  pz              313     -0.159269  19 C  pz        

 Vector   51  Occ=0.000000D+00  E= 2.050130D-02
              MO Center=  1.7D-01,  3.6D+00,  2.2D+00, r^2= 1.8D+01
   Bfn.  Coefficient  Atom+Function         Bfn.  Coefficient  Atom+Function  
  ----- ------------  ---------------      ----- ------------  ---------------
   106     -2.845695   7 N  s                56      2.612067   5 C  s         
   226      2.468766  15 C  s               234      2.108866  15 C  py        
   310      2.116649  19 C  s                63     -1.754372   5 C  px        
    46     -1.707543   4 H  s               216     -1.626586  14 H  s         
   148      1.618347   9 C  py              174      1.554379  11 C  s         

 Vector   52  Occ=0.000000D+00  E= 3.589601D-02
              MO Center=  1.1D+00,  2.3D+00,  8.4D-01, r^2= 2.9D+01
   Bfn.  Coefficient  Atom+Function         Bfn.  Coefficient  Atom+Function  
  ----- ------------  ---------------      ----- ------------  ---------------
   216      2.819773  14 H  s                63     -2.519334   5 C  px        
    37     -2.451567   3 H  s               233     -2.163412  15 C  px        
    64      1.768329   5 C  py              140      1.634006   9 C  s         
   234     -1.618253  15 C  py              310     -1.498417  19 C  s         
   403     -1.501287  24 N  s                12      1.475591   2 C  s         

 Vector   53  Occ=0.000000D+00  E= 3.810766D-02
              MO Center=  3.3D-02,  2.0D+00,  1.8D+00, r^2= 3.3D+01
   Bfn.  Coefficient  Atom+Function         Bfn.  Coefficient  Atom+Function  
  ----- ------------  ---------------      ----- ------------  ---------------
    63      3.319165   5 C  px              147      3.211424   9 C  px        
   310      2.848632  19 C  s                46      2.254580   4 H  s         
   198     -1.959979  12 H  s                 3      1.718776   1 H  s         
   173      1.641347  11 C  s                13      1.625515   2 C  s         
    12     -1.608000   2 C  s                64     -1.596368   5 C  py        

 Vector   54  Occ=0.000000D+00  E= 4.181225D-02
              MO Center=  1.2D-01,  4.5D-01, -1.0D+00, r^2= 3.3D+01
   Bfn.  Coefficient  Atom+Function         Bfn.  Coefficient  Atom+Function  
  ----- ------------  ---------------      ----- ------------  ---------------
   234      4.374674  15 C  py              149      3.570850   9 C  pz        
   353     -3.244800  22 C  s               164      3.217250  10 H  s         
   174     -3.039783  11 C  s                56     -2.091959   5 C  s         
   130     -2.030269   8 H  s               106     -1.892915   7 N  s         
     3      1.830160   1 H  s               216     -1.804909  14 H  s         

 Vector   55  Occ=0.000000D+00  E= 5.487562D-02
              MO Center=  2.4D-01,  1.6D+00,  1.5D-01, r^2= 4.0D+01
   Bfn.  Coefficient  Atom+Function         Bfn.  Coefficient  Atom+Function  
  ----- ------------  ---------------      ----- ------------  ---------------
    56      4.785445   5 C  s                 3      3.638506   1 H  s         
   234     -3.476478  15 C  py              164     -2.963188  10 H  s         
   276     -2.929101  17 N  s                63      2.911296   5 C  px        
   130     -2.725666   8 H  s               149     -2.590252   9 C  pz        
   207      2.585023  13 H  s               113      2.422109   7 N  px        

 Vector   56  Occ=0.000000D+00  E= 5.694141D-02
              MO Center= -1.0D-01, -8.2D-01,  2.1D+00, r^2= 3.3D+01
   Bfn.  Coefficient  Atom+Function         Bfn.  Coefficient  Atom+Function  
  ----- ------------  ---------------      ----- ------------  ---------------
    13      2.997107   2 C  s                46      2.640706   4 H  s         
   436      2.608066  26 H  s                63      2.492044   5 C  px        
   130     -2.490687   8 H  s               362     -2.457644  22 C  pz        
   403      2.270397  24 N  s               334     -2.108278  20 H  s         
    37     -1.868968   3 H  s               276     -1.851374  17 N  s         

 Vector   57  Occ=0.000000D+00  E= 5.917856D-02
              MO Center= -1.3D-01,  3.2D-01, -4.8D-01, r^2= 3.6D+01
   Bfn.  Coefficient  Atom+Function         Bfn.  Coefficient  Atom+Function  
  ----- ------------  ---------------      ----- ------------  ---------------
    37      3.610624   3 H  s               164      3.481933  10 H  s         
   276     -3.416775  17 N  s               226      3.110226  15 C  s         
    56     -3.089528   5 C  s               198     -2.979079  12 H  s         
   310      2.603202  19 C  s               149      2.490609   9 C  pz        
   334     -1.995786  20 H  s               113     -1.982336   7 N  px        

 Vector   58  Occ=0.000000D+00  E= 6.122379D-02
              MO Center=  4.5D-01,  1.0D+00, -5.5D-01, r^2= 3.8D+01
   Bfn.  Coefficient  Atom+Function         Bfn.  Coefficient  Atom+Function  
  ----- ------------  ---------------      ----- ------------  ---------------
    13      5.483089   2 C  s               207     -4.087667  13 H  s         
   216      3.467674  14 H  s               343     -3.155152  21 H  s         
   334      3.089993  20 H  s                46     -2.281692   4 H  s         
     3      2.269981   1 H  s               317      2.216530  19 C  px        
   174     -2.020541  11 C  s                63      1.991046   5 C  px        

 Vector   59  Occ=0.000000D+00  E= 6.622636D-02
              MO Center=  7.5D-01,  1.2D+00,  1.9D-01, r^2= 3.5D+01
   Bfn.  Coefficient  Atom+Function         Bfn.  Coefficient  Atom+Function  
  ----- ------------  ---------------      ----- ------------  ---------------
   216      4.953491  14 H  s               164     -4.343945  10 H  s         
   198     -3.421861  12 H  s               149     -3.392224   9 C  pz        
   353     -3.051743  22 C  s                37      2.959739   3 H  s         
   174      2.584806  11 C  s                56      2.216552   5 C  s         
   182     -2.154254  11 C  py              310     -2.090073  19 C  s         

 Vector   60  Occ=0.000000D+00  E= 7.659201D-02
              MO Center= -3.9D-01, -1.0D-02, -1.2D+00, r^2= 4.1D+01
   Bfn.  Coefficient  Atom+Function         Bfn.  Coefficient  Atom+Function  
  ----- ------------  ---------------      ----- ------------  ---------------
    56      7.908494   5 C  s               226     -7.149691  15 C  s         
   334     -5.443294  20 H  s               343      5.107269  21 H  s         
   140     -4.589828   9 C  s               317     -3.933762  19 C  px        
   207     -3.853168  13 H  s                 3      3.698052   1 H  s         
   113      3.687451   7 N  px               46     -3.590738   4 H  s         

 Vector   61  Occ=0.000000D+00  E= 8.477250D-02
              MO Center=  8.5D-01,  1.9D+00,  1.4D+00, r^2= 3.1D+01
   Bfn.  Coefficient  Atom+Function         Bfn.  Coefficient  Atom+Function  
  ----- ------------  ---------------      ----- ------------  ---------------
   130      6.067973   8 H  s               198     -5.621792  12 H  s         
   207      5.268130  13 H  s                56     -4.784228   5 C  s         
    13      4.111941   2 C  s                37     -3.263696   3 H  s         
     3      2.900745   1 H  s               149     -2.729934   9 C  pz        
   234     -2.711670  15 C  py              164     -2.674299  10 H  s         

 Vector   62  Occ=0.000000D+00  E= 8.889100D-02
              MO Center=  6.3D-01, -5.7D-01,  1.5D+00, r^2= 3.1D+01
   Bfn.  Coefficient  Atom+Function         Bfn.  Coefficient  Atom+Function  
  ----- ------------  ---------------      ----- ------------  ---------------
    56     16.489700   5 C  s                13    -10.951481   2 C  s         
   353      9.174815  22 C  s               310     -8.803954  19 C  s         
   427     -7.482031  25 H  s               234     -4.252557  15 C  py        
   148     -4.157812   9 C  py              436      4.072554  26 H  s         
   226     -3.639155  15 C  s               149     -3.290661   9 C  pz        

 Vector   63  Occ=0.000000D+00  E= 9.918372D-02
              MO Center= -2.6D-01,  4.6D-01,  1.2D+00, r^2= 3.4D+01
   Bfn.  Coefficient  Atom+Function         Bfn.  Coefficient  Atom+Function  
  ----- ------------  ---------------      ----- ------------  ---------------
    56     20.778357   5 C  s                13    -18.666601   2 C  s         
    63     -6.748510   5 C  px              174      6.157046  11 C  s         
   226     -6.018074  15 C  s               427      5.246611  25 H  s         
    65      5.206199   5 C  pz               22      4.689768   2 C  pz        
   310     -4.092940  19 C  s               147     -3.719824   9 C  px        

 Vector   64  Occ=0.000000D+00  E= 1.010031D-01
              MO Center= -9.0D-01, -1.0D+00, -2.0D+00, r^2= 2.6D+01
   Bfn.  Coefficient  Atom+Function         Bfn.  Coefficient  Atom+Function  
  ----- ------------  ---------------      ----- ------------  ---------------
   353     11.775490  22 C  s               300     10.044184  18 H  s         
   310     -8.958852  19 C  s               226     -7.199021  15 C  s         
   174      5.678320  11 C  s               334     -5.681053  20 H  s         
   149     -5.142933   9 C  pz               13     -4.948015   2 C  s         
   164     -4.845901  10 H  s               319     -4.234013  19 C  pz        

 Vector   65  Occ=0.000000D+00  E= 1.137091D-01
              MO Center= -8.6D-01, -1.2D+00, -4.5D-01, r^2= 3.0D+01
   Bfn.  Coefficient  Atom+Function         Bfn.  Coefficient  Atom+Function  
  ----- ------------  ---------------      ----- ------------  ---------------
   310     24.690074  19 C  s               353    -23.974149  22 C  s         
    56     18.556149   5 C  s                13    -14.392317   2 C  s         
   226    -11.039323  15 C  s                65      6.706268   5 C  pz        
   403      6.302790  24 N  s               361     -6.087841  22 C  py        
   319      6.010303  19 C  pz              300      5.197750  18 H  s         

 Vector   66  Occ=0.000000D+00  E= 1.162828D-01
              MO Center= -3.0D-01,  2.3D-01, -4.5D-01, r^2= 2.9D+01
   Bfn.  Coefficient  Atom+Function         Bfn.  Coefficient  Atom+Function  
  ----- ------------  ---------------      ----- ------------  ---------------
   226     13.066043  15 C  s               174     -9.228241  11 C  s         
    56     -8.555451   5 C  s               140      7.184285   9 C  s         
   353     -7.031893  22 C  s                63     -5.597204   5 C  px        
   148      5.608340   9 C  py              233     -4.801243  15 C  px        
   106      4.389645   7 N  s               300      4.040428  18 H  s         

 Vector   67  Occ=0.000000D+00  E= 1.252312D-01
              MO Center= -6.0D-01,  2.4D+00,  9.9D-01, r^2= 2.4D+01
   Bfn.  Coefficient  Atom+Function         Bfn.  Coefficient  Atom+Function  
  ----- ------------  ---------------      ----- ------------  ---------------
    56     27.146116   5 C  s                13    -23.921811   2 C  s         
   106    -13.515478   7 N  s                63    -10.086753   5 C  px        
    65      9.977007   5 C  pz              147     -8.583473   9 C  px        
   226      7.713477  15 C  s                64      7.279507   5 C  py        
   148      6.489628   9 C  py               22      5.726694   2 C  pz        

 Vector   68  Occ=0.000000D+00  E= 1.326129D-01
              MO Center=  4.1D-01,  3.2D-01,  3.3D-01, r^2= 2.6D+01
   Bfn.  Coefficient  Atom+Function         Bfn.  Coefficient  Atom+Function  
  ----- ------------  ---------------      ----- ------------  ---------------
   226     11.490574  15 C  s               310    -11.240160  19 C  s         
   353      8.254581  22 C  s               174     -7.010617  11 C  s         
   233     -6.282052  15 C  px              140      6.209452   9 C  s         
   403     -6.157136  24 N  s               284     -5.401770  17 N  py        
   147      3.975541   9 C  px              318     -3.896166  19 C  py        

 Vector   69  Occ=0.000000D+00  E= 1.415981D-01
              MO Center= -3.3D-01, -4.9D-01,  2.8D-02, r^2= 2.7D+01
   Bfn.  Coefficient  Atom+Function         Bfn.  Coefficient  Atom+Function  
  ----- ------------  ---------------      ----- ------------  ---------------
    13     13.887189   2 C  s                63     11.544813   5 C  px        
    56     -8.420155   5 C  s               174      8.328378  11 C  s         
   148     -7.096541   9 C  py              234     -6.715816  15 C  py        
   233     -6.505418  15 C  px              276     -4.964755  17 N  s         
    22     -4.471222   2 C  pz               64     -4.411399   5 C  py        

 Vector   70  Occ=0.000000D+00  E= 1.431406D-01
              MO Center=  1.2D+00,  1.3D+00,  6.1D-01, r^2= 2.7D+01
   Bfn.  Coefficient  Atom+Function         Bfn.  Coefficient  Atom+Function  
  ----- ------------  ---------------      ----- ------------  ---------------
    13     12.981313   2 C  s               174    -10.614761  11 C  s         
   147     10.086366   9 C  px               63      8.937977   5 C  px        
   226      7.439356  15 C  s                64     -4.967090   5 C  py        
   198     -4.672622  12 H  s               183      4.594087  11 C  pz        
   181      4.510777  11 C  px              106     -4.208904   7 N  s         

 Vector   71  Occ=0.000000D+00  E= 1.466098D-01
              MO Center=  9.4D-01,  1.1D+00, -3.7D-02, r^2= 3.1D+01
   Bfn.  Coefficient  Atom+Function         Bfn.  Coefficient  Atom+Function  
  ----- ------------  ---------------      ----- ------------  ---------------
   147     15.540344   9 C  px              174    -12.511095  11 C  s         
    13     11.830397   2 C  s                63     11.550138   5 C  px        
    64     -6.252966   5 C  py              140     -6.053471   9 C  s         
    65     -5.574744   5 C  pz              216     -4.932987  14 H  s         
   235      4.948039  15 C  pz              284      4.749377  17 N  py        

 Vector   72  Occ=0.000000D+00  E= 1.500181D-01
              MO Center= -6.3D-01, -3.0D-01, -1.6D-02, r^2= 2.4D+01
   Bfn.  Coefficient  Atom+Function         Bfn.  Coefficient  Atom+Function  
  ----- ------------  ---------------      ----- ------------  ---------------
   310     12.003901  19 C  s               234     10.577249  15 C  py        
   353    -10.099666  22 C  s                56     -9.283041   5 C  s         
   233      8.287314  15 C  px              147     -5.977616   9 C  px        
   149      5.623200   9 C  pz              403      5.533107  24 N  s         
   276      5.067177  17 N  s               226     -5.004034  15 C  s         

 Vector   73  Occ=0.000000D+00  E= 1.538266D-01
              MO Center= -3.6D-01,  2.1D+00, -4.5D-01, r^2= 2.5D+01
   Bfn.  Coefficient  Atom+Function         Bfn.  Coefficient  Atom+Function  
  ----- ------------  ---------------      ----- ------------  ---------------
   147      6.468032   9 C  px              174     -5.420051  11 C  s         
    56     -5.102846   5 C  s                63      5.102565   5 C  px        
    21     -4.341827   2 C  py               13      4.146387   2 C  s         
    46      3.944151   4 H  s               233     -3.625757  15 C  px        
   183      3.503226  11 C  pz               81      3.293386   6 O  s         

 Vector   74  Occ=0.000000D+00  E= 1.559546D-01
              MO Center=  4.9D-01, -5.2D-01,  4.9D-01, r^2= 2.8D+01
   Bfn.  Coefficient  Atom+Function         Bfn.  Coefficient  Atom+Function  
  ----- ------------  ---------------      ----- ------------  ---------------
   403     12.091076  24 N  s               353     -8.335158  22 C  s         
   234      7.313416  15 C  py              362     -7.325305  22 C  pz        
   174     -7.078904  11 C  s               360     -5.485487  22 C  px        
   427      4.621260  25 H  s               318      4.087338  19 C  py        
   181      3.953822  11 C  px              147      3.833202   9 C  px        

 Vector   75  Occ=0.000000D+00  E= 1.580677D-01
              MO Center=  1.9D-02,  1.4D+00, -6.8D-01, r^2= 2.6D+01
   Bfn.  Coefficient  Atom+Function         Bfn.  Coefficient  Atom+Function  
  ----- ------------  ---------------      ----- ------------  ---------------
    56     12.081137   5 C  s               226     -8.511307  15 C  s         
    13     -7.966690   2 C  s               106      5.745617   7 N  s         
   147     -5.451722   9 C  px               63     -5.402665   5 C  px        
   148     -4.500404   9 C  py              310      4.483190  19 C  s         
   300     -4.184698  18 H  s               233      4.154704  15 C  px        

 Vector   76  Occ=0.000000D+00  E= 1.604506D-01
              MO Center=  8.0D-02,  6.5D-01, -7.6D-02, r^2= 2.9D+01
   Bfn.  Coefficient  Atom+Function         Bfn.  Coefficient  Atom+Function  
  ----- ------------  ---------------      ----- ------------  ---------------
   234     11.067746  15 C  py              353     -7.921130  22 C  s         
   310      7.191858  19 C  s               226     -6.155340  15 C  s         
   149      5.691502   9 C  pz              140     -5.373185   9 C  s         
   106     -4.763113   7 N  s                37      4.082616   3 H  s         
   233      4.100696  15 C  px              130     -3.850596   8 H  s         

 Vector   77  Occ=0.000000D+00  E= 1.627447D-01
              MO Center=  3.4D-01,  9.9D-01,  6.4D-01, r^2= 2.1D+01
   Bfn.  Coefficient  Atom+Function         Bfn.  Coefficient  Atom+Function  
  ----- ------------  ---------------      ----- ------------  ---------------
   226      8.711591  15 C  s               113     -6.873347   7 N  px        
   149      5.664205   9 C  pz               56     -5.420558   5 C  s         
   234      4.512662  15 C  py              140      4.395144   9 C  s         
    65     -4.090970   5 C  pz              353      3.662312  22 C  s         
    63     -3.511461   5 C  px              310     -3.410270  19 C  s         

 Vector   78  Occ=0.000000D+00  E= 1.641361D-01
              MO Center= -5.2D-01,  3.8D-01, -3.6D-01, r^2= 3.0D+01
   Bfn.  Coefficient  Atom+Function         Bfn.  Coefficient  Atom+Function  
  ----- ------------  ---------------      ----- ------------  ---------------
   310     17.460614  19 C  s               149      7.783687   9 C  pz        
   300     -6.480236  18 H  s               234      6.198052  15 C  py        
   318      5.197175  19 C  py               63     -5.058465   5 C  px        
   276     -4.990098  17 N  s               174     -4.825678  11 C  s         
   164      4.497104  10 H  s               207     -4.082629  13 H  s         

 Vector   79  Occ=0.000000D+00  E= 1.713219D-01
              MO Center= -1.1D-01,  2.8D-01,  1.7D-01, r^2= 3.0D+01
   Bfn.  Coefficient  Atom+Function         Bfn.  Coefficient  Atom+Function  
  ----- ------------  ---------------      ----- ------------  ---------------
   310     17.493661  19 C  s               174    -11.233803  11 C  s         
   276     -7.248144  17 N  s               130      6.571624   8 H  s         
   147      6.159827   9 C  px              148      5.937602   9 C  py        
   226      5.714745  15 C  s               284      5.526124  17 N  py        
   149      5.336434   9 C  pz              234      5.002378  15 C  py        

 Vector   80  Occ=0.000000D+00  E= 1.758643D-01
              MO Center=  1.7D+00,  7.7D-01,  6.5D-01, r^2= 2.7D+01
   Bfn.  Coefficient  Atom+Function         Bfn.  Coefficient  Atom+Function  
  ----- ------------  ---------------      ----- ------------  ---------------
   233     -5.672454  15 C  px              147      5.358281   9 C  px        
   207      5.363938  13 H  s               149     -5.266885   9 C  pz        
   181     -5.128656  11 C  px              226     -5.026942  15 C  s         
   148     -4.438753   9 C  py              362      4.403448  22 C  pz        
   164     -3.895814  10 H  s               130     -3.843459   8 H  s         

 Vector   81  Occ=0.000000D+00  E= 1.761475D-01
              MO Center= -1.0D+00,  3.6D-01, -1.4D-01, r^2= 2.4D+01
   Bfn.  Coefficient  Atom+Function         Bfn.  Coefficient  Atom+Function  
  ----- ------------  ---------------      ----- ------------  ---------------
   276     10.414051  17 N  s               300      7.663346  18 H  s         
    64      6.853185   5 C  py               63     -6.619473   5 C  px        
   362      5.341751  22 C  pz              234      5.220996  15 C  py        
   318     -5.134085  19 C  py               56     -4.943212   5 C  s         
   147     -4.467521   9 C  px               13     -4.367792   2 C  s         

 Vector   82  Occ=0.000000D+00  E= 1.779519D-01
              MO Center= -8.2D-01, -6.1D-01, -1.0D+00, r^2= 2.4D+01
   Bfn.  Coefficient  Atom+Function         Bfn.  Coefficient  Atom+Function  
  ----- ------------  ---------------      ----- ------------  ---------------
   334      6.812760  20 H  s                56     -5.748641   5 C  s         
   300     -5.424058  18 H  s                13      5.389699   2 C  s         
    65     -5.415502   5 C  pz              234      4.953173  15 C  py        
   317      4.372796  19 C  px              284     -3.974882  17 N  py        
   148     -3.759761   9 C  py              147     -3.643520   9 C  px        

 Vector   83  Occ=0.000000D+00  E= 1.805773D-01
              MO Center= -6.4D-01,  1.3D+00, -3.0D-01, r^2= 2.3D+01
   Bfn.  Coefficient  Atom+Function         Bfn.  Coefficient  Atom+Function  
  ----- ------------  ---------------      ----- ------------  ---------------
    56     13.265159   5 C  s               106    -11.266020   7 N  s         
   174     -9.244313  11 C  s                13     -8.163109   2 C  s         
   300      6.389787  18 H  s               353     -4.530832  22 C  s         
    65      4.507568   5 C  pz               12     -4.257448   2 C  s         
    63      4.261395   5 C  px              234      4.032942  15 C  py        

 Vector   84  Occ=0.000000D+00  E= 1.900102D-01
              MO Center=  7.5D-01, -1.0D+00, -3.3D-01, r^2= 2.3D+01
   Bfn.  Coefficient  Atom+Function         Bfn.  Coefficient  Atom+Function  
  ----- ------------  ---------------      ----- ------------  ---------------
   276      7.721770  17 N  s                56      7.320625   5 C  s         
   149     -6.658822   9 C  pz              353     -6.335408  22 C  s         
   362      4.556021  22 C  pz              164     -3.997447  10 H  s         
   310     -3.924882  19 C  s               198     -3.750208  12 H  s         
   216      3.601942  14 H  s                63      3.471562   5 C  px        

 Vector   85  Occ=0.000000D+00  E= 1.926551D-01
              MO Center=  2.2D-01, -1.6D+00, -3.0D-01, r^2= 2.2D+01
   Bfn.  Coefficient  Atom+Function         Bfn.  Coefficient  Atom+Function  
  ----- ------------  ---------------      ----- ------------  ---------------
    56      8.669819   5 C  s               318      7.896260  19 C  py        
   353      7.742846  22 C  s               234      7.142506  15 C  py        
   343      5.585260  21 H  s               300     -4.958344  18 H  s         
   310      4.982227  19 C  s               174     -4.238246  11 C  s         
    13     -3.878142   2 C  s               226     -3.731538  15 C  s         

 Vector   86  Occ=0.000000D+00  E= 1.954546D-01
              MO Center=  3.8D-01,  8.2D-01,  1.6D-01, r^2= 2.8D+01
   Bfn.  Coefficient  Atom+Function         Bfn.  Coefficient  Atom+Function  
  ----- ------------  ---------------      ----- ------------  ---------------
   226    -11.055224  15 C  s               174     10.210220  11 C  s         
   148     -8.053527   9 C  py               13      7.171459   2 C  s         
   140     -6.175246   9 C  s                63      6.132845   5 C  px        
   198      5.337231  12 H  s               147     -5.294617   9 C  px        
   183     -5.152960  11 C  pz              310      5.160806  19 C  s         

 Vector   87  Occ=0.000000D+00  E= 2.036543D-01
              MO Center=  1.2D+00, -8.1D-02, -1.5D-02, r^2= 2.4D+01
   Bfn.  Coefficient  Atom+Function         Bfn.  Coefficient  Atom+Function  
  ----- ------------  ---------------      ----- ------------  ---------------
   276    -13.946879  17 N  s               147     12.980478   9 C  px        
   174    -12.618465  11 C  s               233    -11.323797  15 C  px        
   310      8.432782  19 C  s               226      8.196429  15 C  s         
   140      6.237377   9 C  s               148      5.374126   9 C  py        
   182     -4.936507  11 C  py              235     -4.597865  15 C  pz        

 Vector   88  Occ=0.000000D+00  E= 2.061605D-01
              MO Center=  7.3D-01,  4.3D-02, -1.6D-01, r^2= 2.6D+01
   Bfn.  Coefficient  Atom+Function         Bfn.  Coefficient  Atom+Function  
  ----- ------------  ---------------      ----- ------------  ---------------
   226     18.845298  15 C  s                13    -15.361871   2 C  s         
    63    -14.522314   5 C  px              140     13.645662   9 C  s         
   276     -9.922132  17 N  s               113     -8.033800   7 N  px        
   148      8.025795   9 C  py              147     -7.409272   9 C  px        
    56     -5.549797   5 C  s               300     -5.508430  18 H  s         

 Vector   89  Occ=0.000000D+00  E= 2.110727D-01
              MO Center= -3.9D-01,  2.0D+00,  8.0D-01, r^2= 2.1D+01
   Bfn.  Coefficient  Atom+Function         Bfn.  Coefficient  Atom+Function  
  ----- ------------  ---------------      ----- ------------  ---------------
   147     17.667110   9 C  px               56     10.356727   5 C  s         
    13      9.020173   2 C  s               233     -8.535090  15 C  px        
   226     -8.468665  15 C  s               310     -7.895563  19 C  s         
   234     -6.972043  15 C  py               63      6.904430   5 C  px        
   140     -5.447117   9 C  s               148     -4.980927   9 C  py        

 Vector   90  Occ=0.000000D+00  E= 2.156593D-01
              MO Center=  3.1D-01, -8.6D-02, -1.9D-01, r^2= 2.4D+01
   Bfn.  Coefficient  Atom+Function         Bfn.  Coefficient  Atom+Function  
  ----- ------------  ---------------      ----- ------------  ---------------
    13     29.649369   2 C  s                56    -18.439755   5 C  s         
   226    -16.988605  15 C  s               310     16.639384  19 C  s         
    63     14.829338   5 C  px              149    -13.402169   9 C  pz        
   235     11.971012  15 C  pz              148    -11.365857   9 C  py        
   234     -9.067145  15 C  py              140     -7.790883   9 C  s         

 Vector   91  Occ=0.000000D+00  E= 2.248286D-01
              MO Center= -1.5D-01,  9.8D-01,  2.5D-01, r^2= 2.7D+01
   Bfn.  Coefficient  Atom+Function         Bfn.  Coefficient  Atom+Function  
  ----- ------------  ---------------      ----- ------------  ---------------
    56     57.430614   5 C  s                13    -39.164176   2 C  s         
   353     18.928474  22 C  s               226    -12.630179  15 C  s         
[...]
    63    -12.552537   5 C  px              140     11.579812   9 C  s         
   353    -11.350270  22 C  s               403     10.384556  24 N  s         
   147     -8.452718   9 C  px              113     -7.627964   7 N  px        
   148      6.445618   9 C  py               56     -6.378601   5 C  s         

 Vector  125  Occ=0.000000D+00  E= 4.112600D-01
              MO Center= -1.1D-02,  1.2D+00, -1.8D-01, r^2= 1.7D+01
   Bfn.  Coefficient  Atom+Function         Bfn.  Coefficient  Atom+Function  
  ----- ------------  ---------------      ----- ------------  ---------------
    56     23.883823   5 C  s               113     14.775125   7 N  px        
   226    -13.909436  15 C  s               149    -11.596652   9 C  pz        
   276     11.253058  17 N  s               140    -10.226743   9 C  s         
    12     -8.402541   2 C  s               235      6.644198  15 C  pz        
   403      6.203538  24 N  s               174     -5.811998  11 C  s         

 Vector  126  Occ=0.000000D+00  E= 4.188544D-01
              MO Center= -2.1D-01,  7.4D-01,  6.4D-02, r^2= 2.1D+01
   Bfn.  Coefficient  Atom+Function         Bfn.  Coefficient  Atom+Function  
  ----- ------------  ---------------      ----- ------------  ---------------
    56     18.172293   5 C  s               310    -12.163480  19 C  s         
   226    -11.277562  15 C  s               113      8.746057   7 N  px        
   276      7.677553  17 N  s               173      7.220011  11 C  s         
   284     -6.023677  17 N  py              139     -5.532768   9 C  s         
   140     -5.485978   9 C  s               215     -5.310227  14 H  s         

 Vector  127  Occ=0.000000D+00  E= 4.221827D-01
              MO Center=  4.6D-01, -4.8D-02, -2.0D-01, r^2= 1.7D+01
   Bfn.  Coefficient  Atom+Function         Bfn.  Coefficient  Atom+Function  
  ----- ------------  ---------------      ----- ------------  ---------------
    13     13.762344   2 C  s               310    -13.520370  19 C  s         
    56    -11.413930   5 C  s               276     10.810019  17 N  s         
   173      7.976204  11 C  s               403     -7.577377  24 N  s         
   226      7.024498  15 C  s               174      5.812154  11 C  s         
   283     -5.785115  17 N  px              284     -5.577000  17 N  py        

 Vector  128  Occ=0.000000D+00  E= 4.255069D-01
              MO Center= -4.0D-01,  9.2D-01,  5.3D-01, r^2= 1.8D+01
   Bfn.  Coefficient  Atom+Function         Bfn.  Coefficient  Atom+Function  
  ----- ------------  ---------------      ----- ------------  ---------------
    13      8.650400   2 C  s               276     -8.440703  17 N  s         
    63      6.333821   5 C  px              233     -5.108861  15 C  px        
   310      5.059721  19 C  s               115     -5.028212   7 N  pz        
    12     -4.903592   2 C  s               113      4.281922   7 N  px        
   147      3.911838   9 C  px                3      3.551874   1 H  s         

 Vector  129  Occ=0.000000D+00  E= 4.319857D-01
              MO Center= -6.1D-01,  1.4D+00,  2.3D-02, r^2= 1.7D+01
   Bfn.  Coefficient  Atom+Function         Bfn.  Coefficient  Atom+Function  
  ----- ------------  ---------------      ----- ------------  ---------------
   353     11.183299  22 C  s               226      9.008919  15 C  s         
   276     -8.278409  17 N  s               310     -7.927611  19 C  s         
   233     -7.214181  15 C  px              403     -6.051688  24 N  s         
   140      5.584585   9 C  s                13      5.551011   2 C  s         
    65     -5.375473   5 C  pz              163     -5.038700  10 H  s         

 Vector  130  Occ=0.000000D+00  E= 4.378757D-01
              MO Center= -3.3D-01,  3.0D-01, -2.1D-02, r^2= 2.0D+01
   Bfn.  Coefficient  Atom+Function         Bfn.  Coefficient  Atom+Function  
  ----- ------------  ---------------      ----- ------------  ---------------
   226     18.960689  15 C  s               310    -17.455135  19 C  s         
   174    -10.105650  11 C  s                56     -9.384876   5 C  s         
   353      8.527724  22 C  s               140      8.083156   9 C  s         
   148      7.450876   9 C  py              113     -6.414908   7 N  px        
   106      6.068287   7 N  s               234     -5.169092  15 C  py        

 Vector  131  Occ=0.000000D+00  E= 4.428229D-01
              MO Center= -3.9D-01,  5.6D-01,  1.9D-01, r^2= 1.8D+01
   Bfn.  Coefficient  Atom+Function         Bfn.  Coefficient  Atom+Function  
  ----- ------------  ---------------      ----- ------------  ---------------
    13     26.556963   2 C  s                56    -14.627177   5 C  s         
    63     13.215965   5 C  px              140     -8.604157   9 C  s         
   284      7.447707  17 N  py               65     -7.010717   5 C  pz        
    64     -6.357795   5 C  py              403      6.097716  24 N  s         
    36     -5.993649   3 H  s               148     -5.416236   9 C  py        

 Vector  132  Occ=0.000000D+00  E= 4.492866D-01
              MO Center=  1.2D+00,  8.7D-01,  3.9D-02, r^2= 1.6D+01
   Bfn.  Coefficient  Atom+Function         Bfn.  Coefficient  Atom+Function  
  ----- ------------  ---------------      ----- ------------  ---------------
    56     19.673528   5 C  s               226    -17.813617  15 C  s         
   353     12.147805  22 C  s               113      9.997186   7 N  px        
   139     -7.364273   9 C  s               140     -6.954949   9 C  s         
   106      6.378410   7 N  s               276      6.356416  17 N  s         
    81     -5.482444   6 O  s               225      5.314074  15 C  s         

 Vector  133  Occ=0.000000D+00  E= 4.516800D-01
              MO Center= -2.7D-02,  7.5D-02,  3.5D-01, r^2= 2.0D+01
   Bfn.  Coefficient  Atom+Function         Bfn.  Coefficient  Atom+Function  
  ----- ------------  ---------------      ----- ------------  ---------------
   310     28.649373  19 C  s               174    -19.206321  11 C  s         
    13     18.275276   2 C  s                56    -17.086713   5 C  s         
   234     13.479393  15 C  py              353     -7.130394  22 C  s         
   148      6.657040   9 C  py              309      6.513052  19 C  s         
   147      6.057619   9 C  px              333     -5.661040  20 H  s         

 Vector  134  Occ=0.000000D+00  E= 4.618433D-01
              MO Center=  6.6D-02,  2.8D-01,  6.1D-01, r^2= 1.9D+01
   Bfn.  Coefficient  Atom+Function         Bfn.  Coefficient  Atom+Function  
  ----- ------------  ---------------      ----- ------------  ---------------
    56     27.377320   5 C  s               174    -25.642221  11 C  s         
    13    -21.794511   2 C  s                12    -12.183750   2 C  s         
   226     11.985469  15 C  s                36      9.258730   3 H  s         
   173     -9.105040  11 C  s               106     -8.237514   7 N  s         
   197      8.129369  12 H  s               147      7.828229   9 C  px        

 Vector  135  Occ=0.000000D+00  E= 4.698039D-01
              MO Center=  8.4D-01,  1.1D+00,  2.7D-01, r^2= 1.7D+01
   Bfn.  Coefficient  Atom+Function         Bfn.  Coefficient  Atom+Function  
  ----- ------------  ---------------      ----- ------------  ---------------
    56     22.909519   5 C  s               226    -17.132797  15 C  s         
   276     16.541078  17 N  s               233     11.733014  15 C  px        
    13    -10.157590   2 C  s               140    -10.124153   9 C  s         
   113      6.840300   7 N  px              163      6.523665  10 H  s         
   197      6.469138  12 H  s               147     -5.888156   9 C  px        

 Vector  136  Occ=0.000000D+00  E= 4.729533D-01
              MO Center=  5.2D-01,  3.1D-01, -1.5D-01, r^2= 1.5D+01
   Bfn.  Coefficient  Atom+Function         Bfn.  Coefficient  Atom+Function  
  ----- ------------  ---------------      ----- ------------  ---------------
   174     15.867970  11 C  s               226    -15.119100  15 C  s         
   353     -8.211638  22 C  s               173      8.138259  11 C  s         
   234     -7.743800  15 C  py              106      7.595048   7 N  s         
   206     -7.539597  13 H  s               310      6.413002  19 C  s         
   149     -5.075968   9 C  pz              148     -4.980219   9 C  py        

 Vector  137  Occ=0.000000D+00  E= 4.793775D-01
              MO Center=  1.7D-01, -1.3D+00, -7.0D-02, r^2= 1.7D+01
   Bfn.  Coefficient  Atom+Function         Bfn.  Coefficient  Atom+Function  
  ----- ------------  ---------------      ----- ------------  ---------------
   174     23.672552  11 C  s               353     22.056376  22 C  s         
   310    -17.514679  19 C  s               147    -11.682431   9 C  px        
   226     -9.965364  15 C  s                56     -9.369542   5 C  s         
   139      6.292929   9 C  s               378     -5.810780  23 O  s         
   197     -5.505174  12 H  s               215     -5.514085  14 H  s         

 Vector  138  Occ=0.000000D+00  E= 4.845451D-01
              MO Center= -1.5D-01,  1.5D+00,  3.8D-01, r^2= 1.6D+01
   Bfn.  Coefficient  Atom+Function         Bfn.  Coefficient  Atom+Function  
  ----- ------------  ---------------      ----- ------------  ---------------
    13     45.086200   2 C  s                56    -34.391132   5 C  s         
    63     18.148590   5 C  px              106     14.182139   7 N  s         
    65    -12.524844   5 C  pz              147     12.324766   9 C  px        
   174    -11.362999  11 C  s                12      9.702382   2 C  s         
    45     -9.529951   4 H  s                64     -8.616923   5 C  py        

 Vector  139  Occ=0.000000D+00  E= 4.922193D-01
              MO Center=  6.6D-01,  1.2D+00, -6.2D-02, r^2= 1.5D+01
   Bfn.  Coefficient  Atom+Function         Bfn.  Coefficient  Atom+Function  
  ----- ------------  ---------------      ----- ------------  ---------------
    56     14.163775   5 C  s                12    -11.737394   2 C  s         
    13    -10.909047   2 C  s                45      9.082345   4 H  s         
   310     -7.663502  19 C  s               215     -6.804496  14 H  s         
   283     -5.494678  17 N  px              113      5.205204   7 N  px        
   173      4.397181  11 C  s                36      4.262916   3 H  s         

 Vector  140  Occ=0.000000D+00  E= 4.932088D-01
              MO Center=  2.3D-01,  4.0D-01,  2.1D-01, r^2= 1.6D+01
   Bfn.  Coefficient  Atom+Function         Bfn.  Coefficient  Atom+Function  
  ----- ------------  ---------------      ----- ------------  ---------------
    56     12.449589   5 C  s               226    -11.383307  15 C  s         
   284     10.316130  17 N  py              310      9.158400  19 C  s         
    13     -8.839852   2 C  s               174      8.325465  11 C  s         
   403      6.699404  24 N  s               206     -6.496458  13 H  s         
   163     -5.659586  10 H  s               173      5.634063  11 C  s         

 Vector  141  Occ=0.000000D+00  E= 4.993542D-01
              MO Center= -6.6D-01,  1.5D+00,  3.0D-01, r^2= 1.6D+01
   Bfn.  Coefficient  Atom+Function         Bfn.  Coefficient  Atom+Function  
  ----- ------------  ---------------      ----- ------------  ---------------
    13     23.644176   2 C  s               310    -19.457982  19 C  s         
    56    -17.594012   5 C  s               353     13.087426  22 C  s         
    63      8.668904   5 C  px               12     -5.919016   2 C  s         
   113      5.719129   7 N  px               64     -5.249971   5 C  py        
    65     -4.914571   5 C  pz              234     -4.803530  15 C  py        

 Vector  142  Occ=0.000000D+00  E= 5.037825D-01
              MO Center=  1.1D-01,  9.6D-01, -2.2D-01, r^2= 1.7D+01
   Bfn.  Coefficient  Atom+Function         Bfn.  Coefficient  Atom+Function  
  ----- ------------  ---------------      ----- ------------  ---------------
   226     33.111236  15 C  s               174    -23.235089  11 C  s         
   310    -19.494088  19 C  s                56    -13.591524   5 C  s         
   140     13.109832   9 C  s               215     10.663205  14 H  s         
   173     -9.530116  11 C  s               147      8.920117   9 C  px        
   148      8.758761   9 C  py              353      8.517333  22 C  s         


 center of mass
 --------------
 x =  -0.02243245 y =  -0.09543552 z =  -0.03768277

 moments of inertia (a.u.)
 ------------------
        3563.516501971164          -0.000000000001          -0.000000000000
          -0.000000000001        1710.507046330335          -0.000000000000
          -0.000000000000          -0.000000000000        4498.630864857084

  Mulliken analysis of the total density
  --------------------------------------

    Atom       Charge   Shell Charges
 -----------   ------   -------------------------------------------------------
    1 H    1     0.95   0.76  0.21  0.01  0.03 -0.06
    2 C    6     6.58   2.01  0.66  0.29  0.34  2.07  1.06 -0.03  0.06  0.12
    3 H    1     0.81   0.76  0.07  0.01  0.03 -0.06
    4 H    1     0.78   0.76  0.04  0.01  0.03 -0.06
    5 C    6     4.89   2.01  0.68  0.07 -0.20  1.89  0.35 -0.16  0.24  0.01
    6 O    8     8.79   2.01  0.82  1.00  0.16  2.80  1.86  0.15  0.02 -0.01
    7 N    7     7.66   2.01  0.72  0.82 -0.04  2.45  1.44  0.16  0.05  0.04
    8 H    1     0.98   0.77  0.21 -0.02  0.05 -0.04
    9 C    6     6.61   2.01  0.66  0.08 -0.01  1.99  1.64 -0.11  0.14  0.21
   10 H    1     0.94   0.78  0.12  0.00  0.03  0.01
   11 C    6     5.71   2.01  0.66  0.22  0.26  2.04  0.48 -0.04  0.07  0.01
   12 H    1     0.93   0.77  0.18  0.02  0.03 -0.08
   13 H    1     0.97   0.77  0.24  0.01  0.03 -0.07
   14 H    1     0.95   0.77  0.22  0.01  0.03 -0.08
   15 C    6     4.46   2.01  0.68 -0.07 -0.02  1.88  0.07  0.03  0.23 -0.35
   16 O    8     8.85   2.01  0.82  1.03  0.18  2.80  1.87  0.15  0.01 -0.01
   17 N    7     7.28   2.01  0.72  0.78 -0.19  2.45  1.44 -0.03  0.05  0.06
   18 H    1     0.99   0.73  0.30 -0.02  0.06 -0.08
   19 C    6     6.42   2.01  0.66  0.34  0.27  2.01  1.02 -0.03  0.11  0.03
   20 H    1     1.06   0.77  0.29  0.01  0.03 -0.04
   21 H    1     0.85   0.77  0.06 -0.00  0.03 -0.01
   22 C    6     4.73   2.01  0.68  0.06  0.04  1.89 -0.11  0.00  0.24 -0.08
   23 O    8     8.72   2.01  0.82  1.01  0.15  2.79  1.80  0.13  0.01 -0.01
   24 N    7     7.16   2.01  0.72  0.77 -0.16  2.47  1.25  0.10  0.04 -0.03
   25 H    1     0.91   0.73  0.20 -0.02  0.06 -0.06
   26 H    1     1.04   0.76  0.25 -0.00  0.05 -0.03

       Multipole analysis of the density wrt the origin
       ------------------------------------------------

     L   x y z        total         open         nuclear
     -   - - -        -----         ----         -------
     0   0 0 0     -0.000000      0.000000    100.000000

     1   1 0 0      0.715926      0.000000      0.000000
     1   0 1 0      2.467907      0.000000     -0.000000
     1   0 0 1      1.004473      0.000000      0.000000

     2   2 0 0    -64.491466      0.000000    745.321190
     2   1 1 0     -4.575183      0.000000     -5.113293
     2   1 0 1     -1.939796      0.000000     -3.158477
     2   0 2 0    -63.614127      0.000000   1724.412458
     2   0 1 1      5.312623      0.000000     22.697919
     2   0 0 2    -53.394395      0.000000    234.995194


 Task  times  cpu:     2024.4s     wall:     2191.8s


                                NWChem Input Module
                                -------------------


 Summary of allocated global arrays
-----------------------------------
  No active global arrays


MA_summarize_allocated_blocks: starting scan ...
MA_summarize_allocated_blocks: scan completed: 0 heap blocks, 0 stack blocks
MA usage statistics:

	allocation statistics:
					      heap	     stack
					      ----	     -----
	current number of blocks	         0	         0
	maximum number of blocks	        16	        14
	current total bytes		         0	         0
	maximum total bytes		     92848	  22971496
	maximum total K-bytes		        93	     22972
	maximum total M-bytes		         1	        23


                                     CITATION
                                     --------
                Please cite the following reference when publishing
                           results obtained with NWChem:

          E. Apra, E. J. Bylaska, W. A. de Jong, N. Govind, K. Kowalski,
       T. P. Straatsma, M. Valiev, H. J. J. van Dam, Y. Alexeev, J. Anchell,
       V. Anisimov, F. W. Aquino, R. Atta-Fynn, J. Autschbach, N. P. Bauman,
     J. C. Becca, D. E. Bernholdt, K. Bhaskaran-Nair, S. Bogatko, P. Borowski,
         J. Boschen, J. Brabec, A. Bruner, E. Cauet, Y. Chen, G. N. Chuev,
      C. J. Cramer, J. Daily, M. J. O. Deegan, T. H. Dunning Jr., M. Dupuis,
   K. G. Dyall, G. I. Fann, S. A. Fischer, A. Fonari, H. Fruchtl, L. Gagliardi,
      J. Garza, N. Gawande, S. Ghosh, K. Glaesemann, A. W. Gotz, J. Hammond,
       V. Helms, E. D. Hermes, K. Hirao, S. Hirata, M. Jacquelin, L. Jensen,
   B. G. Johnson, H. Jonsson, R. A. Kendall, M. Klemm, R. Kobayashi, V. Konkov,
      S. Krishnamoorthy, M. Krishnan, Z. Lin, R. D. Lins, R. J. Littlefield,
      A. J. Logsdail, K. Lopata, W. Ma, A. V. Marenich, J. Martin del Campo,
   D. Mejia-Rodriguez, J. E. Moore, J. M. Mullin, T. Nakajima, D. R. Nascimento,
    J. A. Nichols, P. J. Nichols, J. Nieplocha, A. Otero-de-la-Roza, B. Palmer,
    A. Panyala, T. Pirojsirikul, B. Peng, R. Peverati, J. Pittner, L. Pollack,
   R. M. Richard, P. Sadayappan, G. C. Schatz, W. A. Shelton, D. W. Silverstein,
   D. M. A. Smith, T. A. Soares, D. Song, M. Swart, H. L. Taylor, G. S. Thomas,
            V. Tipparaju, D. G. Truhlar, K. Tsemekhman, T. Van Voorhis,
      A. Vazquez-Mayagoitia, P. Verma, O. Villa, A. Vishnu, K. D. Vogiatzis,
        D. Wang, J. H. Weare, M. J. Williamson, T. L. Windus, K. Wolinski,
        A. T. Wong, Q. Wu, C. Yang, Q. Yu, M. Zacharias, Z. Zhang, Y. Zhao,
                                and R. J. Harrison
                        "NWChem: Past, present, and future
                         J. Chem. Phys. 152, 184102 (2020)
                               doi:10.1063/5.0004997

                                      AUTHORS
                                      -------
  E. Apra, E. J. Bylaska, N. Govind, K. Kowalski, M. Valiev, D. Mejia-Rodriguez,
       A. Kunitsa, N. P. Bauman, A. Panyala, W. A. de Jong, T. P. Straatsma,
   H. J. J. van Dam, D. Wang, T. L. Windus, J. Hammond, J. Autschbach, A. Woods,
    K. Bhaskaran-Nair, J. Brabec, K. Lopata, S. A. Fischer, S. Krishnamoorthy,
     M. Jacquelin, W. Ma, M. Klemm, O. Villa, Y. Chen, V. Anisimov, F. Aquino,
     S. Hirata, M. T. Hackler, E. Hermes, L. Jensen, J. E. Moore, J. C. Becca,
      V. Konjkov, T. Risthaus, M. Malagoli, A. Marenich, A. Otero-de-la-Roza,
        J. Mullin, P. Nichols, R. Peverati, J. Pittner, Y. Zhao, P.-D. Fan,
        A. Fonari, M. J. Williamson, R. J. Harrison, J. R. Rehr, M. Dupuis,
     D. Silverstein, D. M. A. Smith, J. Nieplocha, V. Tipparaju, M. Krishnan,
     B. E. Van Kuiken, A. Vazquez-Mayagoitia, M. Swart, Q. Wu, T. Van Voorhis,
     A. A. Auer, M. Nooijen, L. D. Crosby, E. Brown, G. Cisneros, G. I. Fann,
   H. Fruchtl, J. Garza, K. Hirao, R. A. Kendall, J. A. Nichols, K. Tsemekhman,
    K. Wolinski, J. Anchell, D. E. Bernholdt, P. Borowski, T. Clark, D. Clerc,
   H. Dachsel, M. J. O. Deegan, K. Dyall, D. Elwood, E. Glendening, M. Gutowski,
   A. C. Hess, J. Jaffe, B. G. Johnson, J. Ju, R. Kobayashi, R. Kutteh, Z. Lin,
   R. Littlefield, X. Long, B. Meng, T. Nakajima, S. Niu, L. Pollack, M. Rosing,
   K. Glaesemann, G. Sandrone, M. Stave, H. Taylor, G. Thomas, J. H. van Lenthe,
                               A. T. Wong, Z. Zhang.

 Total times  cpu:     2024.4s     wall:     2192.3s
