export TMOUT=5400
export TMPDIR=/tmp
export PTMPDIR=/tmp/ptmp
 argument  1 = ALA_PRO_3.nw
                                         
                                         


             Northwest Computational Chemistry Package (NWChem) 7.2.0
             --------------------------------------------------------


                    Environmental Molecular Sciences Laboratory
                       Pacific Northwest National Laboratory
                                Richland, WA 99352

                              Copyright (c) 1994-2022
                       Pacific Northwest National Laboratory
                            Battelle Memorial Institute

             NWChem is an open-source computational chemistry package
                        distributed under the terms of the
                      Educational Community License (ECL) 2.0
             A copy of the license is included with this distribution
                              in the LICENSE.TXT file

                                  ACKNOWLEDGMENT
                                  --------------

            This software and its documentation were developed at the
            EMSL at Pacific Northwest National Laboratory, a multiprogram
            national laboratory, operated for the U.S. Department of Energy
            by Battelle under Contract Number DE-AC05-76RL01830. Support
            for this work was provided by the Department of Energy Office
            of Biological and Environmental Research, Office of Basic
            Energy Sciences, and the Office of Advanced Scientific Computing.


           Job information
           ---------------

    hostname        = nova18-41
    program         = /opt/rit/el9/20230413/app/linux-rhel9-x86_64_v3/gcc-11.2.1/nwchem-7.2.0-oxtctbuhfuzyfaoziquq6bki22grib3g/bin/nwchem
    date            = Mon Jun 30 13:32:35 2025

    compiled        = Wed_May_17_23:46:39_2023
    source          = /tmp/root/spack-stage/spack-stage-nwchem-7.2.0-oxtctbuhfuzyfaoziquq6bki22grib3g/spack-src
    nwchem branch   = 7.2.0
    nwchem revision = d0d141fd
    ga revision     = 5.8.0
    use scalapack   = T
    input           = ALA_PRO_3.nw
    prefix          = ALA_PRO_3.
    data base       = ./ALA_PRO_3.db
    status          = startup
    nproc           =        8
    time left       =     -1s



           Memory information
           ------------------

    heap     =   26214394 doubles =    200.0 Mbytes
    stack    =   26214399 doubles =    200.0 Mbytes
    global   =   52428800 doubles =    400.0 Mbytes (distinct from heap & stack)
    total    =  104857593 doubles =    800.0 Mbytes
    verify   = yes
    hardfail = no 


           Directory information
           ---------------------

  0 permanent = .
  0 scratch   = .




                                NWChem Input Module
                                -------------------



 Scaling coordinates for geometry "geometry" by  1.889725989
 (inverse scale =  0.529177249)

 C1  symmetry detected

          ------
          auto-z
          ------
  no constraints, skipping    0.0000000000000000     
  no constraints, skipping    0.0000000000000000     


                             Geometry "geometry" -> ""
                             -------------------------

 Output coordinates in angstroms (scale by  1.889725989 to convert to a.u.)

  No.       Tag          Charge          X              Y              Z
 ---- ---------------- ---------- -------------- -------------- --------------
    1 H                    1.0000     1.31723904    -4.43957255     1.62584800
    2 C                    6.0000     0.63512249    -4.31426816     0.78575228
    3 H                    1.0000    -0.36446977    -4.63097748     1.07951328
    4 H                    1.0000     0.98202559    -4.90482522    -0.05953442
    5 C                    6.0000     0.59767406    -2.85472574     0.39867409
    6 O                    8.0000     1.26642524    -2.03537102     1.01660426
    7 N                    7.0000    -0.18370044    -2.52718841    -0.62850369
    8 H                    1.0000    -0.73649082    -3.24805331    -1.05843693
    9 C                    6.0000    -0.40399604    -1.14369865    -1.05182972
   10 H                    1.0000     0.57170333    -0.69923143    -1.24353168
   11 C                    6.0000    -1.19049432    -1.15470134    -2.36945956
   12 H                    1.0000    -2.16848715    -1.61431864    -2.21352373
   13 H                    1.0000    -1.33312641    -0.13438458    -2.72481683
   14 H                    1.0000    -0.64209002    -1.71726074    -3.12531249
   15 C                    6.0000    -1.13160430    -0.32283147     0.04307634
   16 O                    8.0000    -1.99620625    -0.87260211     0.72718722
   17 N                    7.0000    -0.84151845     0.98542848     0.20396795
   18 C                    6.0000    -1.52048869     1.81305882     1.19369035
   19 H                    1.0000    -1.42604427     1.38735819     2.19424032
   20 H                    1.0000    -2.57445981     1.90272898     0.92641868
   21 C                    6.0000    -0.85362572     3.18643289     1.13427275
   22 H                    1.0000    -0.00080811     3.21326794     1.81370193
   23 H                    1.0000    -1.55625667     3.98829272     1.36321066
   24 C                    6.0000    -0.36663586     3.25179437    -0.31162411
   25 H                    1.0000     0.44055636     3.97442146    -0.43495628
   26 H                    1.0000    -1.20195990     3.50788907    -0.96548514
   27 C                    6.0000     0.07866646     1.81009456    -0.59131413
   28 H                    1.0000    -0.05573756     1.60609049    -1.65310314
   29 C                    6.0000     1.57604969     1.62695651    -0.26647126
   30 O                    8.0000     2.41662628     2.23912752    -0.91004850
   31 N                    7.0000     1.95441749     0.80600695     0.70348783
   32 H                    1.0000     1.28475745     0.22719676     1.19059273
   33 H                    1.0000     2.94048982     0.69374342     0.87396439

      Atomic Mass 
      ----------- 

      H                  1.007825
      C                 12.000000
      O                 15.994910
      N                 14.003070


 Effective nuclear repulsion energy (a.u.)    1211.6880375675

            Nuclear Dipole moment (a.u.) 
            ----------------------------
        X                 Y               Z
 ---------------- ---------------- ----------------
    -0.0000000000    -0.0000000000     0.0000000000



                                Z-matrix (autoz)
                                -------- 

 Units are Angstrom for bonds and degrees for angles

      Type          Name      I     J     K     L     M      Value
      ----------- --------  ----- ----- ----- ----- ----- ----------
    1 Stretch                  1     2                       1.08938
    2 Stretch                  2     3                       1.08894
    3 Stretch                  2     4                       1.08794
    4 Stretch                  2     5                       1.51046
    5 Stretch                  5     6                       1.22491
    6 Stretch                  5     7                       1.33151
    7 Stretch                  7     8                       1.00502
    8 Stretch                  7     9                       1.46348
    9 Stretch                  9    10                       1.08917
   10 Stretch                  9    11                       1.53455
   11 Stretch                  9    15                       1.54986
   12 Stretch                 11    12                       1.09180
   13 Stretch                 11    13                       1.08980
   14 Stretch                 11    14                       1.09020
   15 Stretch                 15    16                       1.23199
   16 Stretch                 15    17                       1.34966
   17 Stretch                 17    18                       1.45792
   18 Stretch                 17    27                       1.46945
   19 Stretch                 18    19                       1.09144
   20 Stretch                 18    20                       1.09102
   21 Stretch                 18    21                       1.52787
   22 Stretch                 21    22                       1.09071
   23 Stretch                 21    23                       1.09045
   24 Stretch                 21    24                       1.52710
   25 Stretch                 24    25                       1.09039
   26 Stretch                 24    26                       1.09128
   27 Stretch                 24    27                       1.53461
   28 Stretch                 27    28                       1.08953
   29 Stretch                 27    29                       1.54312
   30 Stretch                 29    30                       1.22291
   31 Stretch                 29    31                       1.32587
   32 Stretch                 31    32                       1.01032
   33 Stretch                 31    33                       1.00698
   34 Bend                     1     2     3               109.46837
   35 Bend                     1     2     4               109.69881
   36 Bend                     1     2     5               108.92280
   37 Bend                     2     5     6               120.23488
   38 Bend                     2     5     7               116.73971
   39 Bend                     3     2     4               110.14669
   40 Bend                     3     2     5               109.11174
   41 Bend                     4     2     5               109.47044
   42 Bend                     5     7     8               118.44702
   43 Bend                     5     7     9               122.95803
   44 Bend                     6     5     7               123.02527
   45 Bend                     7     9    10               107.56812
   46 Bend                     7     9    11               108.58686
   47 Bend                     7     9    15               111.53135
   48 Bend                     8     7     9               118.13321
   49 Bend                     9    11    12               109.84544
   50 Bend                     9    11    13               109.89805
   51 Bend                     9    11    14               109.94959
   52 Bend                     9    15    16               119.03922
   53 Bend                     9    15    17               119.78234
   54 Bend                    10     9    11               108.11527
   55 Bend                    10     9    15               109.19384
   56 Bend                    11     9    15               111.70177
   57 Bend                    12    11    13               108.87262
   58 Bend                    12    11    14               109.41390
   59 Bend                    13    11    14               108.83702
   60 Bend                    15    17    18               122.07957
   61 Bend                    15    17    27               127.88424
   62 Bend                    16    15    17               121.14475
   63 Bend                    17    18    19               111.13789
   64 Bend                    17    18    20               109.28401
   65 Bend                    17    18    21               106.29654
   66 Bend                    17    27    24               104.29312
   67 Bend                    17    27    28               110.18791
   68 Bend                    17    27    29               115.28460
   69 Bend                    18    17    27               109.90454
   70 Bend                    18    21    22               109.82571
   71 Bend                    18    21    23               111.81362
   72 Bend                    18    21    24               102.38512
   73 Bend                    19    18    20               109.89048
   74 Bend                    19    18    21               110.39425
   75 Bend                    20    18    21               109.76955
   76 Bend                    21    24    25               111.81001
   77 Bend                    21    24    26               109.46619
   78 Bend                    21    24    27               102.99636
   79 Bend                    22    21    23               110.78971
   80 Bend                    22    21    24               109.84048
   81 Bend                    23    21    24               111.88787
   82 Bend                    24    27    28               108.52529
   83 Bend                    24    27    29               110.77516
   84 Bend                    25    24    26               110.08132
   85 Bend                    25    24    27               112.77889
   86 Bend                    26    24    27               109.47405
   87 Bend                    27    29    30               119.78784
   88 Bend                    27    29    31               120.29152
   89 Bend                    28    27    29               107.61575
   90 Bend                    29    31    32               121.21724
   91 Bend                    29    31    33               118.18547
   92 Bend                    30    29    31               119.92024
   93 Bend                    32    31    33               120.23644
   94 Torsion                  1     2     5     6          -0.53220
   95 Torsion                  1     2     5     7         179.33593
   96 Torsion                  2     5     7     8           3.00923
   97 Torsion                  2     5     7     9         175.05879
   98 Torsion                  3     2     5     6         118.91827
   99 Torsion                  3     2     5     7         -61.21359
  100 Torsion                  4     2     5     6        -120.47578
  101 Torsion                  4     2     5     7          59.39236
  102 Torsion                  5     7     9    10          55.44304
  103 Torsion                  5     7     9    11         172.22251
  104 Torsion                  5     7     9    15         -64.26852
  105 Torsion                  6     5     7     8        -177.12665
  106 Torsion                  6     5     7     9          -5.07709
  107 Torsion                  7     9    11    12          62.42952
  108 Torsion                  7     9    11    13        -177.81111
  109 Torsion                  7     9    11    14         -58.03063
  110 Torsion                  7     9    15    16         -36.35404
  111 Torsion                  7     9    15    17         145.73266
  112 Torsion                  8     7     9    10        -132.48385
  113 Torsion                  8     7     9    11         -15.70438
  114 Torsion                  8     7     9    15         107.80459
  115 Torsion                  9    15    17    18         178.34264
  116 Torsion                  9    15    17    27           2.94856
  117 Torsion                 10     9    11    12         178.85735
  118 Torsion                 10     9    11    13         -61.38327
  119 Torsion                 10     9    11    14          58.39720
  120 Torsion                 10     9    15    16        -155.10012
  121 Torsion                 10     9    15    17          26.98658
  122 Torsion                 11     9    15    16          85.36906
  123 Torsion                 11     9    15    17         -92.54423
  124 Torsion                 12    11     9    15         -60.97726
  125 Torsion                 13    11     9    15          58.78211
  126 Torsion                 14    11     9    15         178.56259
  127 Torsion                 15    17    18    19          56.01908
  128 Torsion                 15    17    18    20         -65.42882
  129 Torsion                 15    17    18    21         176.17061
  130 Torsion                 15    17    27    24         159.93441
  131 Torsion                 15    17    27    28          43.63837
  132 Torsion                 15    17    27    29         -78.38662
  133 Torsion                 16    15    17    18           0.47428
  134 Torsion                 16    15    17    27        -174.91979
  135 Torsion                 17    18    21    22         -88.57446
  136 Torsion                 17    18    21    23         148.01032
  137 Torsion                 17    18    21    24          28.07638
  138 Torsion                 17    27    24    21          33.02493
  139 Torsion                 17    27    24    25         153.72019
  140 Torsion                 17    27    24    26         -83.35859
  141 Torsion                 17    27    29    30         177.52583
  142 Torsion                 17    27    29    31          -2.24467
  143 Torsion                 18    17    27    24         -15.91582
  144 Torsion                 18    17    27    28        -132.21186
  145 Torsion                 18    17    27    29         105.76314
  146 Torsion                 18    21    24    25        -158.46677
  147 Torsion                 18    21    24    26          79.27811
  148 Torsion                 18    21    24    27         -37.11102
  149 Torsion                 19    18    17    27        -127.84589
  150 Torsion                 19    18    21    22          32.05784
  151 Torsion                 19    18    21    23         -91.35737
  152 Torsion                 19    18    21    24         148.70869
  153 Torsion                 20    18    17    27         110.70621
  154 Torsion                 20    18    21    22         153.34556
  155 Torsion                 20    18    21    23          29.93035
  156 Torsion                 20    18    21    24         -90.00359
  157 Torsion                 21    18    17    27          -7.69437
  158 Torsion                 21    24    27    28         150.47368
  159 Torsion                 21    24    27    29         -91.59019
  160 Torsion                 22    21    24    25         -41.82653
  161 Torsion                 22    21    24    26        -164.08166
  162 Torsion                 22    21    24    27          79.52921
  163 Torsion                 23    21    24    25          81.65105
  164 Torsion                 23    21    24    26         -40.60407
  165 Torsion                 23    21    24    27        -156.99320
  166 Torsion                 24    27    29    30         -64.35998
  167 Torsion                 24    27    29    31         115.86953
  168 Torsion                 25    24    27    28         -88.83106
  169 Torsion                 25    24    27    29          29.10507
  170 Torsion                 26    24    27    28          34.09016
  171 Torsion                 26    24    27    29         152.02629
  172 Torsion                 27    29    31    32           5.44564
  173 Torsion                 27    29    31    33         178.56359
  174 Torsion                 28    27    29    30          54.12934
  175 Torsion                 28    27    29    31        -125.64116
  176 Torsion                 30    29    31    32        -174.32454
  177 Torsion                 30    29    31    33          -1.20660


            XYZ format geometry
            -------------------
    33
 geometry
 H                     1.31723904    -4.43957255     1.62584800
 C                     0.63512249    -4.31426816     0.78575228
 H                    -0.36446977    -4.63097748     1.07951328
 H                     0.98202559    -4.90482522    -0.05953442
 C                     0.59767406    -2.85472574     0.39867409
 O                     1.26642524    -2.03537102     1.01660426
 N                    -0.18370044    -2.52718841    -0.62850369
 H                    -0.73649082    -3.24805331    -1.05843693
 C                    -0.40399604    -1.14369865    -1.05182972
 H                     0.57170333    -0.69923143    -1.24353168
 C                    -1.19049432    -1.15470134    -2.36945956
 H                    -2.16848715    -1.61431864    -2.21352373
 H                    -1.33312641    -0.13438458    -2.72481683
 H                    -0.64209002    -1.71726074    -3.12531249
 C                    -1.13160430    -0.32283147     0.04307634
 O                    -1.99620625    -0.87260211     0.72718722
 N                    -0.84151845     0.98542848     0.20396795
 C                    -1.52048869     1.81305882     1.19369035
 H                    -1.42604427     1.38735819     2.19424032
 H                    -2.57445981     1.90272898     0.92641868
 C                    -0.85362572     3.18643289     1.13427275
 H                    -0.00080811     3.21326794     1.81370193
 H                    -1.55625667     3.98829272     1.36321066
 C                    -0.36663586     3.25179437    -0.31162411
 H                     0.44055636     3.97442146    -0.43495628
 H                    -1.20195990     3.50788907    -0.96548514
 C                     0.07866646     1.81009456    -0.59131413
 H                    -0.05573756     1.60609049    -1.65310314
 C                     1.57604969     1.62695651    -0.26647126
 O                     2.41662628     2.23912752    -0.91004850
 N                     1.95441749     0.80600695     0.70348783
 H                     1.28475745     0.22719676     1.19059273
 H                     2.94048982     0.69374342     0.87396439

 ==============================================================================
                                internuclear distances
 ------------------------------------------------------------------------------
       center one      |      center two      | atomic units |  angstroms
 ------------------------------------------------------------------------------
    2 C                |   1 H                |     2.05863  |     1.08938
    3 H                |   2 C                |     2.05779  |     1.08894
    4 H                |   2 C                |     2.05590  |     1.08794
    5 C                |   2 C                |     2.85436  |     1.51046
    6 O                |   5 C                |     2.31475  |     1.22491
    7 N                |   5 C                |     2.51619  |     1.33151
    8 H                |   7 N                |     1.89921  |     1.00502
    9 C                |   7 N                |     2.76558  |     1.46348
   10 H                |   9 C                |     2.05823  |     1.08917
   11 C                |   9 C                |     2.89988  |     1.53455
   12 H                |  11 C                |     2.06321  |     1.09180
   13 H                |  11 C                |     2.05943  |     1.08980
   14 H                |  11 C                |     2.06018  |     1.09020
   15 C                |   9 C                |     2.92880  |     1.54986
   16 O                |  15 C                |     2.32812  |     1.23199
   17 N                |  15 C                |     2.55049  |     1.34966
   18 C                |  17 N                |     2.75506  |     1.45792
   19 H                |  18 C                |     2.06252  |     1.09144
   20 H                |  18 C                |     2.06173  |     1.09102
   21 C                |  18 C                |     2.88726  |     1.52787
   22 H                |  21 C                |     2.06114  |     1.09071
   23 H                |  21 C                |     2.06065  |     1.09045
   24 C                |  21 C                |     2.88581  |     1.52710
   25 H                |  24 C                |     2.06055  |     1.09039
   26 H                |  24 C                |     2.06221  |     1.09128
   27 C                |  17 N                |     2.77686  |     1.46945
   27 C                |  24 C                |     2.89999  |     1.53461
   28 H                |  27 C                |     2.05892  |     1.08953
   29 C                |  27 C                |     2.91607  |     1.54312
   30 O                |  29 C                |     2.31097  |     1.22291
   31 N                |  29 C                |     2.50554  |     1.32587
   32 H                |  31 N                |     1.90922  |     1.01032
   33 H                |  31 N                |     1.90291  |     1.00698
 ------------------------------------------------------------------------------
                         number of included internuclear distances:         33
 ==============================================================================



 ==============================================================================
                                 internuclear angles
 ------------------------------------------------------------------------------
        center 1       |       center 2       |       center 3       |  degrees
 ------------------------------------------------------------------------------
    1 H                |   2 C                |   3 H                |   109.47
    1 H                |   2 C                |   4 H                |   109.70
    1 H                |   2 C                |   5 C                |   108.92
    3 H                |   2 C                |   4 H                |   110.15
    3 H                |   2 C                |   5 C                |   109.11
    4 H                |   2 C                |   5 C                |   109.47
    2 C                |   5 C                |   6 O                |   120.23
    2 C                |   5 C                |   7 N                |   116.74
    6 O                |   5 C                |   7 N                |   123.03
    5 C                |   7 N                |   8 H                |   118.45
    5 C                |   7 N                |   9 C                |   122.96
    8 H                |   7 N                |   9 C                |   118.13
    7 N                |   9 C                |  10 H                |   107.57
    7 N                |   9 C                |  11 C                |   108.59
    7 N                |   9 C                |  15 C                |   111.53
   10 H                |   9 C                |  11 C                |   108.12
   10 H                |   9 C                |  15 C                |   109.19
   11 C                |   9 C                |  15 C                |   111.70
    9 C                |  11 C                |  12 H                |   109.85
    9 C                |  11 C                |  13 H                |   109.90
    9 C                |  11 C                |  14 H                |   109.95
   12 H                |  11 C                |  13 H                |   108.87
   12 H                |  11 C                |  14 H                |   109.41
   13 H                |  11 C                |  14 H                |   108.84
    9 C                |  15 C                |  16 O                |   119.04
    9 C                |  15 C                |  17 N                |   119.78
   16 O                |  15 C                |  17 N                |   121.14
   15 C                |  17 N                |  18 C                |   122.08
   15 C                |  17 N                |  27 C                |   127.88
   18 C                |  17 N                |  27 C                |   109.90
   17 N                |  18 C                |  19 H                |   111.14
   17 N                |  18 C                |  20 H                |   109.28
   17 N                |  18 C                |  21 C                |   106.30
   19 H                |  18 C                |  20 H                |   109.89
   19 H                |  18 C                |  21 C                |   110.39
   20 H                |  18 C                |  21 C                |   109.77
   18 C                |  21 C                |  22 H                |   109.83
   18 C                |  21 C                |  23 H                |   111.81
   18 C                |  21 C                |  24 C                |   102.39
   22 H                |  21 C                |  23 H                |   110.79
   22 H                |  21 C                |  24 C                |   109.84
   23 H                |  21 C                |  24 C                |   111.89
   21 C                |  24 C                |  25 H                |   111.81
   21 C                |  24 C                |  26 H                |   109.47
   21 C                |  24 C                |  27 C                |   103.00
   25 H                |  24 C                |  26 H                |   110.08
   25 H                |  24 C                |  27 C                |   112.78
   26 H                |  24 C                |  27 C                |   109.47
   17 N                |  27 C                |  24 C                |   104.29
   17 N                |  27 C                |  28 H                |   110.19
   17 N                |  27 C                |  29 C                |   115.28
   24 C                |  27 C                |  28 H                |   108.53
   24 C                |  27 C                |  29 C                |   110.78
   28 H                |  27 C                |  29 C                |   107.62
   27 C                |  29 C                |  30 O                |   119.79
   27 C                |  29 C                |  31 N                |   120.29
   30 O                |  29 C                |  31 N                |   119.92
   29 C                |  31 N                |  32 H                |   121.22
   29 C                |  31 N                |  33 H                |   118.19
   32 H                |  31 N                |  33 H                |   120.24
 ------------------------------------------------------------------------------
                            number of included internuclear angles:         60
 ==============================================================================



  library name resolved from: environment
  library file name is: </opt/rit/el9/20230413/app/linux-rhel9-x86_64_v3/gcc-11.2.1/nwchem-7.2.0-oxtctbuhfuzyfaoziquq6bki22grib3g/share/nwchem/libraries/>
  


 Summary of "ao basis" -> "" (cartesian)
 ------------------------------------------------------------------------------
       Tag                 Description            Shells   Functions and Types
 ---------------- ------------------------------  ------  ---------------------
 *                        aug-cc-pvdz                 on all atoms 


                      Basis "ao basis" -> "ao basis" (cartesian)
                      -----
  H (Hydrogen)
  ------------
            Exponent  Coefficients 
       -------------- ---------------------------------------------------------
  1 S  1.30100000E+01  0.019685
  1 S  1.96200000E+00  0.137977
  1 S  4.44600000E-01  0.478148

  2 S  1.22000000E-01  1.000000

  3 S  2.97400000E-02  1.000000

  4 P  7.27000000E-01  1.000000

  5 P  1.41000000E-01  1.000000

  C (Carbon)
  ----------
            Exponent  Coefficients 
       -------------- ---------------------------------------------------------
  1 S  6.66500000E+03  0.000692
  1 S  1.00000000E+03  0.005329
  1 S  2.28000000E+02  0.027077
  1 S  6.47100000E+01  0.101718
  1 S  2.10600000E+01  0.274740
  1 S  7.49500000E+00  0.448564
  1 S  2.79700000E+00  0.285074
  1 S  5.21500000E-01  0.015204

  2 S  6.66500000E+03 -0.000146
  2 S  1.00000000E+03 -0.001154
  2 S  2.28000000E+02 -0.005725
  2 S  6.47100000E+01 -0.023312
  2 S  2.10600000E+01 -0.063955
  2 S  7.49500000E+00 -0.149981
  2 S  2.79700000E+00 -0.127262
  2 S  5.21500000E-01  0.544529

  3 S  1.59600000E-01  1.000000

  4 S  4.69000000E-02  1.000000

  5 P  9.43900000E+00  0.038109
  5 P  2.00200000E+00  0.209480
  5 P  5.45600000E-01  0.508557

  6 P  1.51700000E-01  1.000000

  7 P  4.04100000E-02  1.000000

  8 D  5.50000000E-01  1.000000

  9 D  1.51000000E-01  1.000000

  O (Oxygen)
  ----------
            Exponent  Coefficients 
       -------------- ---------------------------------------------------------
  1 S  1.17200000E+04  0.000710
  1 S  1.75900000E+03  0.005470
  1 S  4.00800000E+02  0.027837
  1 S  1.13700000E+02  0.104800
  1 S  3.70300000E+01  0.283062
  1 S  1.32700000E+01  0.448719
  1 S  5.02500000E+00  0.270952
  1 S  1.01300000E+00  0.015458

  2 S  1.17200000E+04 -0.000160
  2 S  1.75900000E+03 -0.001263
  2 S  4.00800000E+02 -0.006267
  2 S  1.13700000E+02 -0.025716
  2 S  3.70300000E+01 -0.070924
  2 S  1.32700000E+01 -0.165411
  2 S  5.02500000E+00 -0.116955
  2 S  1.01300000E+00  0.557368

  3 S  3.02300000E-01  1.000000

  4 S  7.89600000E-02  1.000000

  5 P  1.77000000E+01  0.043018
  5 P  3.85400000E+00  0.228913
  5 P  1.04600000E+00  0.508728

  6 P  2.75300000E-01  1.000000

  7 P  6.85600000E-02  1.000000

  8 D  1.18500000E+00  1.000000

  9 D  3.32000000E-01  1.000000

  N (Nitrogen)
  ------------
            Exponent  Coefficients 
       -------------- ---------------------------------------------------------
  1 S  9.04600000E+03  0.000700
  1 S  1.35700000E+03  0.005389
  1 S  3.09300000E+02  0.027406
  1 S  8.77300000E+01  0.103207
  1 S  2.85600000E+01  0.278723
  1 S  1.02100000E+01  0.448540
  1 S  3.83800000E+00  0.278238
  1 S  7.46600000E-01  0.015440

  2 S  9.04600000E+03 -0.000153
  2 S  1.35700000E+03 -0.001208
  2 S  3.09300000E+02 -0.005992
  2 S  8.77300000E+01 -0.024544
  2 S  2.85600000E+01 -0.067459
  2 S  1.02100000E+01 -0.158078
  2 S  3.83800000E+00 -0.121831
  2 S  7.46600000E-01  0.549003

  3 S  2.24800000E-01  1.000000

  4 S  6.12400000E-02  1.000000

  5 P  1.35500000E+01  0.039919
  5 P  2.91700000E+00  0.217169
  5 P  7.97300000E-01  0.510319

  6 P  2.18500000E-01  1.000000

  7 P  5.61100000E-02  1.000000

  8 D  8.17000000E-01  1.000000

  9 D  2.30000000E-01  1.000000



 Summary of "ao basis" -> "ao basis" (cartesian)
 ------------------------------------------------------------------------------
       Tag                 Description            Shells   Functions and Types
 ---------------- ------------------------------  ------  ---------------------
 H                        aug-cc-pvdz                5        9   3s2p
 C                        aug-cc-pvdz                9       25   4s3p2d
 O                        aug-cc-pvdz                9       25   4s3p2d
 N                        aug-cc-pvdz                9       25   4s3p2d


                                 NWChem SCF Module
                                 -----------------



  ao basis        = "ao basis"
  functions       =   553
  atoms           =    33
  closed shells   =    61
  open shells     =     0
  charge          =   0.00
  wavefunction    = RHF 
  input vectors   = atomic
  output vectors  = ./ALA_PRO_3.movecs
  use symmetry    = F
  symmetry adapt  = F


 Summary of "ao basis" -> "ao basis" (cartesian)
 ------------------------------------------------------------------------------
       Tag                 Description            Shells   Functions and Types
 ---------------- ------------------------------  ------  ---------------------
 H                        aug-cc-pvdz                5        9   3s2p
 C                        aug-cc-pvdz                9       25   4s3p2d
 O                        aug-cc-pvdz                9       25   4s3p2d
 N                        aug-cc-pvdz                9       25   4s3p2d



 Forming initial guess at       1.4s


 !! The overlap matrix has   5 vectors deemed linearly dependent with
    eigenvalues:
 2.28D-06 4.19D-06 7.03D-06 7.22D-06 9.03D-06


      Superposition of Atomic Density Guess
      -------------------------------------

 Sum of atomic energies:        -772.36748674

      Non-variational initial energy
      ------------------------------

 Total energy =    -783.181388
 1-e energy   =   -3455.949423
 2-e energy   =    1461.079997
 HOMO         =      -0.286840
 LUMO         =       0.006543


 Starting SCF solution at     239.6s



 ----------------------------------------------
         Quadratically convergent ROHF

 Convergence threshold     :          1.000E-04
 Maximum no. of iterations :           30
 Final Fock-matrix accuracy:          1.000E-10
 ----------------------------------------------


              iter       energy          gnorm     gmax       time
             ----- ------------------- --------- --------- --------
                 1     -776.3096788363  2.41D+00  1.50D-01    482.7
                 2     -776.6213592010  8.32D-01  4.44D-02   1024.9
                 3     -776.6826664476  6.82D-02  5.34D-03   1804.2
                 4     -776.6833471020  4.49D-03  4.37D-04   2792.9
                 5     -776.6833509821  1.12D-05  4.88D-07   4480.4


       Final RHF  results 
       ------------------ 

         Total SCF energy =   -776.683350982116
      One-electron energy =  -3467.627999341111
      Two-electron energy =   1479.256610791481
 Nuclear repulsion energy =   1211.688037567514

        Time for solution =   4245.2s


             Final eigenvalues
             -----------------

              1      
    1  -20.5321
    2  -20.5308
    3  -20.5150
    4  -15.6065
    5  -15.6060
    6  -15.5815
    7  -11.3640
    8  -11.3617
    9  -11.3502
   10  -11.3075
   11  -11.3001
   12  -11.2721
   13  -11.2576
   14  -11.2478
   15  -11.2461
   16  -11.2425
   17   -1.3977
   18   -1.3859
   19   -1.3790
   20   -1.2748
   21   -1.2539
   22   -1.2068
   23   -1.0938
   24   -1.0652
   25   -1.0226
   26   -0.9993
   27   -0.9235
   28   -0.8812
   29   -0.8380
   30   -0.8092
   31   -0.7968
   32   -0.7655
   33   -0.7390
   34   -0.7185
   35   -0.6916
   36   -0.6869
   37   -0.6704
   38   -0.6457
   39   -0.6343
   40   -0.6192
   41   -0.6129
   42   -0.6022
   43   -0.5916
   44   -0.5868
   45   -0.5795
   46   -0.5718
   47   -0.5654
   48   -0.5567
   49   -0.5450
   50   -0.5397
   51   -0.5261
   52   -0.5080
   53   -0.4984
   54   -0.4916
   55   -0.4872
   56   -0.4343
   57   -0.4314
   58   -0.4303
   59   -0.4064
   60   -0.3964
   61   -0.3756
   62    0.0264
   63    0.0336
   64    0.0396
   65    0.0470
   66    0.0492
   67    0.0512
   68    0.0570
   69    0.0621
   70    0.0661
   71    0.0690

                       ROHF Final Molecular Orbital Analysis
                       -------------------------------------

 Vector   17  Occ=2.000000D+00  E=-1.397717D+00
              MO Center=  2.0D-01, -1.7D+00,  5.3D-01, r^2= 3.1D+00
   Bfn.  Coefficient  Atom+Function         Bfn.  Coefficient  Atom+Function  
  ----- ------------  ---------------      ----- ------------  ---------------
    80      0.291035   6 O  s                79      0.286068   6 O  s         
    54      0.206022   5 C  s               250      0.196084  16 O  s         
    12      0.193741   2 C  s               249      0.175253  16 O  s         

 Vector   18  Occ=2.000000D+00  E=-1.385883D+00
              MO Center= -3.1D-01, -6.0D-01,  3.9D-01, r^2= 5.1D+00
   Bfn.  Coefficient  Atom+Function         Bfn.  Coefficient  Atom+Function  
  ----- ------------  ---------------      ----- ------------  ---------------
   250      0.274252  16 O  s               249      0.255430  16 O  s         
    79     -0.197080   6 O  s                80     -0.197360   6 O  s         
   224      0.183704  15 C  s         

 Vector   19  Occ=2.000000D+00  E=-1.379046D+00
              MO Center=  1.5D+00,  1.5D+00, -3.9D-01, r^2= 3.8D+00
   Bfn.  Coefficient  Atom+Function         Bfn.  Coefficient  Atom+Function  
  ----- ------------  ---------------      ----- ------------  ---------------
   488      0.357173  30 O  s               487      0.324177  30 O  s         
   462      0.227237  29 C  s               250     -0.160361  16 O  s         

 Vector   20  Occ=2.000000D+00  E=-1.274795D+00
              MO Center= -8.1D-01,  9.7D-01,  2.3D-01, r^2= 2.4D+00
   Bfn.  Coefficient  Atom+Function         Bfn.  Coefficient  Atom+Function  
  ----- ------------  ---------------      ----- ------------  ---------------
   275      0.332753  17 N  s               274      0.302931  17 N  s         
   250     -0.216233  16 O  s               249     -0.180244  16 O  s         
   139      0.176243   9 C  s         

 Vector   21  Occ=2.000000D+00  E=-1.253860D+00
              MO Center= -8.8D-03, -2.3D+00, -3.6D-01, r^2= 1.7D+00
   Bfn.  Coefficient  Atom+Function         Bfn.  Coefficient  Atom+Function  
  ----- ------------  ---------------      ----- ------------  ---------------
   105      0.470885   7 N  s               104      0.344060   7 N  s         
    80     -0.216937   6 O  s                79     -0.183620   6 O  s         
   128      0.159074   8 H  s         

 Vector   22  Occ=2.000000D+00  E=-1.206823D+00
              MO Center=  1.8D+00,  1.1D+00,  3.9D-01, r^2= 1.5D+00
   Bfn.  Coefficient  Atom+Function         Bfn.  Coefficient  Atom+Function  
  ----- ------------  ---------------      ----- ------------  ---------------
   513      0.372667  31 N  s               512      0.370438  31 N  s         
   488     -0.206507  30 O  s               429     -0.198163  27 C  s         
   487     -0.175102  30 O  s               536      0.164167  32 H  s         
   467      0.159339  29 C  pz              545      0.158859  33 H  s         

 Vector   23  Occ=2.000000D+00  E=-1.093751D+00
              MO Center= -6.6D-01,  1.4D+00,  3.3D-02, r^2= 5.8D+00
   Bfn.  Coefficient  Atom+Function         Bfn.  Coefficient  Atom+Function  
  ----- ------------  ---------------      ----- ------------  ---------------
   385      0.200107  24 C  s               342      0.197090  21 C  s         
   386      0.170798  24 C  s         

 Vector   24  Occ=2.000000D+00  E=-1.065187D+00
              MO Center= -4.5D-01, -7.5D-01, -7.5D-01, r^2= 7.3D+00
   Bfn.  Coefficient  Atom+Function         Bfn.  Coefficient  Atom+Function  
  ----- ------------  ---------------      ----- ------------  ---------------
   138      0.204394   9 C  s               172      0.204155  11 C  s         
   429      0.172233  27 C  s               146     -0.154060   9 C  pz        

 Vector   25  Occ=2.000000D+00  E=-1.022560D+00
              MO Center= -4.7D-01,  1.7D+00,  2.8D-01, r^2= 4.3D+00
   Bfn.  Coefficient  Atom+Function         Bfn.  Coefficient  Atom+Function  
  ----- ------------  ---------------      ----- ------------  ---------------
   428     -0.253222  27 C  s               299      0.236860  18 C  s         
   139     -0.171531   9 C  s               225      0.165940  15 C  s         

 Vector   26  Occ=2.000000D+00  E=-9.992991D-01
              MO Center=  2.3D-01, -3.3D+00,  9.4D-02, r^2= 5.2D+00
   Bfn.  Coefficient  Atom+Function         Bfn.  Coefficient  Atom+Function  
  ----- ------------  ---------------      ----- ------------  ---------------
    11      0.318688   2 C  s               172      0.164786  11 C  s         
    58     -0.160869   5 C  py        

 Vector   27  Occ=2.000000D+00  E=-9.235111D-01
              MO Center= -7.7D-01,  3.8D-01, -5.6D-01, r^2= 6.6D+00
   Bfn.  Coefficient  Atom+Function         Bfn.  Coefficient  Atom+Function  
  ----- ------------  ---------------      ----- ------------  ---------------
   139      0.383468   9 C  s               146      0.282675   9 C  pz        
   231      0.195354  15 C  py              172     -0.191998  11 C  s         
   224      0.177539  15 C  s               278     -0.167336  17 N  py        

 Vector   28  Occ=2.000000D+00  E=-8.812361D-01
              MO Center= -3.7D-01,  4.4D-01, -4.7D-01, r^2= 7.9D+00
   Bfn.  Coefficient  Atom+Function         Bfn.  Coefficient  Atom+Function  
  ----- ------------  ---------------      ----- ------------  ---------------
   225     -0.217899  15 C  s               146      0.208307   9 C  pz        
   139      0.173328   9 C  s               434      0.169569  27 C  px        
   385     -0.161774  24 C  s               138      0.158498   9 C  s         
   172     -0.151800  11 C  s         

 Vector   29  Occ=2.000000D+00  E=-8.380465D-01
              MO Center= -4.2D-02,  9.5D-01,  1.9D-01, r^2= 8.7D+00
   Bfn.  Coefficient  Atom+Function         Bfn.  Coefficient  Atom+Function  
  ----- ------------  ---------------      ----- ------------  ---------------
   429      0.419417  27 C  s               386     -0.243084  24 C  s         
   343      0.228593  21 C  s               300     -0.197414  18 C  s         
   342      0.178261  21 C  s                56     -0.157772   5 C  s         

 Vector   30  Occ=2.000000D+00  E=-8.092323D-01
              MO Center= -1.7D-01, -1.6D+00, -1.8D-01, r^2= 6.8D+00
   Bfn.  Coefficient  Atom+Function         Bfn.  Coefficient  Atom+Function  
  ----- ------------  ---------------      ----- ------------  ---------------
   128      0.270262   8 H  s               105      0.249311   7 N  s         
   109     -0.241692   7 N  pz              107     -0.220804   7 N  px        
   386     -0.216520  24 C  s               300     -0.200384  18 C  s         
   163     -0.190324  10 H  s                54     -0.187955   5 C  s         
   343      0.178877  21 C  s                80      0.165751   6 O  s         

 Vector   31  Occ=2.000000D+00  E=-7.967924D-01
              MO Center=  2.3D-01,  1.6D+00,  2.5D-01, r^2= 5.1D+00
   Bfn.  Coefficient  Atom+Function         Bfn.  Coefficient  Atom+Function  
  ----- ------------  ---------------      ----- ------------  ---------------
   300      0.420008  18 C  s               343     -0.372330  21 C  s         
   434      0.321661  27 C  px              386      0.216162  24 C  s         
   462      0.178948  29 C  s               225      0.170350  15 C  s         
   514      0.165467  31 N  s               301     -0.162853  18 C  s         
   488     -0.157751  30 O  s               468      0.151772  29 C  px        

 Vector   32  Occ=2.000000D+00  E=-7.654635D-01
              MO Center=  2.2D-01,  9.3D-01,  1.9D-01, r^2= 5.5D+00
   Bfn.  Coefficient  Atom+Function         Bfn.  Coefficient  Atom+Function  
  ----- ------------  ---------------      ----- ------------  ---------------
   300      0.263313  18 C  s               516     -0.176864  31 N  py        
   536      0.175687  32 H  s               517      0.169996  31 N  pz        
   433     -0.155046  27 C  pz              452      0.153150  28 H  s         
   278     -0.151086  17 N  py        

 Vector   33  Occ=2.000000D+00  E=-7.389700D-01
              MO Center=  4.9D-01,  4.9D-01,  9.3D-02, r^2= 6.0D+00
   Bfn.  Coefficient  Atom+Function         Bfn.  Coefficient  Atom+Function  
  ----- ------------  ---------------      ----- ------------  ---------------
   536     -0.225672  32 H  s               515      0.217224  31 N  px        
   139      0.207501   9 C  s               145      0.206511   9 C  py        
   463      0.192393  29 C  s               434     -0.187638  27 C  px        
   163     -0.183751  10 H  s               225     -0.174289  15 C  s         
   464     -0.172336  29 C  s               429     -0.169948  27 C  s         

 Vector   34  Occ=2.000000D+00  E=-7.185459D-01
              MO Center= -3.8D-01, -1.7D-01, -2.9D-01, r^2= 5.7D+00
   Bfn.  Coefficient  Atom+Function         Bfn.  Coefficient  Atom+Function  
  ----- ------------  ---------------      ----- ------------  ---------------
   386      0.280890  24 C  s               275      0.264115  17 N  s         
   225     -0.218997  15 C  s               228     -0.206005  15 C  py        
   231     -0.201401  15 C  py              243     -0.200433  15 C  dxy       
   141     -0.196847   9 C  px              300     -0.184356  18 C  s         
   162     -0.151222  10 H  s         

 Vector   35  Occ=2.000000D+00  E=-6.915917D-01
              MO Center=  4.3D-01,  7.1D-01,  1.7D-01, r^2= 7.7D+00
   Bfn.  Coefficient  Atom+Function         Bfn.  Coefficient  Atom+Function  
  ----- ------------  ---------------      ----- ------------  ---------------
   139      0.313651   9 C  s               515     -0.259101  31 N  px        
   225     -0.235522  15 C  s               343     -0.231756  21 C  s         
   545     -0.228512  33 H  s               300      0.221591  18 C  s         
   145      0.217879   9 C  py              386      0.152626  24 C  s         

 Vector   36  Occ=2.000000D+00  E=-6.868691D-01
              MO Center=  3.7D-01, -2.2D+00,  2.7D-01, r^2= 6.9D+00
   Bfn.  Coefficient  Atom+Function         Bfn.  Coefficient  Atom+Function  
  ----- ------------  ---------------      ----- ------------  ---------------
    83     -0.250931   6 O  py               15      0.228193   2 C  py        
    18      0.216754   2 C  py               86     -0.164509   6 O  py        
    80     -0.158673   6 O  s                59      0.152275   5 C  pz        

 Vector   37  Occ=2.000000D+00  E=-6.703746D-01
              MO Center=  2.3D-01, -8.3D-01,  7.4D-02, r^2= 7.8D+00
   Bfn.  Coefficient  Atom+Function         Bfn.  Coefficient  Atom+Function  
  ----- ------------  ---------------      ----- ------------  ---------------
   108     -0.206225   7 N  py               83      0.201398   6 O  py        
    80      0.198938   6 O  s               142      0.198315   9 C  py        
   145      0.190760   9 C  py              139      0.182070   9 C  s         

 Vector   38  Occ=2.000000D+00  E=-6.456706D-01
              MO Center= -6.1D-01,  7.1D-01,  4.9D-01, r^2= 7.2D+00
   Bfn.  Coefficient  Atom+Function         Bfn.  Coefficient  Atom+Function  
  ----- ------------  ---------------      ----- ------------  ---------------
   304      0.227632  18 C  pz              323      0.209281  19 H  s         
   227      0.167740  15 C  px              277      0.168169  17 N  px        
   250      0.161325  16 O  s               343     -0.157651  21 C  s         

 Vector   39  Occ=2.000000D+00  E=-6.342797D-01
              MO Center= -7.6D-02,  1.9D-01,  1.1D-01, r^2= 9.5D+00
   Bfn.  Coefficient  Atom+Function         Bfn.  Coefficient  Atom+Function  
  ----- ------------  ---------------      ----- ------------  ---------------
   225      0.231687  15 C  s               343      0.214992  21 C  s         
   490      0.211592  30 O  px              252      0.197542  16 O  px        
   250     -0.183934  16 O  s               275     -0.178191  17 N  s         
   488      0.171964  30 O  s         

 Vector   40  Occ=2.000000D+00  E=-6.192487D-01
              MO Center= -1.0D-01, -2.1D+00,  3.5D-02, r^2= 8.6D+00
   Bfn.  Coefficient  Atom+Function         Bfn.  Coefficient  Atom+Function  
  ----- ------------  ---------------      ----- ------------  ---------------
   139      0.306262   9 C  s                44     -0.198302   4 H  s         
    14     -0.188499   2 C  px              225     -0.173938  15 C  s         
   252      0.162725  16 O  px              386     -0.163048  24 C  s         
    35      0.158372   3 H  s         

 Vector   41  Occ=2.000000D+00  E=-6.128840D-01
              MO Center= -2.3D-01,  4.2D-01, -6.1D-02, r^2= 9.6D+00
   Bfn.  Coefficient  Atom+Function         Bfn.  Coefficient  Atom+Function  
  ----- ------------  ---------------      ----- ------------  ---------------
   343     -0.209897  21 C  s               277      0.202732  17 N  px        
   453     -0.163341  28 H  s               280      0.153568  17 N  px        

 Vector   42  Occ=2.000000D+00  E=-6.022350D-01
              MO Center=  4.4D-02,  1.2D+00, -2.5D-01, r^2= 7.7D+00
   Bfn.  Coefficient  Atom+Function         Bfn.  Coefficient  Atom+Function  
  ----- ------------  ---------------      ----- ------------  ---------------
   343      0.299165  21 C  s               491     -0.187365  30 O  py        
   386     -0.181930  24 C  s               433     -0.171366  27 C  pz        
   302      0.170427  18 C  px              332     -0.165336  20 H  s         
   300     -0.152071  18 C  s         

 Vector   43  Occ=2.000000D+00  E=-5.916193D-01
              MO Center=  1.2D-01, -1.1D+00, -3.0D-01, r^2= 1.0D+01
   Bfn.  Coefficient  Atom+Function         Bfn.  Coefficient  Atom+Function  
  ----- ------------  ---------------      ----- ------------  ---------------
    58      0.221155   5 C  py              176      0.217306  11 C  py        
   205      0.205100  13 H  s               206      0.188055  13 H  s         
   145      0.177552   9 C  py               84     -0.166243   6 O  pz        
    82     -0.159137   6 O  px              139      0.155485   9 C  s         

 Vector   44  Occ=2.000000D+00  E=-5.867604D-01
              MO Center= -7.9D-02,  1.2D+00, -2.6D-01, r^2= 8.1D+00
   Bfn.  Coefficient  Atom+Function         Bfn.  Coefficient  Atom+Function  
  ----- ------------  ---------------      ----- ------------  ---------------
   139      0.222506   9 C  s               163     -0.216582  10 H  s         
   389      0.197889  24 C  py              176      0.166942  11 C  py        
   492     -0.164739  30 O  pz              346      0.162042  21 C  py        

 Vector   45  Occ=2.000000D+00  E=-5.794788D-01
              MO Center=  3.9D-01, -2.8D+00,  2.8D-01, r^2= 6.7D+00
   Bfn.  Coefficient  Atom+Function         Bfn.  Coefficient  Atom+Function  
  ----- ------------  ---------------      ----- ------------  ---------------
     2      0.255460   1 H  s                 1      0.222048   1 H  s         
    14      0.210200   2 C  px               84      0.203562   6 O  pz        
    82      0.183530   6 O  px               35     -0.177512   3 H  s         
    58     -0.174038   5 C  py               16      0.162872   2 C  pz        
   205      0.155154  13 H  s         

 Vector   46  Occ=2.000000D+00  E=-5.717600D-01
              MO Center= -1.6D-01,  9.3D-01, -6.8D-01, r^2= 8.5D+00
   Bfn.  Coefficient  Atom+Function         Bfn.  Coefficient  Atom+Function  
  ----- ------------  ---------------      ----- ------------  ---------------
   343      0.228925  21 C  s               300     -0.210579  18 C  s         
   214     -0.199386  14 H  s               175     -0.175385  11 C  px        
   215     -0.171351  14 H  s               492     -0.172188  30 O  pz        
   409     -0.161034  25 H  s               453      0.157232  28 H  s         
   197      0.151514  12 H  s               465     -0.151757  29 C  px        

 Vector   47  Occ=2.000000D+00  E=-5.654385D-01
              MO Center=  3.3D-01,  1.4D+00, -2.2D-01, r^2= 8.0D+00
   Bfn.  Coefficient  Atom+Function         Bfn.  Coefficient  Atom+Function  
  ----- ------------  ---------------      ----- ------------  ---------------
   376      0.223251  23 H  s               438      0.195747  27 C  py        
   344     -0.193833  21 C  s               163      0.179371  10 H  s         
   466      0.178520  29 C  py              375      0.171083  23 H  s         
   492      0.163475  30 O  pz              491      0.155835  30 O  py        
   386      0.152697  24 C  s               517      0.152948  31 N  pz        

 Vector   48  Occ=2.000000D+00  E=-5.566700D-01
              MO Center= -1.5D-01, -1.7D+00,  6.2D-02, r^2= 9.4D+00
   Bfn.  Coefficient  Atom+Function         Bfn.  Coefficient  Atom+Function  
  ----- ------------  ---------------      ----- ------------  ---------------
    16      0.263353   2 C  pz                1      0.191317   1 H  s         
    44     -0.191234   4 H  s               343     -0.172315  21 C  s         
   386      0.160569  24 C  s                 2      0.157646   1 H  s         

 Vector   49  Occ=2.000000D+00  E=-5.450450D-01
              MO Center= -3.3D-01, -1.2D+00, -5.3D-01, r^2= 9.6D+00
   Bfn.  Coefficient  Atom+Function         Bfn.  Coefficient  Atom+Function  
  ----- ------------  ---------------      ----- ------------  ---------------
   175      0.210666  11 C  px              163     -0.206813  10 H  s         
    55      0.201712   5 C  s                14      0.188085   2 C  px        
   215      0.184689  14 H  s                12     -0.181823   2 C  s         
     1      0.175207   1 H  s               206     -0.156380  13 H  s         

 Vector   50  Occ=2.000000D+00  E=-5.397104D-01
              MO Center= -4.8D-01, -3.9D-01, -7.9D-01, r^2= 7.5D+00
   Bfn.  Coefficient  Atom+Function         Bfn.  Coefficient  Atom+Function  
  ----- ------------  ---------------      ----- ------------  ---------------
   163      0.274880  10 H  s               196      0.224781  12 H  s         
   139     -0.209895   9 C  s               197      0.205965  12 H  s         
   175     -0.200250  11 C  px              162      0.184320  10 H  s         
   276      0.173839  17 N  s               206     -0.165195  13 H  s         
   142      0.160108   9 C  py              386     -0.155782  24 C  s         

 Vector   51  Occ=2.000000D+00  E=-5.260649D-01
              MO Center= -2.2D-01, -9.2D-01,  2.9D-02, r^2= 9.1D+00
   Bfn.  Coefficient  Atom+Function         Bfn.  Coefficient  Atom+Function  
  ----- ------------  ---------------      ----- ------------  ---------------
    82      0.185178   6 O  px              177     -0.161761  11 C  pz        
    14     -0.158675   2 C  px              229     -0.159309  15 C  pz        
    35      0.150025   3 H  s               283     -0.150512  17 N  px        

 Vector   52  Occ=2.000000D+00  E=-5.080296D-01
              MO Center= -1.7D-01, -2.7D-01, -2.3D-02, r^2= 9.2D+00
   Bfn.  Coefficient  Atom+Function         Bfn.  Coefficient  Atom+Function  
  ----- ------------  ---------------      ----- ------------  ---------------
   173     -0.186945  11 C  s               276     -0.185891  17 N  s         
   139      0.180085   9 C  s               180     -0.180903  11 C  pz        
   141      0.177878   9 C  px               82     -0.162061   6 O  px        
    84      0.160804   6 O  pz              163      0.158918  10 H  s         
   162      0.156770  10 H  s               418      0.151365  26 H  s         

 Vector   53  Occ=2.000000D+00  E=-4.983556D-01
              MO Center= -5.4D-01,  2.0D+00,  2.2D-01, r^2= 5.3D+00
   Bfn.  Coefficient  Atom+Function         Bfn.  Coefficient  Atom+Function  
  ----- ------------  ---------------      ----- ------------  ---------------
   346     -0.241538  21 C  py              303      0.220930  18 C  py        
   389      0.217962  24 C  py              410      0.214261  25 H  s         
   432     -0.193722  27 C  py              376     -0.177329  23 H  s         
   433     -0.167880  27 C  pz              375     -0.166287  23 H  s         
   452      0.162061  28 H  s               409      0.159192  25 H  s         

 Vector   54  Occ=2.000000D+00  E=-4.915645D-01
              MO Center= -7.6D-01,  2.3D+00,  5.9D-01, r^2= 5.0D+00
   Bfn.  Coefficient  Atom+Function         Bfn.  Coefficient  Atom+Function  
  ----- ------------  ---------------      ----- ------------  ---------------
   345      0.289566  21 C  px              410     -0.288357  25 H  s         
   376     -0.275769  23 H  s               367      0.250607  22 H  s         
   388     -0.237933  24 C  px              275     -0.222374  17 N  s         
   344      0.204066  21 C  s               366      0.204878  22 H  s         
   387      0.203372  24 C  s               301     -0.197025  18 C  s         

 Vector   55  Occ=2.000000D+00  E=-4.872046D-01
              MO Center= -6.0D-01,  2.4D+00,  4.2D-01, r^2= 4.3D+00
   Bfn.  Coefficient  Atom+Function         Bfn.  Coefficient  Atom+Function  
  ----- ------------  ---------------      ----- ------------  ---------------
   347     -0.316462  21 C  pz              390      0.310953  24 C  pz        
   324      0.297691  19 H  s               301     -0.223986  18 C  s         
   367     -0.206978  22 H  s               393      0.206255  24 C  pz        
   464     -0.207002  29 C  s               453      0.202230  28 H  s         
   366     -0.183329  22 H  s               387      0.179159  24 C  s         

 Vector   56  Occ=2.000000D+00  E=-4.343030D-01
              MO Center=  3.3D-01, -1.0D+00,  3.2D-01, r^2= 7.2D+00
   Bfn.  Coefficient  Atom+Function         Bfn.  Coefficient  Atom+Function  
  ----- ------------  ---------------      ----- ------------  ---------------
    84      0.285610   6 O  pz              253     -0.257254  16 O  py        
   163     -0.240909  10 H  s                83     -0.234175   6 O  py        
    87      0.231436   6 O  pz              256     -0.214116  16 O  py        
   429     -0.206027  27 C  s               107      0.190706   7 N  px        
    86     -0.189735   6 O  py              492     -0.174295  30 O  pz        

 Vector   57  Occ=2.000000D+00  E=-4.313669D-01
              MO Center= -2.0D-01, -3.4D-01,  1.6D-01, r^2= 7.3D+00
   Bfn.  Coefficient  Atom+Function         Bfn.  Coefficient  Atom+Function  
  ----- ------------  ---------------      ----- ------------  ---------------
   253      0.297727  16 O  py              254      0.258302  16 O  pz        
   256      0.237072  16 O  py              490     -0.206899  30 O  px        
   257      0.199310  16 O  pz               82      0.175912   6 O  px        
   343      0.162441  21 C  s               453      0.162988  28 H  s         
   493     -0.163069  30 O  px              492     -0.154753  30 O  pz        

 Vector   58  Occ=2.000000D+00  E=-4.303195D-01
              MO Center=  9.7D-01, -2.7D-01,  2.1D-01, r^2= 8.3D+00
   Bfn.  Coefficient  Atom+Function         Bfn.  Coefficient  Atom+Function  
  ----- ------------  ---------------      ----- ------------  ---------------
    83      0.290414   6 O  py              490     -0.235153  30 O  px        
    86      0.225444   6 O  py              429     -0.205290  27 C  s         
   491      0.205080  30 O  py              493     -0.194454  30 O  px        
   453      0.191496  28 H  s                84     -0.179670   6 O  pz        
    18      0.161549   2 C  py              494      0.159719  30 O  py        

 Vector   59  Occ=2.000000D+00  E=-4.064277D-01
              MO Center=  4.8D-02, -1.4D+00, -3.0D-02, r^2= 5.0D+00
   Bfn.  Coefficient  Atom+Function         Bfn.  Coefficient  Atom+Function  
  ----- ------------  ---------------      ----- ------------  ---------------
   109     -0.256244   7 N  pz              107      0.249930   7 N  px        
   110      0.229602   7 N  px               82     -0.226214   6 O  px        
   112     -0.217879   7 N  pz               85     -0.186072   6 O  px        
   253      0.181588  16 O  py              256      0.166342  16 O  py        

 Vector   60  Occ=2.000000D+00  E=-3.964462D-01
              MO Center=  1.8D+00,  8.5D-01,  3.6D-02, r^2= 4.6D+00
   Bfn.  Coefficient  Atom+Function         Bfn.  Coefficient  Atom+Function  
  ----- ------------  ---------------      ----- ------------  ---------------
   516      0.308393  31 N  py              519      0.273666  31 N  py        
   491     -0.268181  30 O  py              517      0.266763  31 N  pz        
   492     -0.248868  30 O  pz              520      0.235682  31 N  pz        
   494     -0.217892  30 O  py              495     -0.196189  30 O  pz        

 Vector   61  Occ=2.000000D+00  E=-3.756459D-01
              MO Center= -3.9D-01,  9.7D-01,  1.2D-01, r^2= 4.9D+00
   Bfn.  Coefficient  Atom+Function         Bfn.  Coefficient  Atom+Function  
  ----- ------------  ---------------      ----- ------------  ---------------
   277      0.308705  17 N  px              280      0.295398  17 N  px        
   279      0.247168  17 N  pz              282      0.242537  17 N  pz        
   490     -0.215975  30 O  px              276     -0.213627  17 N  s         
   252     -0.186274  16 O  px              254     -0.185957  16 O  pz        
   386     -0.159525  24 C  s               493     -0.160026  30 O  px        

 Vector   62  Occ=0.000000D+00  E= 2.638142D-02
              MO Center= -1.0D+00, -2.8D+00, -2.7D+00, r^2= 2.5D+01
   Bfn.  Coefficient  Atom+Function         Bfn.  Coefficient  Atom+Function  
  ----- ------------  ---------------      ----- ------------  ---------------
   464      3.172737  29 C  s               148     -2.263474   9 C  py        
   216     -2.194926  14 H  s               301      2.169786  18 C  s         
   149     -1.706955   9 C  pz              173      1.667824  11 C  s         
    46     -1.593575   4 H  s                12      1.371518   2 C  s         
   215     -1.376830  14 H  s               106     -1.367461   7 N  s         

 Vector   63  Occ=0.000000D+00  E= 3.358633D-02
              MO Center= -1.9D+00,  1.2D+00, -9.1D-01, r^2= 3.9D+01
   Bfn.  Coefficient  Atom+Function         Bfn.  Coefficient  Atom+Function  
  ----- ------------  ---------------      ----- ------------  ---------------
   464      7.041008  29 C  s               438      4.486839  27 C  py        
    56      4.302992   5 C  s               387     -4.198495  24 C  s         
   148      3.924304   9 C  py              149     -3.608105   9 C  pz        
   301      3.534708  18 C  s               174     -3.024454  11 C  s         
   207     -2.688201  13 H  s               420     -2.559381  26 H  s         

 Vector   64  Occ=0.000000D+00  E= 3.956711D-02
              MO Center= -3.1D-01,  1.9D-01,  1.0D+00, r^2= 4.3D+01
   Bfn.  Coefficient  Atom+Function         Bfn.  Coefficient  Atom+Function  
  ----- ------------  ---------------      ----- ------------  ---------------
   301      3.403696  18 C  s               149      3.285354   9 C  pz        
   514     -2.691400  31 N  s               377     -2.598085  23 H  s         
   344     -2.547329  21 C  s               438      2.346286  27 C  py        
    56     -2.290818   5 C  s                64     -2.271474   5 C  py        
    12      2.229636   2 C  s               140      2.137498   9 C  s         

 Vector   65  Occ=0.000000D+00  E= 4.700859D-02
              MO Center= -7.1D-02, -1.5D+00, -7.5D-01, r^2= 3.5D+01
   Bfn.  Coefficient  Atom+Function         Bfn.  Coefficient  Atom+Function  
  ----- ------------  ---------------      ----- ------------  ---------------
   464      2.974276  29 C  s               216     -2.553450  14 H  s         
    37      2.300964   3 H  s               198      2.205554  12 H  s         
   164     -1.997754  10 H  s                64      1.776606   5 C  py        
   514     -1.774991  31 N  s               334      1.655048  20 H  s         
   149     -1.615349   9 C  pz              547     -1.491517  33 H  s         

 Vector   66  Occ=0.000000D+00  E= 4.923306D-02
              MO Center= -3.2D-01, -9.2D-01,  3.1D-01, r^2= 4.5D+01
   Bfn.  Coefficient  Atom+Function         Bfn.  Coefficient  Atom+Function  
  ----- ------------  ---------------      ----- ------------  ---------------
   377     -2.984638  23 H  s                 3      2.861029   1 H  s         
   207      2.818260  13 H  s               130     -2.364662   8 H  s         
   420      2.235544  26 H  s               147     -1.913335   9 C  px        
   106     -1.894282   7 N  s               216     -1.874554  14 H  s         
    65     -1.622242   5 C  pz               64      1.598739   5 C  py        

 Vector   67  Occ=0.000000D+00  E= 5.123692D-02
              MO Center= -3.7D-01,  2.8D-02,  2.3D-01, r^2= 4.2D+01
   Bfn.  Coefficient  Atom+Function         Bfn.  Coefficient  Atom+Function  
  ----- ------------  ---------------      ----- ------------  ---------------
    46      2.552606   4 H  s               377      2.280299  23 H  s         
   198     -2.133110  12 H  s               368     -1.991541  22 H  s         
    56     -1.848599   5 C  s               514     -1.844680  31 N  s         
   325     -1.697111  19 H  s               174      1.661489  11 C  s         
   411      1.611980  25 H  s               472     -1.586508  29 C  py        

 Vector   68  Occ=0.000000D+00  E= 5.697167D-02
              MO Center= -1.1D+00,  2.2D+00,  3.1D-01, r^2= 3.8D+01
   Bfn.  Coefficient  Atom+Function         Bfn.  Coefficient  Atom+Function  
  ----- ------------  ---------------      ----- ------------  ---------------
   411     -3.710604  25 H  s               334      3.520723  20 H  s         
   164      2.580074  10 H  s               234     -2.456054  15 C  py        
    37     -1.900566   3 H  s               472      1.881062  29 C  py        
   464      1.854725  29 C  s               308      1.809035  18 C  px        
   309      1.763428  18 C  py              437     -1.757437  27 C  px        

 Vector   69  Occ=0.000000D+00  E= 6.206785D-02
              MO Center=  3.9D-01, -8.8D-01,  1.3D-01, r^2= 4.0D+01
   Bfn.  Coefficient  Atom+Function         Bfn.  Coefficient  Atom+Function  
  ----- ------------  ---------------      ----- ------------  ---------------
   514     -3.358322  31 N  s               454      3.312388  28 H  s         
   325      3.068827  19 H  s               334     -3.012251  20 H  s         
   216      2.643919  14 H  s               547     -2.563319  33 H  s         
   377      2.346348  23 H  s                37      2.280016   3 H  s         
   420     -2.222500  26 H  s               198     -1.971151  12 H  s         

 Vector   70  Occ=0.000000D+00  E= 6.613505D-02
              MO Center= -8.2D-01, -1.2D+00,  1.5D-01, r^2= 4.3D+01
   Bfn.  Coefficient  Atom+Function         Bfn.  Coefficient  Atom+Function  
  ----- ------------  ---------------      ----- ------------  ---------------
    56      6.882203   5 C  s                 3      4.043707   1 H  s         
   454     -3.741843  28 H  s               148      3.509837   9 C  py        
   377      3.430190  23 H  s                65     -2.774123   5 C  pz        
   198      2.740390  12 H  s               174     -2.641836  11 C  s         
   106     -2.519993   7 N  s               325     -2.402165  19 H  s         

 Vector   71  Occ=0.000000D+00  E= 6.897367D-02
              MO Center=  6.0D-01, -8.1D-01,  1.0D-01, r^2= 4.2D+01
   Bfn.  Coefficient  Atom+Function         Bfn.  Coefficient  Atom+Function  
  ----- ------------  ---------------      ----- ------------  ---------------
   164     -4.230249  10 H  s               368      4.029179  22 H  s         
    46      4.005579   4 H  s               207      3.958693  13 H  s         
   377     -2.760224  23 H  s               351     -2.229817  21 C  px        
   464      2.179345  29 C  s               216     -1.975010  14 H  s         
   147      1.944848   9 C  px               37     -1.819290   3 H  s         

 Vector   72  Occ=0.000000D+00  E= 7.493402D-02
              MO Center= -4.8D-01,  2.7D-01, -7.7D-02, r^2= 4.2D+01
   Bfn.  Coefficient  Atom+Function         Bfn.  Coefficient  Atom+Function  
  ----- ------------  ---------------      ----- ------------  ---------------
   420      5.850665  26 H  s                56      4.266700   5 C  s         
   334     -3.858579  20 H  s               538      3.481360  32 H  s         
   130      3.346407   8 H  s               149     -3.154824   9 C  pz        
   411     -3.083243  25 H  s               276      3.048099  17 N  s         
   174     -2.986427  11 C  s               164     -2.732415  10 H  s         

 Vector   73  Occ=0.000000D+00  E= 7.686430D-02
              MO Center= -4.6D-01,  2.1D+00,  4.1D-01, r^2= 4.2D+01
   Bfn.  Coefficient  Atom+Function         Bfn.  Coefficient  Atom+Function  
  ----- ------------  ---------------      ----- ------------  ---------------
   411      6.699429  25 H  s               514     -5.589148  31 N  s         
   207     -4.256457  13 H  s               301     -3.819242  18 C  s         
   464      3.678837  29 C  s               454      3.347590  28 H  s         
   344     -3.310212  21 C  s               394     -3.152973  24 C  px        
   377     -3.129745  23 H  s               368     -3.061185  22 H  s         

 Vector   74  Occ=0.000000D+00  E= 8.268461D-02
              MO Center= -1.0D+00,  3.0D-01, -9.8D-01, r^2= 4.0D+01
   Bfn.  Coefficient  Atom+Function         Bfn.  Coefficient  Atom+Function  
  ----- ------------  ---------------      ----- ------------  ---------------
   334      5.797616  20 H  s               216      5.536784  14 H  s         
   164     -5.199478  10 H  s               377     -5.118923  23 H  s         
    56      4.304318   5 C  s               325     -4.075340  19 H  s         
   368      4.092565  22 H  s               198     -3.840473  12 H  s         
   454     -3.483420  28 H  s               283     -3.280320  17 N  px        

 Vector   75  Occ=0.000000D+00  E= 8.777156D-02
              MO Center=  6.8D-01,  1.3D-01, -9.7D-01, r^2= 3.5D+01
   Bfn.  Coefficient  Atom+Function         Bfn.  Coefficient  Atom+Function  
  ----- ------------  ---------------      ----- ------------  ---------------
   164     11.366384  10 H  s               454     -6.691673  28 H  s         
   234      5.544033  15 C  py              148     -5.337784   9 C  py        
   420      4.788937  26 H  s                56     -4.661455   5 C  s         
   439     -3.812337  27 C  pz              149      3.519079   9 C  pz        
   301      3.503482  18 C  s               147     -3.480737   9 C  px        

 Vector   76  Occ=0.000000D+00  E= 8.926676D-02
              MO Center= -5.5D-02, -1.7D-01,  2.2D-01, r^2= 4.3D+01
   Bfn.  Coefficient  Atom+Function         Bfn.  Coefficient  Atom+Function  
  ----- ------------  ---------------      ----- ------------  ---------------
   454      8.188693  28 H  s               368      6.016833  22 H  s         
   325     -5.105047  19 H  s               439      5.056245  27 C  pz        
   130      3.909110   8 H  s                56      3.691242   5 C  s         
   334      3.651287  20 H  s                 3      3.608539   1 H  s         
   207     -3.333467  13 H  s               464      3.307378  29 C  s         

 Vector   77  Occ=0.000000D+00  E= 9.986811D-02
              MO Center= -6.4D-01, -1.1D-01, -1.4D+00, r^2= 4.0D+01
   Bfn.  Coefficient  Atom+Function         Bfn.  Coefficient  Atom+Function  
  ----- ------------  ---------------      ----- ------------  ---------------
   207     10.900335  13 H  s               454     -8.370844  28 H  s         
   301      6.860658  18 C  s               198     -5.822796  12 H  s         
    56     -5.157489   5 C  s                64     -4.652488   5 C  py        
   420     -4.459789  26 H  s               538      4.289280  32 H  s         
   411      4.158236  25 H  s               216     -3.901328  14 H  s         

 Vector   78  Occ=0.000000D+00  E= 1.068975D-01
              MO Center=  5.5D-01,  2.7D-01,  1.4D+00, r^2= 3.3D+01
   Bfn.  Coefficient  Atom+Function         Bfn.  Coefficient  Atom+Function  
  ----- ------------  ---------------      ----- ------------  ---------------
   538      9.748431  32 H  s               454      8.952918  28 H  s         
   207     -5.826519  13 H  s               164     -5.277905  10 H  s         
   325     -4.304206  19 H  s               344      4.068509  21 C  s         
   439      3.801415  27 C  pz              148     -3.653875   9 C  py        
   234     -3.232996  15 C  py               56     -3.210407   5 C  s         

 Vector   79  Occ=0.000000D+00  E= 1.204115D-01
              MO Center=  5.7D-02, -1.2D+00, -4.5D-01, r^2= 3.3D+01
   Bfn.  Coefficient  Atom+Function         Bfn.  Coefficient  Atom+Function  
  ----- ------------  ---------------      ----- ------------  ---------------
    56     18.186961   5 C  s               387    -12.899097  24 C  s         
   174    -12.267581  11 C  s               438     11.681106  27 C  py        
   149    -10.203352   9 C  pz              148     10.063889   9 C  py        
   464      6.757704  29 C  s               301      6.657166  18 C  s         
   164      6.261249  10 H  s               454     -5.890738  28 H  s         

 Vector   80  Occ=0.000000D+00  E= 1.230059D-01
              MO Center= -2.6D-01,  2.3D+00, -5.8D-01, r^2= 2.9D+01
   Bfn.  Coefficient  Atom+Function         Bfn.  Coefficient  Atom+Function  
  ----- ------------  ---------------      ----- ------------  ---------------
   464     29.084296  29 C  s               301     17.306217  18 C  s         
   387    -16.525076  24 C  s               344    -14.600207  21 C  s         
   438      9.828002  27 C  py              437     -8.321359  27 C  px        
    56      8.178513   5 C  s               149     -8.208424   9 C  pz        
   514     -7.991250  31 N  s               454      7.514180  28 H  s         

 Vector   81  Occ=0.000000D+00  E= 1.292922D-01
              MO Center=  4.0D-01,  6.5D-01, -1.0D-01, r^2= 3.4D+01
   Bfn.  Coefficient  Atom+Function         Bfn.  Coefficient  Atom+Function  
  ----- ------------  ---------------      ----- ------------  ---------------
   464    -13.330179  29 C  s               344     12.452323  21 C  s         
   438     -9.701939  27 C  py              387      7.738621  24 C  s         
   514      6.791580  31 N  s               471      6.623326  29 C  px        
   301     -6.147801  18 C  s               164     -6.048075  10 H  s         
   377      4.542334  23 H  s               147      4.501081   9 C  px        

 Vector   82  Occ=0.000000D+00  E= 1.360687D-01
              MO Center= -4.0D-01,  8.0D-01, -1.8D-01, r^2= 3.3D+01
   Bfn.  Coefficient  Atom+Function         Bfn.  Coefficient  Atom+Function  
  ----- ------------  ---------------      ----- ------------  ---------------
   301     15.862649  18 C  s               387    -14.551716  24 C  s         
   438     11.470846  27 C  py              148      9.768712   9 C  py        
   344     -6.591089  21 C  s               140      5.803115   9 C  s         
   283      4.841588  17 N  px              284      4.542805  17 N  py        
   285     -4.371218  17 N  pz              395      4.387611  24 C  py        

 Vector   83  Occ=0.000000D+00  E= 1.381396D-01
              MO Center= -7.4D-01,  3.1D-01, -1.0D+00, r^2= 2.9D+01
   Bfn.  Coefficient  Atom+Function         Bfn.  Coefficient  Atom+Function  
  ----- ------------  ---------------      ----- ------------  ---------------
    56     10.474548   5 C  s               344      9.654022  21 C  s         
   174     -8.574757  11 C  s               234     -8.329721  15 C  py        
   387     -8.036334  24 C  s               148      5.901268   9 C  py        
   276      5.731391  17 N  s               183     -5.520923  11 C  pz        
   149     -4.968668   9 C  pz              216     -4.752491  14 H  s         

 Vector   84  Occ=0.000000D+00  E= 1.405535D-01
              MO Center= -9.8D-01, -1.0D+00, -4.6D-01, r^2= 3.2D+01
   Bfn.  Coefficient  Atom+Function         Bfn.  Coefficient  Atom+Function  
  ----- ------------  ---------------      ----- ------------  ---------------
   438     13.333302  27 C  py              344    -13.105750  21 C  s         
   148     12.474147   9 C  py              106      6.489978   7 N  s         
   387     -6.458492  24 C  s               301      4.466111  18 C  s         
   164      4.260458  10 H  s               233      4.071421  15 C  px        
   140      3.748827   9 C  s               396      3.767323  24 C  pz        

 Vector   85  Occ=0.000000D+00  E= 1.480368D-01
              MO Center=  4.1D-01,  1.6D+00,  1.0D+00, r^2= 2.9D+01
   Bfn.  Coefficient  Atom+Function         Bfn.  Coefficient  Atom+Function  
  ----- ------------  ---------------      ----- ------------  ---------------
   344     11.412572  21 C  s               514     10.482314  31 N  s         
   464    -10.032715  29 C  s               473     -7.261470  29 C  pz        
   309     -5.938323  18 C  py              301     -5.756906  18 C  s         
   430     -5.553990  27 C  s               235     -5.312151  15 C  pz        
[...]
   Bfn.  Coefficient  Atom+Function         Bfn.  Coefficient  Atom+Function  
  ----- ------------  ---------------      ----- ------------  ---------------
    56     19.934936   5 C  s               148     17.972948   9 C  py        
   149    -15.699267   9 C  pz              234    -14.765723  15 C  py        
   514     14.428162  31 N  s               276     14.278831  17 N  s         
   174    -14.050943  11 C  s               301     -9.447151  18 C  s         
   226     -9.128429  15 C  s                13     -8.630593   2 C  s         

 Vector  156  Occ=0.000000D+00  E= 4.350943D-01
              MO Center= -5.3D-02, -8.2D-02, -2.9D-01, r^2= 2.0D+01
   Bfn.  Coefficient  Atom+Function         Bfn.  Coefficient  Atom+Function  
  ----- ------------  ---------------      ----- ------------  ---------------
   464     19.405304  29 C  s               438     17.977625  27 C  py        
   514    -15.792861  31 N  s               147     -9.488307   9 C  px        
   430      9.171912  27 C  s               173      8.685241  11 C  s         
   234     -8.319704  15 C  py              472     -8.250995  29 C  py        
   344     -8.142742  21 C  s               206     -7.186415  13 H  s         

 Vector  157  Occ=0.000000D+00  E= 4.388531D-01
              MO Center=  6.3D-02, -6.8D-01,  3.2D-01, r^2= 2.3D+01
   Bfn.  Coefficient  Atom+Function         Bfn.  Coefficient  Atom+Function  
  ----- ------------  ---------------      ----- ------------  ---------------
   438      9.917906  27 C  py              226      7.793410  15 C  s         
   344     -7.557846  21 C  s               106     -7.430303   7 N  s         
    13      7.319733   2 C  s               173      6.994423  11 C  s         
   163     -6.708002  10 H  s               283      6.478950  17 N  px        
    64      6.267756   5 C  py              233      5.498552  15 C  px        

 Vector  158  Occ=0.000000D+00  E= 4.411201D-01
              MO Center= -4.6D-01, -1.6D-01,  6.7D-01, r^2= 2.2D+01
   Bfn.  Coefficient  Atom+Function         Bfn.  Coefficient  Atom+Function  
  ----- ------------  ---------------      ----- ------------  ---------------
   301    -14.181699  18 C  s                56     12.955507   5 C  s         
   283     -9.071146  17 N  px              226     -8.942225  15 C  s         
   140     -8.083307   9 C  s               276      7.613538  17 N  s         
   174     -7.066507  11 C  s               387      6.505028  24 C  s         
   300     -5.723692  18 C  s               163      5.574187  10 H  s         

 Vector  159  Occ=0.000000D+00  E= 4.438717D-01
              MO Center= -1.4D-01, -6.2D-01,  2.5D-01, r^2= 2.2D+01
   Bfn.  Coefficient  Atom+Function         Bfn.  Coefficient  Atom+Function  
  ----- ------------  ---------------      ----- ------------  ---------------
   301     14.110669  18 C  s               344      7.290177  21 C  s         
   276     -6.752697  17 N  s               387     -6.238151  24 C  s         
   148      6.069467   9 C  py              235     -6.049404  15 C  pz        
   438     -5.729248  27 C  py              396     -5.169990  24 C  pz        
   149      4.781248   9 C  pz              164      4.724420  10 H  s         

 Vector  160  Occ=0.000000D+00  E= 4.458385D-01
              MO Center=  5.8D-01, -5.1D-01, -5.2D-02, r^2= 2.0D+01
   Bfn.  Coefficient  Atom+Function         Bfn.  Coefficient  Atom+Function  
  ----- ------------  ---------------      ----- ------------  ---------------
   301     19.203604  18 C  s                56    -17.056076   5 C  s         
   106     -9.009709   7 N  s               387     -7.945753  24 C  s         
   149      7.723680   9 C  pz              234     -7.322397  15 C  py        
   344     -7.235180  21 C  s               235     -6.196565  15 C  pz        
   226      5.693868  15 C  s               114     -5.550160   7 N  py        

 Vector  161  Occ=0.000000D+00  E= 4.522539D-01
              MO Center= -5.6D-01,  1.4D+00,  6.9D-01, r^2= 1.6D+01
   Bfn.  Coefficient  Atom+Function         Bfn.  Coefficient  Atom+Function  
  ----- ------------  ---------------      ----- ------------  ---------------
   301     24.455616  18 C  s               387    -22.788968  24 C  s         
   464     11.265918  29 C  s                56      9.275932   5 C  s         
   285     -9.312193  17 N  pz              235      8.280961  15 C  pz        
   343      8.038380  21 C  s               174     -7.693274  11 C  s         
   283      7.245564  17 N  px               12     -6.628807   2 C  s         

 Vector  162  Occ=0.000000D+00  E= 4.552354D-01
              MO Center= -5.4D-01, -6.0D-01, -3.9D-01, r^2= 1.9D+01
   Bfn.  Coefficient  Atom+Function         Bfn.  Coefficient  Atom+Function  
  ----- ------------  ---------------      ----- ------------  ---------------
   276     17.106955  17 N  s               438     16.731061  27 C  py        
   148     14.217790   9 C  py              387    -11.888407  24 C  s         
   149    -11.189960   9 C  pz              464    -10.686375  29 C  s         
   514     10.246670  31 N  s                56      9.881760   5 C  s         
   174     -8.894904  11 C  s               344     -8.692839  21 C  s         

 Vector  163  Occ=0.000000D+00  E= 4.644045D-01
              MO Center=  1.5D-01, -4.0D-01, -6.1D-01, r^2= 1.9D+01
   Bfn.  Coefficient  Atom+Function         Bfn.  Coefficient  Atom+Function  
  ----- ------------  ---------------      ----- ------------  ---------------
   344     17.134206  21 C  s               464    -16.039599  29 C  s         
   514     16.035963  31 N  s               276     11.828234  17 N  s         
   301    -10.610696  18 C  s               283      6.715154  17 N  px        
   140     -6.602106   9 C  s               174     -6.419614  11 C  s         
    56      6.076370   5 C  s               438     -5.887240  27 C  py        

 Vector  164  Occ=0.000000D+00  E= 4.670921D-01
              MO Center= -2.1D-01,  1.1D+00,  1.1D-01, r^2= 1.8D+01
   Bfn.  Coefficient  Atom+Function         Bfn.  Coefficient  Atom+Function  
  ----- ------------  ---------------      ----- ------------  ---------------
   514     10.845383  31 N  s                56     -8.517901   5 C  s         
   419     -7.999336  26 H  s               387      7.578733  24 C  s         
   472      7.111384  29 C  py              148      6.498844   9 C  py        
   439      6.414734  27 C  pz              386      6.263521  24 C  s         
   324     -6.125083  19 H  s                81      5.878073   6 O  s         

 Vector  165  Occ=0.000000D+00  E= 4.718951D-01
              MO Center=  3.1D-02,  9.2D-01,  3.9D-02, r^2= 1.9D+01
   Bfn.  Coefficient  Atom+Function         Bfn.  Coefficient  Atom+Function  
  ----- ------------  ---------------      ----- ------------  ---------------
   419     -8.986546  26 H  s               386      8.670696  24 C  s         
   464      8.194356  29 C  s               394     -5.442731  24 C  px        
    12      4.992891   2 C  s               235      4.897344  15 C  pz        
   301      4.816669  18 C  s               453     -4.575316  28 H  s         
   344     -4.444196  21 C  s               351      4.035616  21 C  px        

 Vector  166  Occ=0.000000D+00  E= 4.758490D-01
              MO Center= -4.8D-02,  8.5D-02,  4.5D-01, r^2= 2.0D+01
   Bfn.  Coefficient  Atom+Function         Bfn.  Coefficient  Atom+Function  
  ----- ------------  ---------------      ----- ------------  ---------------
   284      8.459461  17 N  py              344     -7.774379  21 C  s         
   106     -6.796410   7 N  s               301      5.445631  18 C  s         
   514     -5.008336  31 N  s               351     -4.902839  21 C  px        
   174      4.620662  11 C  s               368      4.004544  22 H  s         
   521      3.916847  31 N  px              367      3.882823  22 H  s         

 Vector  167  Occ=0.000000D+00  E= 4.828894D-01
              MO Center= -4.0D-01,  1.2D+00, -5.0D-01, r^2= 1.9D+01
   Bfn.  Coefficient  Atom+Function         Bfn.  Coefficient  Atom+Function  
  ----- ------------  ---------------      ----- ------------  ---------------
   148     12.960349   9 C  py              464    -10.107054  29 C  s         
   438      9.152122  27 C  py              173      8.629044  11 C  s         
   206     -8.012065  13 H  s                13      7.705333   2 C  s         
   344     -7.704836  21 C  s               215     -6.907039  14 H  s         
   309      6.652796  18 C  py              351      6.084612  21 C  px        

 Vector  168  Occ=0.000000D+00  E= 4.883902D-01
              MO Center= -4.4D-01, -3.4D-02, -1.1D+00, r^2= 1.6D+01
   Bfn.  Coefficient  Atom+Function         Bfn.  Coefficient  Atom+Function  
  ----- ------------  ---------------      ----- ------------  ---------------
    56     11.971632   5 C  s               284    -10.825175  17 N  py        
   464     10.796685  29 C  s               149     -8.577621   9 C  pz        
   387     -8.007936  24 C  s                13     -7.518042   2 C  s         
   163      7.379188  10 H  s               148     -7.079766   9 C  py        
   174     -6.647754  11 C  s               514      6.656769  31 N  s         

 Vector  169  Occ=0.000000D+00  E= 4.921640D-01
              MO Center=  1.4D-01,  1.0D+00,  7.5D-01, r^2= 1.7D+01
   Bfn.  Coefficient  Atom+Function         Bfn.  Coefficient  Atom+Function  
  ----- ------------  ---------------      ----- ------------  ---------------
   344     26.169831  21 C  s               148    -15.636794   9 C  py        
   367    -10.951603  22 H  s               284    -10.423505  17 N  py        
   438     -9.186280  27 C  py              343      7.795389  21 C  s         
   309     -7.285860  18 C  py              235     -7.215964  15 C  pz        
   106     -6.260476   7 N  s                13     -6.219745   2 C  s         

 Vector  170  Occ=0.000000D+00  E= 4.959161D-01
              MO Center= -4.3D-01, -8.4D-02,  3.2D-02, r^2= 1.8D+01
   Bfn.  Coefficient  Atom+Function         Bfn.  Coefficient  Atom+Function  
  ----- ------------  ---------------      ----- ------------  ---------------
    56     31.493639   5 C  s               464     17.771013  29 C  s         
   149    -13.821741   9 C  pz              174    -13.067265  11 C  s         
   438     12.333385  27 C  py              226    -11.932181  15 C  s         
   148     10.349266   9 C  py              387    -10.382194  24 C  s         
   333      9.937166  20 H  s               140     -8.835751   9 C  s         

 Vector  171  Occ=0.000000D+00  E= 4.987288D-01
              MO Center= -4.3D-01,  3.5D-01,  1.4D-01, r^2= 1.7D+01
   Bfn.  Coefficient  Atom+Function         Bfn.  Coefficient  Atom+Function  
  ----- ------------  ---------------      ----- ------------  ---------------
   344     21.884028  21 C  s                56     19.558819   5 C  s         
   174    -13.574272  11 C  s               276     11.350292  17 N  s         
   226     -9.805786  15 C  s               376     -8.711643  23 H  s         
   284     -8.644803  17 N  py              149     -7.955448   9 C  pz        
    13     -7.629330   2 C  s               148      7.433652   9 C  py        

 Vector  172  Occ=0.000000D+00  E= 5.035703D-01
              MO Center= -2.3D-01,  1.1D+00,  1.7D-01, r^2= 1.8D+01
   Bfn.  Coefficient  Atom+Function         Bfn.  Coefficient  Atom+Function  
  ----- ------------  ---------------      ----- ------------  ---------------
   344     24.566355  21 C  s               464    -21.896931  29 C  s         
   438    -13.119239  27 C  py              301    -12.659496  18 C  s         
   387     12.534111  24 C  s               514     12.383127  31 N  s         
   430     -8.887358  27 C  s               276     -7.129267  17 N  s         
   149      6.919331   9 C  pz              472      6.860243  29 C  py        


 center of mass
 --------------
 x =   0.03729109 y =   0.00733698 z =   0.01987642

 moments of inertia (a.u.)
 ------------------
        4841.778351390681          -0.000000000000          -0.000000000000
          -0.000000000000        2205.790690412637           0.000000000002
          -0.000000000000           0.000000000002        5435.059195318433

  Mulliken analysis of the total density
  --------------------------------------

    Atom       Charge   Shell Charges
 -----------   ------   -------------------------------------------------------
    1 H    1     1.01   0.76  0.26  0.00  0.03 -0.05
    2 C    6     6.17   2.01  0.66  0.23  0.04  2.07  1.01  0.01  0.06  0.09
    3 H    1     0.87   0.76  0.14 -0.00  0.03 -0.06
    4 H    1     0.87   0.76  0.14 -0.00  0.03 -0.06
    5 C    6     5.13   2.01  0.68  0.10 -0.09  1.89  0.30  0.01  0.24 -0.01
    6 O    8     8.80   2.01  0.82  0.99  0.17  2.80  1.85  0.17  0.01 -0.01
    7 N    7     7.85   2.01  0.72  0.93  0.01  2.45  1.45  0.15  0.05  0.07
    8 H    1     0.96   0.77  0.19 -0.01  0.05 -0.05
    9 C    6     6.57   2.01  0.66  0.31 -0.04  2.00  1.24  0.03  0.14  0.23
   10 H    1     1.15   0.79  0.31 -0.01  0.03  0.03
   11 C    6     5.43   2.01  0.66  0.19  0.02  2.04  0.50 -0.04  0.07 -0.02
   12 H    1     0.91   0.77  0.19  0.01  0.03 -0.09
   13 H    1     0.99   0.77  0.24  0.01  0.03 -0.07
   14 H    1     0.91   0.77  0.21 -0.01  0.03 -0.10
   15 C    6     4.41   2.01  0.68 -0.06  0.04  1.88  0.20 -0.14  0.23 -0.43
   16 O    8     8.91   2.01  0.82  1.06  0.20  2.78  1.87  0.15  0.01  0.00
   17 N    7     7.71   2.01  0.71  0.74 -0.01  2.44  1.58  0.10  0.06  0.08
   18 C    6     5.94   2.01  0.67  0.55 -0.04  2.01  0.45  0.04  0.12  0.12
   19 H    1     0.90   0.78  0.19 -0.01  0.03 -0.09
   20 H    1     0.89   0.79  0.16 -0.02  0.03 -0.07
   21 C    6     5.87   2.01  0.66  0.23 -0.02  2.04  0.78  0.10  0.09 -0.01
   22 H    1     0.98   0.79  0.27 -0.03  0.03 -0.08
   23 H    1     1.03   0.78  0.33  0.01  0.03 -0.12
   24 C    6     6.07   2.01  0.66  0.45 -0.08  2.04  0.78  0.04  0.09  0.08
   25 H    1     0.97   0.77  0.27 -0.00  0.03 -0.10
   26 H    1     0.89   0.79  0.19 -0.02  0.03 -0.10
   27 C    6     6.20   2.01  0.67  0.13 -0.01  2.00  1.09  0.11  0.14  0.08
   28 H    1     1.17   0.79  0.37 -0.01  0.03  0.00
   29 C    6     4.61   2.01  0.68  0.06  0.02  1.89 -0.21  0.03  0.24 -0.11
   30 O    8     8.88   2.01  0.82  1.05  0.20  2.79  1.85  0.14  0.01  0.00
   31 N    7     7.16   2.01  0.72  0.80 -0.20  2.46  1.25  0.09  0.04 -0.02
   32 H    1     0.78   0.74  0.09 -0.01  0.06 -0.09
   33 H    1     1.01   0.75  0.23 -0.01  0.05 -0.02

       Multipole analysis of the density wrt the origin
       ------------------------------------------------

     L   x y z        total         open         nuclear
     -   - - -        -----         ----         -------
     0   0 0 0      0.000000      0.000000    122.000000

     1   1 0 0     -1.006102      0.000000     -0.000000
     1   0 1 0     -0.763716      0.000000     -0.000000
     1   0 0 1     -0.641002      0.000000      0.000000

     2   2 0 0    -82.057251      0.000000    759.557098
     2   1 1 0     -8.573185      0.000000    -27.413307
     2   1 0 1      7.201339      0.000000     17.276777
     2   0 2 0    -61.403837      0.000000   2274.363218
     2   0 1 1      8.257363      0.000000     19.211329
     2   0 0 2    -70.546106      0.000000    483.665709


 Task  times  cpu:     4485.4s     wall:     4553.4s


                                NWChem Input Module
                                -------------------


 Summary of allocated global arrays
-----------------------------------
  No active global arrays


MA_summarize_allocated_blocks: starting scan ...
MA_summarize_allocated_blocks: scan completed: 0 heap blocks, 0 stack blocks
MA usage statistics:

	allocation statistics:
					      heap	     stack
					      ----	     -----
	current number of blocks	         0	         0
	maximum number of blocks	        16	        14
	current total bytes		         0	         0
	maximum total bytes		    116936	  26223320
	maximum total K-bytes		       117	     26224
	maximum total M-bytes		         1	        27


                                     CITATION
                                     --------
                Please cite the following reference when publishing
                           results obtained with NWChem:

          E. Apra, E. J. Bylaska, W. A. de Jong, N. Govind, K. Kowalski,
       T. P. Straatsma, M. Valiev, H. J. J. van Dam, Y. Alexeev, J. Anchell,
       V. Anisimov, F. W. Aquino, R. Atta-Fynn, J. Autschbach, N. P. Bauman,
     J. C. Becca, D. E. Bernholdt, K. Bhaskaran-Nair, S. Bogatko, P. Borowski,
         J. Boschen, J. Brabec, A. Bruner, E. Cauet, Y. Chen, G. N. Chuev,
      C. J. Cramer, J. Daily, M. J. O. Deegan, T. H. Dunning Jr., M. Dupuis,
   K. G. Dyall, G. I. Fann, S. A. Fischer, A. Fonari, H. Fruchtl, L. Gagliardi,
      J. Garza, N. Gawande, S. Ghosh, K. Glaesemann, A. W. Gotz, J. Hammond,
       V. Helms, E. D. Hermes, K. Hirao, S. Hirata, M. Jacquelin, L. Jensen,
   B. G. Johnson, H. Jonsson, R. A. Kendall, M. Klemm, R. Kobayashi, V. Konkov,
      S. Krishnamoorthy, M. Krishnan, Z. Lin, R. D. Lins, R. J. Littlefield,
      A. J. Logsdail, K. Lopata, W. Ma, A. V. Marenich, J. Martin del Campo,
   D. Mejia-Rodriguez, J. E. Moore, J. M. Mullin, T. Nakajima, D. R. Nascimento,
    J. A. Nichols, P. J. Nichols, J. Nieplocha, A. Otero-de-la-Roza, B. Palmer,
    A. Panyala, T. Pirojsirikul, B. Peng, R. Peverati, J. Pittner, L. Pollack,
   R. M. Richard, P. Sadayappan, G. C. Schatz, W. A. Shelton, D. W. Silverstein,
   D. M. A. Smith, T. A. Soares, D. Song, M. Swart, H. L. Taylor, G. S. Thomas,
            V. Tipparaju, D. G. Truhlar, K. Tsemekhman, T. Van Voorhis,
      A. Vazquez-Mayagoitia, P. Verma, O. Villa, A. Vishnu, K. D. Vogiatzis,
        D. Wang, J. H. Weare, M. J. Williamson, T. L. Windus, K. Wolinski,
        A. T. Wong, Q. Wu, C. Yang, Q. Yu, M. Zacharias, Z. Zhang, Y. Zhao,
                                and R. J. Harrison
                        "NWChem: Past, present, and future
                         J. Chem. Phys. 152, 184102 (2020)
                               doi:10.1063/5.0004997

                                      AUTHORS
                                      -------
  E. Apra, E. J. Bylaska, N. Govind, K. Kowalski, M. Valiev, D. Mejia-Rodriguez,
       A. Kunitsa, N. P. Bauman, A. Panyala, W. A. de Jong, T. P. Straatsma,
   H. J. J. van Dam, D. Wang, T. L. Windus, J. Hammond, J. Autschbach, A. Woods,
    K. Bhaskaran-Nair, J. Brabec, K. Lopata, S. A. Fischer, S. Krishnamoorthy,
     M. Jacquelin, W. Ma, M. Klemm, O. Villa, Y. Chen, V. Anisimov, F. Aquino,
     S. Hirata, M. T. Hackler, E. Hermes, L. Jensen, J. E. Moore, J. C. Becca,
      V. Konjkov, T. Risthaus, M. Malagoli, A. Marenich, A. Otero-de-la-Roza,
        J. Mullin, P. Nichols, R. Peverati, J. Pittner, Y. Zhao, P.-D. Fan,
        A. Fonari, M. J. Williamson, R. J. Harrison, J. R. Rehr, M. Dupuis,
     D. Silverstein, D. M. A. Smith, J. Nieplocha, V. Tipparaju, M. Krishnan,
     B. E. Van Kuiken, A. Vazquez-Mayagoitia, M. Swart, Q. Wu, T. Van Voorhis,
     A. A. Auer, M. Nooijen, L. D. Crosby, E. Brown, G. Cisneros, G. I. Fann,
   H. Fruchtl, J. Garza, K. Hirao, R. A. Kendall, J. A. Nichols, K. Tsemekhman,
    K. Wolinski, J. Anchell, D. E. Bernholdt, P. Borowski, T. Clark, D. Clerc,
   H. Dachsel, M. J. O. Deegan, K. Dyall, D. Elwood, E. Glendening, M. Gutowski,
   A. C. Hess, J. Jaffe, B. G. Johnson, J. Ju, R. Kobayashi, R. Kutteh, Z. Lin,
   R. Littlefield, X. Long, B. Meng, T. Nakajima, S. Niu, L. Pollack, M. Rosing,
   K. Glaesemann, G. Sandrone, M. Stave, H. Taylor, G. Thomas, J. H. van Lenthe,
                               A. T. Wong, Z. Zhang.

 Total times  cpu:     4485.5s     wall:     4554.2s
