export TMOUT=5400
export TMPDIR=/tmp
export PTMPDIR=/tmp/ptmp
 argument  1 = ALA_HIS_0.nw
                                         
                                         


             Northwest Computational Chemistry Package (NWChem) 7.2.0
             --------------------------------------------------------


                    Environmental Molecular Sciences Laboratory
                       Pacific Northwest National Laboratory
                                Richland, WA 99352

                              Copyright (c) 1994-2022
                       Pacific Northwest National Laboratory
                            Battelle Memorial Institute

             NWChem is an open-source computational chemistry package
                        distributed under the terms of the
                      Educational Community License (ECL) 2.0
             A copy of the license is included with this distribution
                              in the LICENSE.TXT file

                                  ACKNOWLEDGMENT
                                  --------------

            This software and its documentation were developed at the
            EMSL at Pacific Northwest National Laboratory, a multiprogram
            national laboratory, operated for the U.S. Department of Energy
            by Battelle under Contract Number DE-AC05-76RL01830. Support
            for this work was provided by the Department of Energy Office
            of Biological and Environmental Research, Office of Basic
            Energy Sciences, and the Office of Advanced Scientific Computing.


           Job information
           ---------------

    hostname        = nova18-23
    program         = /opt/rit/el9/20230413/app/linux-rhel9-x86_64_v3/gcc-11.2.1/nwchem-7.2.0-oxtctbuhfuzyfaoziquq6bki22grib3g/bin/nwchem
    date            = Thu Jun 26 21:11:26 2025

    compiled        = Wed_May_17_23:46:39_2023
    source          = /tmp/root/spack-stage/spack-stage-nwchem-7.2.0-oxtctbuhfuzyfaoziquq6bki22grib3g/spack-src
    nwchem branch   = 7.2.0
    nwchem revision = d0d141fd
    ga revision     = 5.8.0
    use scalapack   = T
    input           = ALA_HIS_0.nw
    prefix          = ALA_HIS_0.
    data base       = ./ALA_HIS_0.db
    status          = startup
    nproc           =        8
    time left       =     -1s



           Memory information
           ------------------

    heap     =   26214398 doubles =    200.0 Mbytes
    stack    =   26214395 doubles =    200.0 Mbytes
    global   =   52428800 doubles =    400.0 Mbytes (distinct from heap & stack)
    total    =  104857593 doubles =    800.0 Mbytes
    verify   = yes
    hardfail = no 


           Directory information
           ---------------------

  0 permanent = .
  0 scratch   = .




                                NWChem Input Module
                                -------------------



 Scaling coordinates for geometry "geometry" by  1.889725989
 (inverse scale =  0.529177249)

 C1  symmetry detected

          ------
          auto-z
          ------
  no constraints, skipping    0.0000000000000000     
  no constraints, skipping    0.0000000000000000     


                             Geometry "geometry" -> ""
                             -------------------------

 Output coordinates in angstroms (scale by  1.889725989 to convert to a.u.)

  No.       Tag          Charge          X              Y              Z
 ---- ---------------- ---------- -------------- -------------- --------------
    1 H                    1.0000    -3.37060511     0.65386352     0.22537283
    2 C                    6.0000    -3.19937185     1.12832250    -0.73950688
    3 H                    1.0000    -3.83360190     2.00698026    -0.84069379
    4 H                    1.0000    -3.42103406     0.42311185    -1.54018334
    5 C                    6.0000    -1.75215157     1.54292566    -0.84266540
    6 O                    8.0000    -1.06053992     1.14652291    -1.77194801
    7 N                    7.0000    -1.28660252     2.33373057     0.12435356
    8 H                    1.0000    -1.91672682     2.60266019     0.86108773
    9 C                    6.0000     0.07564232     2.88336054     0.15410079
   10 H                    1.0000     0.25325099     3.40530936    -0.78784273
   11 C                    6.0000     0.14299476     3.91022416     1.29173550
   12 H                    1.0000     1.12835989     4.37950753     1.29856743
   13 H                    1.0000    -0.61168704     4.68290424     1.14393199
   14 H                    1.0000    -0.02079269     3.41817971     2.25189171
   15 C                    6.0000     1.19573078     1.82504499     0.28682621
   16 O                    8.0000     2.36613406     2.14435884     0.09826104
   17 N                    7.0000     0.85127528     0.57263078     0.59751426
   18 H                    1.0000    -0.13116721     0.36648937     0.72665941
   19 C                    6.0000     1.75870636    -0.58068375     0.59478847
   20 H                    1.0000     2.72087129    -0.28234362     1.01241129
   21 C                    6.0000     1.14247291    -1.66749822     1.48793550
   22 H                    1.0000     1.83299577    -2.50922002     1.55686017
   23 H                    1.0000     1.00247366    -1.26842271     2.49305089
   24 C                    6.0000    -0.18892351    -2.16233141     0.97572099
   25 N                    7.0000    -1.39999458    -1.46640935     1.05733202
   26 C                    6.0000    -2.29842752    -2.22844844     0.41633617
   27 H                    1.0000    -3.34419429    -1.97469186     0.29841478
   28 N                    7.0000    -1.71907142    -3.34024485    -0.06694352
   29 H                    1.0000    -2.18332137    -4.05905037    -0.60366096
   30 C                    6.0000    -0.38546224    -3.31254503     0.27087338
   31 H                    1.0000     0.37901540    -4.03290810     0.00561882
   32 C                    6.0000     2.04177228    -1.14207649    -0.81242896
   33 O                    8.0000     2.84539396    -2.05638855    -0.95782720
   34 N                    7.0000     1.38695865    -0.65656462    -1.86134665
   35 H                    1.0000     0.69125818     0.06683573    -1.73821344
   36 H                    1.0000     1.59114628    -1.03491542    -2.76982179

      Atomic Mass 
      ----------- 

      H                  1.007825
      C                 12.000000
      O                 15.994910
      N                 14.003070


 Effective nuclear repulsion energy (a.u.)    1561.1446545652

            Nuclear Dipole moment (a.u.) 
            ----------------------------
        X                 Y               Z
 ---------------- ---------------- ----------------
     0.0000000000     0.0000000000     0.0000000000



                                Z-matrix (autoz)
                                -------- 

 Units are Angstrom for bonds and degrees for angles

      Type          Name      I     J     K     L     M      Value
      ----------- --------  ----- ----- ----- ----- ----- ----------
    1 Stretch                  1     2                       1.08877
    2 Stretch                  2     3                       1.08836
    3 Stretch                  2     4                       1.08974
    4 Stretch                  2     5                       1.50897
    5 Stretch                  5     6                       1.22435
    6 Stretch                  5     7                       1.33313
    7 Stretch                  7     8                       1.00606
    8 Stretch                  7     9                       1.46925
    9 Stretch                  9    10                       1.09144
   10 Stretch                  9    11                       1.53401
   11 Stretch                  9    15                       1.54669
   12 Stretch                 11    12                       1.09143
   13 Stretch                 11    13                       1.09015
   14 Stretch                 11    14                       1.09125
   15 Stretch                 15    16                       1.22775
   16 Stretch                 15    17                       1.33556
   17 Stretch                 17    18                       1.01211
   18 Stretch                 17    19                       1.46751
   19 Stretch                 19    20                       1.09049
   20 Stretch                 19    21                       1.53578
   21 Stretch                 19    32                       1.54128
   22 Stretch                 21    22                       1.09090
   23 Stretch                 21    23                       1.09047
   24 Stretch                 21    24                       1.50991
   25 Stretch                 24    25                       1.39916
   26 Stretch                 24    30                       1.36324
   27 Stretch                 25    26                       1.34118
   28 Stretch                 26    27                       1.08256
   29 Stretch                 26    28                       1.34362
   30 Stretch                 28    29                       1.01009
   31 Stretch                 28    30                       1.37601
   32 Stretch                 30    31                       1.08338
   33 Stretch                 32    33                       1.22593
   34 Stretch                 32    34                       1.32843
   35 Stretch                 34    35                       1.01117
   36 Stretch                 34    36                       1.00507
   37 Bend                     1     2     3               110.03260
   38 Bend                     1     2     4               109.70255
   39 Bend                     1     2     5               109.33882
   40 Bend                     2     5     6               120.31122
   41 Bend                     2     5     7               116.63605
   42 Bend                     3     2     4               109.60922
   43 Bend                     3     2     5               109.31236
   44 Bend                     4     2     5               108.82395
   45 Bend                     5     7     8               118.10135
   46 Bend                     5     7     9               124.08184
   47 Bend                     6     5     7               123.04875
   48 Bend                     7     9    10               108.19804
   49 Bend                     7     9    11               107.82662
   50 Bend                     7     9    15               114.65869
   51 Bend                     8     7     9               117.76783
   52 Bend                     9    11    12               109.39646
   53 Bend                     9    11    13               110.09116
   54 Bend                     9    11    14               110.12652
   55 Bend                     9    15    16               119.94852
   56 Bend                     9    15    17               118.34864
   57 Bend                    10     9    11               108.22592
   58 Bend                    10     9    15               106.46529
   59 Bend                    11     9    15               111.25975
   60 Bend                    12    11    13               108.72893
   61 Bend                    12    11    14               108.89720
   62 Bend                    13    11    14               109.57123
   63 Bend                    15    17    18               118.10116
   64 Bend                    15    17    19               125.24430
   65 Bend                    16    15    17               121.70079
   66 Bend                    17    19    20               109.26039
   67 Bend                    17    19    21               107.87609
   68 Bend                    17    19    32               113.67288
   69 Bend                    18    17    19               116.12894
   70 Bend                    19    21    22               109.19469
   71 Bend                    19    21    23               109.18219
   72 Bend                    19    21    24               112.85768
   73 Bend                    19    32    33               120.02164
   74 Bend                    19    32    34               119.81900
   75 Bend                    20    19    21               108.96063
   76 Bend                    20    19    32               106.69404
   77 Bend                    21    19    32               110.29835
   78 Bend                    21    24    25               125.48150
   79 Bend                    21    24    30               125.38253
   80 Bend                    22    21    23               107.78245
   81 Bend                    22    21    24               109.06941
   82 Bend                    23    21    24               108.62739
   83 Bend                    24    25    26               105.62530
   84 Bend                    24    30    28               106.47804
   85 Bend                    24    30    31               125.86497
   86 Bend                    25    24    30               108.96732
   87 Bend                    25    26    27               124.47130
   88 Bend                    25    26    28               110.68395
   89 Bend                    26    28    29               125.57638
   90 Bend                    26    28    30               108.23669
   91 Bend                    27    26    28               124.84237
   92 Bend                    28    30    31               127.61873
   93 Bend                    29    28    30               126.17319
   94 Bend                    32    34    35               120.29499
   95 Bend                    32    34    36               118.42333
   96 Bend                    33    32    34               120.13561
   97 Bend                    35    34    36               121.27549
   98 Torsion                  1     2     5     6         123.80864
   99 Torsion                  1     2     5     7         -55.48774
  100 Torsion                  2     5     7     8           0.27456
  101 Torsion                  2     5     7     9        -177.11845
  102 Torsion                  3     2     5     6        -115.68241
  103 Torsion                  3     2     5     7          65.02121
  104 Torsion                  4     2     5     6           3.99860
  105 Torsion                  4     2     5     7        -175.29778
  106 Torsion                  5     7     9    10          54.17571
  107 Torsion                  5     7     9    11         171.01911
  108 Torsion                  5     7     9    15         -64.45835
  109 Torsion                  6     5     7     8        -179.00075
  110 Torsion                  6     5     7     9           3.60623
  111 Torsion                  7     9    11    12        -176.60020
  112 Torsion                  7     9    11    13         -57.17724
  113 Torsion                  7     9    11    14          63.74851
  114 Torsion                  7     9    15    16         167.83239
  115 Torsion                  7     9    15    17         -11.65625
  116 Torsion                  8     7     9    10        -123.22535
  117 Torsion                  8     7     9    11          -6.38195
  118 Torsion                  8     7     9    15         118.14059
  119 Torsion                  9    15    17    18           0.44620
  120 Torsion                  9    15    17    19         171.78406
  121 Torsion                 10     9    11    12         -59.77494
  122 Torsion                 10     9    11    13          59.64802
  123 Torsion                 10     9    11    14        -179.42622
  124 Torsion                 10     9    15    16          48.22753
  125 Torsion                 10     9    15    17        -131.26111
  126 Torsion                 11     9    15    16         -69.47930
  127 Torsion                 11     9    15    17         111.03206
  128 Torsion                 12    11     9    15          56.86050
  129 Torsion                 13    11     9    15         176.28346
  130 Torsion                 14    11     9    15         -62.79079
  131 Torsion                 15    17    19    20          40.60173
  132 Torsion                 15    17    19    21         158.91811
  133 Torsion                 15    17    19    32         -78.43940
  134 Torsion                 16    15    17    18        -179.03302
  135 Torsion                 16    15    17    19          -7.69516
  136 Torsion                 17    19    21    22        -176.12030
  137 Torsion                 17    19    21    23         -58.50693
  138 Torsion                 17    19    21    24          62.40103
  139 Torsion                 17    19    32    33         175.75412
  140 Torsion                 17    19    32    34          -6.01596
  141 Torsion                 18    17    19    20        -147.90792
  142 Torsion                 18    17    19    21         -29.59153
  143 Torsion                 18    17    19    32          93.05095
  144 Torsion                 19    21    24    25         -74.84103
  145 Torsion                 19    21    24    30          99.91169
  146 Torsion                 19    32    34    35          -1.18042
  147 Torsion                 19    32    34    36         179.71258
  148 Torsion                 20    19    21    22         -57.61192
  149 Torsion                 20    19    21    23          60.00145
  150 Torsion                 20    19    21    24        -179.09059
  151 Torsion                 20    19    32    33          55.25697
  152 Torsion                 20    19    32    34        -126.51310
  153 Torsion                 21    19    32    33         -62.94641
  154 Torsion                 21    19    32    34         115.28351
  155 Torsion                 21    24    25    26         176.42481
  156 Torsion                 21    24    30    28        -176.35690
  157 Torsion                 21    24    30    31           1.52922
  158 Torsion                 22    21    19    32          59.19131
  159 Torsion                 22    21    24    25         163.60942
  160 Torsion                 22    21    24    30         -21.63785
  161 Torsion                 23    21    19    32         176.80469
  162 Torsion                 23    21    24    25          46.38233
  163 Torsion                 23    21    24    30        -138.86495
  164 Torsion                 24    21    19    32         -62.28735
  165 Torsion                 24    25    26    27         179.88241
  166 Torsion                 24    25    26    28          -0.65552
  167 Torsion                 24    30    28    26           0.46849
  168 Torsion                 24    30    28    29         179.17587
  169 Torsion                 25    24    30    28          -0.87345
  170 Torsion                 25    24    30    31         177.01267
  171 Torsion                 25    26    28    29        -178.58707
  172 Torsion                 25    26    28    30           0.13001
  173 Torsion                 26    25    24    30           0.94693
  174 Torsion                 26    28    30    31        -177.36875
  175 Torsion                 27    26    28    29           0.87258
  176 Torsion                 27    26    28    30         179.58966
  177 Torsion                 29    28    30    31           1.33863
  178 Torsion                 33    32    34    35         177.04746
  179 Torsion                 33    32    34    36          -2.05954


            XYZ format geometry
            -------------------
    36
 geometry
 H                    -3.37060511     0.65386352     0.22537283
 C                    -3.19937185     1.12832250    -0.73950688
 H                    -3.83360190     2.00698026    -0.84069379
 H                    -3.42103406     0.42311185    -1.54018334
 C                    -1.75215157     1.54292566    -0.84266540
 O                    -1.06053992     1.14652291    -1.77194801
 N                    -1.28660252     2.33373057     0.12435356
 H                    -1.91672682     2.60266019     0.86108773
 C                     0.07564232     2.88336054     0.15410079
 H                     0.25325099     3.40530936    -0.78784273
 C                     0.14299476     3.91022416     1.29173550
 H                     1.12835989     4.37950753     1.29856743
 H                    -0.61168704     4.68290424     1.14393199
 H                    -0.02079269     3.41817971     2.25189171
 C                     1.19573078     1.82504499     0.28682621
 O                     2.36613406     2.14435884     0.09826104
 N                     0.85127528     0.57263078     0.59751426
 H                    -0.13116721     0.36648937     0.72665941
 C                     1.75870636    -0.58068375     0.59478847
 H                     2.72087129    -0.28234362     1.01241129
 C                     1.14247291    -1.66749822     1.48793550
 H                     1.83299577    -2.50922002     1.55686017
 H                     1.00247366    -1.26842271     2.49305089
 C                    -0.18892351    -2.16233141     0.97572099
 N                    -1.39999458    -1.46640935     1.05733202
 C                    -2.29842752    -2.22844844     0.41633617
 H                    -3.34419429    -1.97469186     0.29841478
 N                    -1.71907142    -3.34024485    -0.06694352
 H                    -2.18332137    -4.05905037    -0.60366096
 C                    -0.38546224    -3.31254503     0.27087338
 H                     0.37901540    -4.03290810     0.00561882
 C                     2.04177228    -1.14207649    -0.81242896
 O                     2.84539396    -2.05638855    -0.95782720
 N                     1.38695865    -0.65656462    -1.86134665
 H                     0.69125818     0.06683573    -1.73821344
 H                     1.59114628    -1.03491542    -2.76982179

 ==============================================================================
                                internuclear distances
 ------------------------------------------------------------------------------
       center one      |      center two      | atomic units |  angstroms
 ------------------------------------------------------------------------------
    2 C                |   1 H                |     2.05748  |     1.08877
    3 H                |   2 C                |     2.05670  |     1.08836
    4 H                |   2 C                |     2.05931  |     1.08974
    5 C                |   2 C                |     2.85154  |     1.50897
    6 O                |   5 C                |     2.31368  |     1.22435
    7 N                |   5 C                |     2.51925  |     1.33313
    8 H                |   7 N                |     1.90118  |     1.00606
    9 C                |   7 N                |     2.77648  |     1.46925
   10 H                |   9 C                |     2.06252  |     1.09144
   11 C                |   9 C                |     2.89887  |     1.53401
   12 H                |  11 C                |     2.06250  |     1.09143
   13 H                |  11 C                |     2.06008  |     1.09015
   14 H                |  11 C                |     2.06217  |     1.09125
   15 C                |   9 C                |     2.92282  |     1.54669
   16 O                |  15 C                |     2.32010  |     1.22775
   17 N                |  15 C                |     2.52384  |     1.33556
   18 H                |  17 N                |     1.91261  |     1.01211
   19 C                |  17 N                |     2.77318  |     1.46751
   20 H                |  19 C                |     2.06073  |     1.09049
   21 C                |  19 C                |     2.90220  |     1.53578
   22 H                |  21 C                |     2.06151  |     1.09090
   23 H                |  21 C                |     2.06068  |     1.09047
   24 C                |  21 C                |     2.85332  |     1.50991
   25 N                |  24 C                |     2.64404  |     1.39916
   26 C                |  25 N                |     2.53446  |     1.34118
   27 H                |  26 C                |     2.04573  |     1.08256
   28 N                |  26 C                |     2.53907  |     1.34362
   29 H                |  28 N                |     1.90879  |     1.01009
   30 C                |  24 C                |     2.57615  |     1.36324
   30 C                |  28 N                |     2.60028  |     1.37601
   31 H                |  30 C                |     2.04729  |     1.08338
   32 C                |  19 C                |     2.91260  |     1.54128
   33 O                |  32 C                |     2.31668  |     1.22593
   34 N                |  32 C                |     2.51037  |     1.32843
   35 H                |  34 N                |     1.91084  |     1.01117
   36 H                |  34 N                |     1.89931  |     1.00507
 ------------------------------------------------------------------------------
                         number of included internuclear distances:         36
 ==============================================================================



 ==============================================================================
                                 internuclear angles
 ------------------------------------------------------------------------------
        center 1       |       center 2       |       center 3       |  degrees
 ------------------------------------------------------------------------------
    1 H                |   2 C                |   3 H                |   110.03
    1 H                |   2 C                |   4 H                |   109.70
    1 H                |   2 C                |   5 C                |   109.34
    3 H                |   2 C                |   4 H                |   109.61
    3 H                |   2 C                |   5 C                |   109.31
    4 H                |   2 C                |   5 C                |   108.82
    2 C                |   5 C                |   6 O                |   120.31
    2 C                |   5 C                |   7 N                |   116.64
    6 O                |   5 C                |   7 N                |   123.05
    5 C                |   7 N                |   8 H                |   118.10
    5 C                |   7 N                |   9 C                |   124.08
    8 H                |   7 N                |   9 C                |   117.77
    7 N                |   9 C                |  10 H                |   108.20
    7 N                |   9 C                |  11 C                |   107.83
    7 N                |   9 C                |  15 C                |   114.66
   10 H                |   9 C                |  11 C                |   108.23
   10 H                |   9 C                |  15 C                |   106.47
   11 C                |   9 C                |  15 C                |   111.26
    9 C                |  11 C                |  12 H                |   109.40
    9 C                |  11 C                |  13 H                |   110.09
    9 C                |  11 C                |  14 H                |   110.13
   12 H                |  11 C                |  13 H                |   108.73
   12 H                |  11 C                |  14 H                |   108.90
   13 H                |  11 C                |  14 H                |   109.57
    9 C                |  15 C                |  16 O                |   119.95
    9 C                |  15 C                |  17 N                |   118.35
   16 O                |  15 C                |  17 N                |   121.70
   15 C                |  17 N                |  18 H                |   118.10
   15 C                |  17 N                |  19 C                |   125.24
   18 H                |  17 N                |  19 C                |   116.13
   17 N                |  19 C                |  20 H                |   109.26
   17 N                |  19 C                |  21 C                |   107.88
   17 N                |  19 C                |  32 C                |   113.67
   20 H                |  19 C                |  21 C                |   108.96
   20 H                |  19 C                |  32 C                |   106.69
   21 C                |  19 C                |  32 C                |   110.30
   19 C                |  21 C                |  22 H                |   109.19
   19 C                |  21 C                |  23 H                |   109.18
   19 C                |  21 C                |  24 C                |   112.86
   22 H                |  21 C                |  23 H                |   107.78
   22 H                |  21 C                |  24 C                |   109.07
   23 H                |  21 C                |  24 C                |   108.63
   21 C                |  24 C                |  25 N                |   125.48
   21 C                |  24 C                |  30 C                |   125.38
   25 N                |  24 C                |  30 C                |   108.97
   24 C                |  25 N                |  26 C                |   105.63
   25 N                |  26 C                |  27 H                |   124.47
   25 N                |  26 C                |  28 N                |   110.68
   27 H                |  26 C                |  28 N                |   124.84
   26 C                |  28 N                |  29 H                |   125.58
   26 C                |  28 N                |  30 C                |   108.24
   29 H                |  28 N                |  30 C                |   126.17
   24 C                |  30 C                |  28 N                |   106.48
   24 C                |  30 C                |  31 H                |   125.86
   28 N                |  30 C                |  31 H                |   127.62
   19 C                |  32 C                |  33 O                |   120.02
   19 C                |  32 C                |  34 N                |   119.82
   33 O                |  32 C                |  34 N                |   120.14
   32 C                |  34 N                |  35 H                |   120.29
   32 C                |  34 N                |  36 H                |   118.42
   35 H                |  34 N                |  36 H                |   121.28
 ------------------------------------------------------------------------------
                            number of included internuclear angles:         61
 ==============================================================================



  library name resolved from: environment
  library file name is: </opt/rit/el9/20230413/app/linux-rhel9-x86_64_v3/gcc-11.2.1/nwchem-7.2.0-oxtctbuhfuzyfaoziquq6bki22grib3g/share/nwchem/libraries/>
  


 Summary of "ao basis" -> "" (cartesian)
 ------------------------------------------------------------------------------
       Tag                 Description            Shells   Functions and Types
 ---------------- ------------------------------  ------  ---------------------
 *                        aug-cc-pvdz                 on all atoms 


                      Basis "ao basis" -> "ao basis" (cartesian)
                      -----
  H (Hydrogen)
  ------------
            Exponent  Coefficients 
       -------------- ---------------------------------------------------------
  1 S  1.30100000E+01  0.019685
  1 S  1.96200000E+00  0.137977
  1 S  4.44600000E-01  0.478148

  2 S  1.22000000E-01  1.000000

  3 S  2.97400000E-02  1.000000

  4 P  7.27000000E-01  1.000000

  5 P  1.41000000E-01  1.000000

  C (Carbon)
  ----------
            Exponent  Coefficients 
       -------------- ---------------------------------------------------------
  1 S  6.66500000E+03  0.000692
  1 S  1.00000000E+03  0.005329
  1 S  2.28000000E+02  0.027077
  1 S  6.47100000E+01  0.101718
  1 S  2.10600000E+01  0.274740
  1 S  7.49500000E+00  0.448564
  1 S  2.79700000E+00  0.285074
  1 S  5.21500000E-01  0.015204

  2 S  6.66500000E+03 -0.000146
  2 S  1.00000000E+03 -0.001154
  2 S  2.28000000E+02 -0.005725
  2 S  6.47100000E+01 -0.023312
  2 S  2.10600000E+01 -0.063955
  2 S  7.49500000E+00 -0.149981
  2 S  2.79700000E+00 -0.127262
  2 S  5.21500000E-01  0.544529

  3 S  1.59600000E-01  1.000000

  4 S  4.69000000E-02  1.000000

  5 P  9.43900000E+00  0.038109
  5 P  2.00200000E+00  0.209480
  5 P  5.45600000E-01  0.508557

  6 P  1.51700000E-01  1.000000

  7 P  4.04100000E-02  1.000000

  8 D  5.50000000E-01  1.000000

  9 D  1.51000000E-01  1.000000

  O (Oxygen)
  ----------
            Exponent  Coefficients 
       -------------- ---------------------------------------------------------
  1 S  1.17200000E+04  0.000710
  1 S  1.75900000E+03  0.005470
  1 S  4.00800000E+02  0.027837
  1 S  1.13700000E+02  0.104800
  1 S  3.70300000E+01  0.283062
  1 S  1.32700000E+01  0.448719
  1 S  5.02500000E+00  0.270952
  1 S  1.01300000E+00  0.015458

  2 S  1.17200000E+04 -0.000160
  2 S  1.75900000E+03 -0.001263
  2 S  4.00800000E+02 -0.006267
  2 S  1.13700000E+02 -0.025716
  2 S  3.70300000E+01 -0.070924
  2 S  1.32700000E+01 -0.165411
  2 S  5.02500000E+00 -0.116955
  2 S  1.01300000E+00  0.557368

  3 S  3.02300000E-01  1.000000

  4 S  7.89600000E-02  1.000000

  5 P  1.77000000E+01  0.043018
  5 P  3.85400000E+00  0.228913
  5 P  1.04600000E+00  0.508728

  6 P  2.75300000E-01  1.000000

  7 P  6.85600000E-02  1.000000

  8 D  1.18500000E+00  1.000000

  9 D  3.32000000E-01  1.000000

  N (Nitrogen)
  ------------
            Exponent  Coefficients 
       -------------- ---------------------------------------------------------
  1 S  9.04600000E+03  0.000700
  1 S  1.35700000E+03  0.005389
  1 S  3.09300000E+02  0.027406
  1 S  8.77300000E+01  0.103207
  1 S  2.85600000E+01  0.278723
  1 S  1.02100000E+01  0.448540
  1 S  3.83800000E+00  0.278238
  1 S  7.46600000E-01  0.015440

  2 S  9.04600000E+03 -0.000153
  2 S  1.35700000E+03 -0.001208
  2 S  3.09300000E+02 -0.005992
  2 S  8.77300000E+01 -0.024544
  2 S  2.85600000E+01 -0.067459
  2 S  1.02100000E+01 -0.158078
  2 S  3.83800000E+00 -0.121831
  2 S  7.46600000E-01  0.549003

  3 S  2.24800000E-01  1.000000

  4 S  6.12400000E-02  1.000000

  5 P  1.35500000E+01  0.039919
  5 P  2.91700000E+00  0.217169
  5 P  7.97300000E-01  0.510319

  6 P  2.18500000E-01  1.000000

  7 P  5.61100000E-02  1.000000

  8 D  8.17000000E-01  1.000000

  9 D  2.30000000E-01  1.000000



 Summary of "ao basis" -> "ao basis" (cartesian)
 ------------------------------------------------------------------------------
       Tag                 Description            Shells   Functions and Types
 ---------------- ------------------------------  ------  ---------------------
 H                        aug-cc-pvdz                5        9   3s2p
 C                        aug-cc-pvdz                9       25   4s3p2d
 O                        aug-cc-pvdz                9       25   4s3p2d
 N                        aug-cc-pvdz                9       25   4s3p2d


                                 NWChem SCF Module
                                 -----------------



  ao basis        = "ao basis"
  functions       =   628
  atoms           =    36
  closed shells   =    71
  open shells     =     0
  charge          =   0.00
  wavefunction    = RHF 
  input vectors   = atomic
  output vectors  = ./ALA_HIS_0.movecs
  use symmetry    = F
  symmetry adapt  = F


 Summary of "ao basis" -> "ao basis" (cartesian)
 ------------------------------------------------------------------------------
       Tag                 Description            Shells   Functions and Types
 ---------------- ------------------------------  ------  ---------------------
 H                        aug-cc-pvdz                5        9   3s2p
 C                        aug-cc-pvdz                9       25   4s3p2d
 O                        aug-cc-pvdz                9       25   4s3p2d
 N                        aug-cc-pvdz                9       25   4s3p2d



 Forming initial guess at       1.1s


 !! The overlap matrix has   8 vectors deemed linearly dependent with
    eigenvalues:
 2.99D-06 3.83D-06 4.14D-06 5.05D-06 6.46D-06 7.40D-06 8.33D-06 9.72D-06


      Superposition of Atomic Density Guess
      -------------------------------------

 Sum of atomic energies:        -918.63993171

      Non-variational initial energy
      ------------------------------

 Total energy =    -931.306491
 1-e energy   =   -4351.026095
 2-e energy   =    1858.574949
 HOMO         =      -0.244811
 LUMO         =       0.014924


 Starting SCF solution at     366.6s



 ----------------------------------------------
         Quadratically convergent ROHF

 Convergence threshold     :          1.000E-04
 Maximum no. of iterations :           30
 Final Fock-matrix accuracy:          1.000E-10
 ----------------------------------------------


              iter       energy          gnorm     gmax       time
             ----- ------------------- --------- --------- --------
                 1     -923.0568620663  2.53D+00  1.38D-01    610.5
                 2     -923.4078103709  8.93D-01  4.55D-02   1217.0
                 3     -923.4764979474  6.94D-02  4.43D-03   2051.5
                 4     -923.4771967298  4.73D-03  3.64D-04   3332.9
                 5     -923.4772008318  1.29D-05  1.61D-06   5726.7


       Final RHF  results 
       ------------------ 

         Total SCF energy =   -923.477200831790
      One-electron energy =  -4364.376765519135
      Two-electron energy =   1879.754910122118
 Nuclear repulsion energy =   1561.144654565228

        Time for solution =   5409.1s


             Final eigenvalues
             -----------------

              1      
    1  -20.5423
    2  -20.5197
    3  -20.5016
    4  -15.6485
    5  -15.6151
    6  -15.5879
    7  -15.5730
    8  -15.5647
    9  -11.3718
   10  -11.3539
   11  -11.3365
   12  -11.3247
   13  -11.3039
   14  -11.2872
   15  -11.2722
   16  -11.2665
   17  -11.2553
   18  -11.2499
   19  -11.2490
   20   -1.4058
   21   -1.3795
   22   -1.3633
   23   -1.3584
   24   -1.2650
   25   -1.2380
   26   -1.1894
   27   -1.1784
   28   -1.0790
   29   -1.0637
   30   -1.0082
   31   -1.0052
   32   -0.9166
   33   -0.8875
   34   -0.8458
   35   -0.8250
   36   -0.7986
   37   -0.7906
   38   -0.7775
   39   -0.7516
   40   -0.7327
   41   -0.7153
   42   -0.6924
   43   -0.6854
   44   -0.6587
   45   -0.6361
   46   -0.6301
   47   -0.6265
   48   -0.6147
   49   -0.6134
   50   -0.6017
   51   -0.5923
   52   -0.5893
   53   -0.5842
   54   -0.5805
   55   -0.5646
   56   -0.5522
   57   -0.5480
   58   -0.5426
   59   -0.5297
   60   -0.5233
   61   -0.5120
   62   -0.4984
   63   -0.4512
   64   -0.4430
   65   -0.4410
   66   -0.4256
   67   -0.4092
   68   -0.3989
   69   -0.3856
   70   -0.3750
   71   -0.3289
   72    0.0192
   73    0.0261
   74    0.0380
   75    0.0395
   76    0.0489
   77    0.0509
   78    0.0547
   79    0.0600
   80    0.0652
   81    0.0686

                       ROHF Final Molecular Orbital Analysis
                       -------------------------------------

 Vector   20  Occ=2.000000D+00  E=-1.405812D+00
              MO Center= -1.2D+00,  1.4D+00, -1.2D+00, r^2= 1.2D+00
   Bfn.  Coefficient  Atom+Function         Bfn.  Coefficient  Atom+Function  
  ----- ------------  ---------------      ----- ------------  ---------------
    80      0.347961   6 O  s                79      0.343118   6 O  s         
    54      0.242613   5 C  s                12      0.159584   2 C  s         
   225      0.157695  15 C  s         

 Vector   21  Occ=2.000000D+00  E=-1.379507D+00
              MO Center=  1.8D+00,  1.7D+00,  1.0D-01, r^2= 2.0D+00
   Bfn.  Coefficient  Atom+Function         Bfn.  Coefficient  Atom+Function  
  ----- ------------  ---------------      ----- ------------  ---------------
   250      0.355222  16 O  s               249      0.332615  16 O  s         
   224      0.237668  15 C  s         

 Vector   22  Occ=2.000000D+00  E=-1.363330D+00
              MO Center=  2.3D+00, -1.5D+00, -8.9D-01, r^2= 2.1D+00
   Bfn.  Coefficient  Atom+Function         Bfn.  Coefficient  Atom+Function  
  ----- ------------  ---------------      ----- ------------  ---------------
   563      0.372940  33 O  s               562      0.339587  33 O  s         
   537      0.236941  32 C  s         

 Vector   23  Occ=2.000000D+00  E=-1.358449D+00
              MO Center= -1.4D+00, -2.7D+00,  2.8D-01, r^2= 1.8D+00
   Bfn.  Coefficient  Atom+Function         Bfn.  Coefficient  Atom+Function  
  ----- ------------  ---------------      ----- ------------  ---------------
   470      0.341167  28 N  s               469      0.291921  28 N  s         
   411      0.197104  25 N  s               435      0.190596  26 C  s         
   410      0.163891  25 N  s         

 Vector   24  Occ=2.000000D+00  E=-1.264964D+00
              MO Center= -9.3D-01,  2.1D+00, -1.3D-01, r^2= 2.3D+00
   Bfn.  Coefficient  Atom+Function         Bfn.  Coefficient  Atom+Function  
  ----- ------------  ---------------      ----- ------------  ---------------
   105      0.389855   7 N  s               104      0.329782   7 N  s         
    80     -0.217588   6 O  s               139     -0.197816   9 C  s         
    79     -0.178873   6 O  s               225      0.175923  15 C  s         
    59      0.159968   5 C  pz              128      0.152137   8 H  s         

 Vector   25  Occ=2.000000D+00  E=-1.237952D+00
              MO Center=  9.6D-01,  6.0D-01,  3.3D-01, r^2= 3.0D+00
   Bfn.  Coefficient  Atom+Function         Bfn.  Coefficient  Atom+Function  
  ----- ------------  ---------------      ----- ------------  ---------------
   275      0.361576  17 N  s               274      0.315056  17 N  s         
   309     -0.199540  19 C  s               250     -0.195123  16 O  s         
   249     -0.157166  16 O  s         

 Vector   26  Occ=2.000000D+00  E=-1.189408D+00
              MO Center=  1.5D+00, -7.8D-01, -1.4D+00, r^2= 2.0D+00
   Bfn.  Coefficient  Atom+Function         Bfn.  Coefficient  Atom+Function  
  ----- ------------  ---------------      ----- ------------  ---------------
   588      0.388278  34 N  s               587      0.364215  34 N  s         
   309     -0.210933  19 C  s               563     -0.199060  33 O  s         
   562     -0.165140  33 O  s               611      0.158997  35 H  s         
   620      0.158376  36 H  s         

 Vector   27  Occ=2.000000D+00  E=-1.178443D+00
              MO Center= -1.3D+00, -2.2D+00,  5.3D-01, r^2= 2.6D+00
   Bfn.  Coefficient  Atom+Function         Bfn.  Coefficient  Atom+Function  
  ----- ------------  ---------------      ----- ------------  ---------------
   411      0.373082  25 N  s               470     -0.373609  28 N  s         
   410      0.291919  25 N  s               469     -0.255410  28 N  s         
   385      0.151436  24 C  s         

 Vector   28  Occ=2.000000D+00  E=-1.079011D+00
              MO Center=  1.1D-01,  3.5D-01,  5.6D-01, r^2= 8.1D+00
   Bfn.  Coefficient  Atom+Function         Bfn.  Coefficient  Atom+Function  
  ----- ------------  ---------------      ----- ------------  ---------------
   342      0.183018  21 C  s               138     -0.163274   9 C  s         

 Vector   29  Occ=2.000000D+00  E=-1.063738D+00
              MO Center= -4.0D-01,  6.0D-01,  5.1D-01, r^2= 9.4D+00
   Bfn.  Coefficient  Atom+Function         Bfn.  Coefficient  Atom+Function  
  ----- ------------  ---------------      ----- ------------  ---------------
    12      0.228458   2 C  s               309     -0.180567  19 C  s         
   138     -0.174088   9 C  s               172     -0.164544  11 C  s         
   342     -0.158738  21 C  s         

 Vector   30  Occ=2.000000D+00  E=-1.008212D+00
              MO Center= -5.0D-01, -1.3D+00,  2.6D-01, r^2= 7.4D+00
   Bfn.  Coefficient  Atom+Function         Bfn.  Coefficient  Atom+Function  
  ----- ------------  ---------------      ----- ------------  ---------------
   503      0.205359  30 C  s               308     -0.180526  19 C  s         
   435     -0.157046  26 C  s         

 Vector   31  Occ=2.000000D+00  E=-1.005154D+00
              MO Center= -1.7D+00,  1.5D+00, -8.3D-02, r^2= 7.6D+00
   Bfn.  Coefficient  Atom+Function         Bfn.  Coefficient  Atom+Function  
  ----- ------------  ---------------      ----- ------------  ---------------
    11      0.280926   2 C  s               172      0.184074  11 C  s         
    55      0.168199   5 C  s         

 Vector   32  Occ=2.000000D+00  E=-9.165536D-01
              MO Center=  4.7D-01,  1.5D-02,  7.2D-01, r^2= 9.1D+00
   Bfn.  Coefficient  Atom+Function         Bfn.  Coefficient  Atom+Function  
  ----- ------------  ---------------      ----- ------------  ---------------
   139      0.231416   9 C  s               342      0.206805  21 C  s         
   316      0.192933  19 C  pz              145     -0.175206   9 C  py        
   172     -0.156170  11 C  s         

 Vector   33  Occ=2.000000D+00  E=-8.875383D-01
              MO Center=  3.7D-01,  1.4D+00,  4.5D-01, r^2= 8.9D+00
   Bfn.  Coefficient  Atom+Function         Bfn.  Coefficient  Atom+Function  
  ----- ------------  ---------------      ----- ------------  ---------------
   309      0.212110  19 C  s               139      0.197135   9 C  s         
   172     -0.192814  11 C  s               138      0.177723   9 C  s         
   173     -0.159850  11 C  s               145     -0.156187   9 C  py        

 Vector   34  Occ=2.000000D+00  E=-8.458022D-01
              MO Center= -1.5D+00, -2.5D+00,  3.2D-01, r^2= 3.8D+00
   Bfn.  Coefficient  Atom+Function         Bfn.  Coefficient  Atom+Function  
  ----- ------------  ---------------      ----- ------------  ---------------
   411      0.266220  25 N  s               493      0.261956  29 H  s         
   473     -0.247319  28 N  py              470      0.235554  28 N  s         
   435     -0.213091  26 C  s               404      0.200316  24 C  dxy       
   386     -0.197292  24 C  s               509      0.195628  30 C  px        
   504     -0.175227  30 C  s               460     -0.164410  27 H  s         

 Vector   35  Occ=2.000000D+00  E=-8.250034D-01
              MO Center= -1.0D+00,  1.9D+00, -1.3D-01, r^2= 4.3D+00
   Bfn.  Coefficient  Atom+Function         Bfn.  Coefficient  Atom+Function  
  ----- ------------  ---------------      ----- ------------  ---------------
   109      0.270007   7 N  pz              128      0.231980   8 H  s         
    54     -0.212110   5 C  s               139     -0.211339   9 C  s         
   108      0.202791   7 N  py              105      0.200870   7 N  s         
    80      0.166827   6 O  s                17     -0.158391   2 C  px        
    72      0.156627   5 C  dxx       

 Vector   36  Occ=2.000000D+00  E=-7.986123D-01
              MO Center=  5.9D-01,  4.0D-01, -5.5D-02, r^2= 6.4D+00
   Bfn.  Coefficient  Atom+Function         Bfn.  Coefficient  Atom+Function  
  ----- ------------  ---------------      ----- ------------  ---------------
   309      0.324945  19 C  s               278      0.232632  17 N  py        
   231     -0.197257  15 C  py              243      0.191427  15 C  dxy       
   545     -0.179620  32 C  pz              144      0.175827   9 C  px        
   298     -0.156909  18 H  s               299     -0.154813  18 H  s         
   128      0.151400   8 H  s               592      0.151626  34 N  pz        

 Vector   37  Occ=2.000000D+00  E=-7.906154D-01
              MO Center=  1.4D-01, -1.3D+00,  2.1D-01, r^2= 6.7D+00
   Bfn.  Coefficient  Atom+Function         Bfn.  Coefficient  Atom+Function  
  ----- ------------  ---------------      ----- ------------  ---------------
   225      0.224504  15 C  s               439      0.168652  26 C  py        
   316      0.156211  19 C  pz              472      0.150366  28 N  px        

 Vector   38  Occ=2.000000D+00  E=-7.775251D-01
              MO Center= -6.3D-01, -2.0D+00,  1.1D-01, r^2= 6.4D+00
   Bfn.  Coefficient  Atom+Function         Bfn.  Coefficient  Atom+Function  
  ----- ------------  ---------------      ----- ------------  ---------------
   527      0.191805  31 H  s               459      0.187472  27 H  s         
   473     -0.173035  28 N  py              439      0.170287  26 C  py        
   438     -0.159941  26 C  px        

 Vector   39  Occ=2.000000D+00  E=-7.516167D-01
              MO Center= -7.2D-02, -1.5D+00,  3.0D-02, r^2= 7.4D+00
   Bfn.  Coefficient  Atom+Function         Bfn.  Coefficient  Atom+Function  
  ----- ------------  ---------------      ----- ------------  ---------------
   472      0.201908  28 N  px              539     -0.171747  32 C  s         
   506     -0.170362  30 C  px              493     -0.161472  29 H  s         
   225     -0.154722  15 C  s               438      0.154504  26 C  px        

 Vector   40  Occ=2.000000D+00  E=-7.327092D-01
              MO Center=  7.1D-01,  4.7D-01, -6.2D-01, r^2= 5.5D+00
   Bfn.  Coefficient  Atom+Function         Bfn.  Coefficient  Atom+Function  
  ----- ------------  ---------------      ----- ------------  ---------------
   225      0.295022  15 C  s               144     -0.235788   9 C  px        
   611     -0.228090  35 H  s               538      0.218293  32 C  s         
   590      0.192780  34 N  px              542     -0.184503  32 C  pz        
   591     -0.184738  34 N  py              277      0.175719  17 N  px        
   316      0.167478  19 C  pz        

 Vector   41  Occ=2.000000D+00  E=-7.152554D-01
              MO Center= -3.3D-01,  1.1D+00, -2.6D-01, r^2= 7.9D+00
   Bfn.  Coefficient  Atom+Function         Bfn.  Coefficient  Atom+Function  
  ----- ------------  ---------------      ----- ------------  ---------------
   144      0.343423   9 C  px              225     -0.256079  15 C  s         
   139      0.202906   9 C  s               107     -0.172860   7 N  px        
   128      0.170754   8 H  s               228      0.169377  15 C  py        
   141      0.168171   9 C  px               55     -0.166674   5 C  s         
    17      0.153572   2 C  px        

 Vector   42  Occ=2.000000D+00  E=-6.923943D-01
              MO Center=  3.7D-01,  1.0D+00, -2.5D-01, r^2= 7.9D+00
   Bfn.  Coefficient  Atom+Function         Bfn.  Coefficient  Atom+Function  
  ----- ------------  ---------------      ----- ------------  ---------------
   107      0.177332   7 N  px              592     -0.174159  34 N  pz        
   620      0.173395  36 H  s               162     -0.171037  10 H  s         
   142     -0.156906   9 C  py        

 Vector   43  Occ=2.000000D+00  E=-6.853639D-01
              MO Center= -9.0D-01,  1.0D+00, -9.7D-01, r^2= 5.9D+00
   Bfn.  Coefficient  Atom+Function         Bfn.  Coefficient  Atom+Function  
  ----- ------------  ---------------      ----- ------------  ---------------
    82      0.261235   6 O  px               80      0.241177   6 O  s         
    17     -0.202948   2 C  px               59      0.177249   5 C  pz        
    14     -0.176234   2 C  px               85      0.163203   6 O  px        
    84     -0.156476   6 O  pz               58      0.153555   5 C  py        

 Vector   44  Occ=2.000000D+00  E=-6.587256D-01
              MO Center=  6.1D-01,  5.4D-01, -1.7D-01, r^2= 9.0D+00
   Bfn.  Coefficient  Atom+Function         Bfn.  Coefficient  Atom+Function  
  ----- ------------  ---------------      ----- ------------  ---------------
   592      0.169307  34 N  pz              620     -0.150267  36 H  s         

 Vector   45  Occ=2.000000D+00  E=-6.360994D-01
              MO Center=  8.5D-01,  9.5D-03,  1.8D-01, r^2= 8.4D+00
   Bfn.  Coefficient  Atom+Function         Bfn.  Coefficient  Atom+Function  
  ----- ------------  ---------------      ----- ------------  ---------------
   252      0.242855  16 O  px              311      0.177633  19 C  px        
   250      0.172030  16 O  s               332      0.169188  20 H  s         
   539      0.150022  32 C  s         

 Vector   46  Occ=2.000000D+00  E=-6.301484D-01
              MO Center= -1.5D+00, -1.6D-01, -1.3D-01, r^2= 1.0D+01
   Bfn.  Coefficient  Atom+Function         Bfn.  Coefficient  Atom+Function  
  ----- ------------  ---------------      ----- ------------  ---------------
   139      0.192135   9 C  s                35     -0.182233   3 H  s         
   472      0.179391  28 N  px              438     -0.174825  26 C  px        
    15     -0.172887   2 C  py              459      0.163484  27 H  s         
   506     -0.164117  30 C  px        

 Vector   47  Occ=2.000000D+00  E=-6.265480D-01
              MO Center= -1.4D+00, -8.7D-01,  7.8D-02, r^2= 8.3D+00
   Bfn.  Coefficient  Atom+Function         Bfn.  Coefficient  Atom+Function  
  ----- ------------  ---------------      ----- ------------  ---------------
   438      0.222643  26 C  px              139      0.200645   9 C  s         
   459     -0.189693  27 H  s         

 Vector   48  Occ=2.000000D+00  E=-6.146597D-01
              MO Center= -6.9D-01, -2.1D+00,  2.6D-01, r^2= 5.8D+00
   Bfn.  Coefficient  Atom+Function         Bfn.  Coefficient  Atom+Function  
  ----- ------------  ---------------      ----- ------------  ---------------
   473      0.226425  28 N  py              440     -0.205576  26 C  pz        
   508     -0.187908  30 C  pz              527      0.187196  31 H  s         
   528      0.173692  31 H  s               474     -0.167049  28 N  pz        
   389      0.165833  24 C  py              477     -0.155460  28 N  pz        

 Vector   49  Occ=2.000000D+00  E=-6.133819D-01
              MO Center= -4.9D-01, -2.1D+00,  1.7D-01, r^2= 7.9D+00
   Bfn.  Coefficient  Atom+Function         Bfn.  Coefficient  Atom+Function  
  ----- ------------  ---------------      ----- ------------  ---------------
   527      0.266197  31 H  s               507     -0.241764  30 C  py        
   528      0.219901  31 H  s               439     -0.197283  26 C  py        
   474      0.169103  28 N  pz              506      0.168560  30 C  px        
   472     -0.167679  28 N  px              509      0.163838  30 C  px        
   412      0.152913  25 N  s               522      0.150997  30 C  dxy       

 Vector   50  Occ=2.000000D+00  E=-6.016863D-01
              MO Center= -8.9D-02,  7.7D-01,  4.1D-02, r^2= 9.3D+00
   Bfn.  Coefficient  Atom+Function         Bfn.  Coefficient  Atom+Function  
  ----- ------------  ---------------      ----- ------------  ---------------
   299      0.197358  18 H  s                84      0.174966   6 O  pz        
   176      0.166939  11 C  py               57      0.162450   5 C  px        
   276     -0.154429  17 N  s         

 Vector   51  Occ=2.000000D+00  E=-5.923415D-01
              MO Center=  5.7D-01,  5.9D-01, -2.6D-01, r^2= 9.7D+00
   Bfn.  Coefficient  Atom+Function         Bfn.  Coefficient  Atom+Function  
  ----- ------------  ---------------      ----- ------------  ---------------
   252      0.224115  16 O  px               45     -0.189150   4 H  s         
   227     -0.183177  15 C  px              566     -0.166420  33 O  py        
   144      0.159270   9 C  px               84      0.154741   6 O  pz        

 Vector   52  Occ=2.000000D+00  E=-5.892928D-01
              MO Center=  6.3D-02,  1.1D+00, -3.6D-01, r^2= 9.5D+00
   Bfn.  Coefficient  Atom+Function         Bfn.  Coefficient  Atom+Function  
  ----- ------------  ---------------      ----- ------------  ---------------
    84     -0.187560   6 O  pz               45      0.185088   4 H  s         
    16     -0.154173   2 C  pz               57     -0.152591   5 C  px        

 Vector   53  Occ=2.000000D+00  E=-5.842154D-01
              MO Center= -8.7D-01,  1.2D+00, -2.0D-02, r^2= 1.2D+01
   Bfn.  Coefficient  Atom+Function         Bfn.  Coefficient  Atom+Function  
  ----- ------------  ---------------      ----- ------------  ---------------
    44     -0.253457   4 H  s                45     -0.240170   4 H  s         
    16      0.236201   2 C  pz              175     -0.228750  11 C  px        
   196     -0.191045  12 H  s                13      0.183091   2 C  s         
   197     -0.155522  12 H  s                60     -0.152984   5 C  px        

 Vector   54  Occ=2.000000D+00  E=-5.804908D-01
              MO Center=  3.6D-01,  1.1D-01,  1.3D-01, r^2= 1.0D+01
   Bfn.  Coefficient  Atom+Function         Bfn.  Coefficient  Atom+Function  
  ----- ------------  ---------------      ----- ------------  ---------------
   566      0.162990  33 O  py              540      0.156978  32 C  px        

 Vector   55  Occ=2.000000D+00  E=-5.645706D-01
              MO Center=  1.2D+00, -3.7D-02,  5.8D-02, r^2= 8.4D+00
   Bfn.  Coefficient  Atom+Function         Bfn.  Coefficient  Atom+Function  
  ----- ------------  ---------------      ----- ------------  ---------------
   565      0.223851  33 O  px              346     -0.202655  21 C  py        
   541      0.203389  32 C  py              227      0.163509  15 C  px        

 Vector   56  Occ=2.000000D+00  E=-5.521523D-01
              MO Center= -6.3D-01,  1.8D+00,  4.9D-01, r^2= 9.3D+00
   Bfn.  Coefficient  Atom+Function         Bfn.  Coefficient  Atom+Function  
  ----- ------------  ---------------      ----- ------------  ---------------
   214      0.244066  14 H  s               215      0.239056  14 H  s         
   177      0.196561  11 C  pz                2      0.187532   1 H  s         
    15     -0.178198   2 C  py              176     -0.178679  11 C  py        
    35     -0.159241   3 H  s         

 Vector   57  Occ=2.000000D+00  E=-5.480209D-01
              MO Center= -1.6D-01,  1.7D+00,  4.8D-01, r^2= 1.0D+01
   Bfn.  Coefficient  Atom+Function         Bfn.  Coefficient  Atom+Function  
  ----- ------------  ---------------      ----- ------------  ---------------
   175      0.266696  11 C  px              197      0.267864  12 H  s         
   196      0.241506  12 H  s               206     -0.173555  13 H  s         
    45     -0.166198   4 H  s                12      0.163117   2 C  s         
   205     -0.158655  13 H  s                44     -0.154086   4 H  s         
   107      0.152197   7 N  px              345      0.151518  21 C  px        

 Vector   58  Occ=2.000000D+00  E=-5.425718D-01
              MO Center= -5.8D-01,  1.1D+00,  1.1D-01, r^2= 9.6D+00
   Bfn.  Coefficient  Atom+Function         Bfn.  Coefficient  Atom+Function  
  ----- ------------  ---------------      ----- ------------  ---------------
    16      0.173068   2 C  pz               36     -0.167520   3 H  s         
     1      0.164867   1 H  s               108      0.158173   7 N  py        
    56      0.157272   5 C  s               196      0.154972  12 H  s         

 Vector   59  Occ=2.000000D+00  E=-5.296979D-01
              MO Center=  8.5D-01, -6.3D-01,  6.2D-01, r^2= 7.7D+00
   Bfn.  Coefficient  Atom+Function         Bfn.  Coefficient  Atom+Function  
  ----- ------------  ---------------      ----- ------------  ---------------
   347      0.260594  21 C  pz              375      0.255291  23 H  s         
   309     -0.169683  19 C  s               313     -0.164871  19 C  pz        
   348      0.157228  21 C  px              388     -0.157251  24 C  px        
   542      0.157508  32 C  pz              367     -0.152918  22 H  s         

 Vector   60  Occ=2.000000D+00  E=-5.232584D-01
              MO Center=  7.8D-01,  5.0D-01,  6.9D-01, r^2= 8.8D+00
   Bfn.  Coefficient  Atom+Function         Bfn.  Coefficient  Atom+Function  
  ----- ------------  ---------------      ----- ------------  ---------------
   367     -0.253747  22 H  s               346      0.236162  21 C  py        
   366     -0.218182  22 H  s               253     -0.213959  16 O  py        
   256     -0.161247  16 O  py              312     -0.159878  19 C  py        
   142      0.158822   9 C  py              176     -0.158631  11 C  py        
   205     -0.151035  13 H  s         

 Vector   61  Occ=2.000000D+00  E=-5.120294D-01
              MO Center=  9.2D-01,  2.9D-01,  7.7D-02, r^2= 8.4D+00
   Bfn.  Coefficient  Atom+Function         Bfn.  Coefficient  Atom+Function  
  ----- ------------  ---------------      ----- ------------  ---------------
   143      0.198555   9 C  pz              177     -0.163359  11 C  pz        
   566      0.158826  33 O  py              276      0.156778  17 N  s         
   162     -0.152648  10 H  s         

 Vector   62  Occ=2.000000D+00  E=-4.983796D-01
              MO Center=  9.9D-01,  5.0D-01,  7.4D-02, r^2= 7.8D+00
   Bfn.  Coefficient  Atom+Function         Bfn.  Coefficient  Atom+Function  
  ----- ------------  ---------------      ----- ------------  ---------------
   309      0.227612  19 C  s               332      0.203740  20 H  s         
   311      0.182488  19 C  px              143      0.179238   9 C  pz        
   349     -0.178470  21 C  py              254     -0.174613  16 O  pz        
   343     -0.171612  21 C  s               348     -0.150683  21 C  px        

 Vector   63  Occ=2.000000D+00  E=-4.512436D-01
              MO Center= -9.0D-01, -1.1D+00,  8.5D-01, r^2= 4.3D+00
   Bfn.  Coefficient  Atom+Function         Bfn.  Coefficient  Atom+Function  
  ----- ------------  ---------------      ----- ------------  ---------------
   414      0.397769  25 N  py              411      0.314213  25 N  s         
   417      0.287075  25 N  py              412      0.206010  25 N  s         
   389     -0.175415  24 C  py              415      0.174713  25 N  pz        
   376      0.166386  23 H  s               392     -0.153115  24 C  py        

 Vector   64  Occ=2.000000D+00  E=-4.430282D-01
              MO Center= -8.3D-02,  1.5D+00, -2.6D-01, r^2= 6.1D+00
   Bfn.  Coefficient  Atom+Function         Bfn.  Coefficient  Atom+Function  
  ----- ------------  ---------------      ----- ------------  ---------------
   253     -0.312203  16 O  py               83      0.287123   6 O  py        
   256     -0.244620  16 O  py              139      0.240506   9 C  s         
    86      0.224565   6 O  py              108     -0.222238   7 N  py        
   111     -0.201019   7 N  py              109      0.199722   7 N  pz        
   112      0.170443   7 N  pz              234      0.169927  15 C  py        

 Vector   65  Occ=2.000000D+00  E=-4.410379D-01
              MO Center= -9.9D-01,  1.2D+00, -1.1D+00, r^2= 4.1D+00
   Bfn.  Coefficient  Atom+Function         Bfn.  Coefficient  Atom+Function  
  ----- ------------  ---------------      ----- ------------  ---------------
    82      0.422705   6 O  px               85      0.333994   6 O  px        
    13     -0.250534   2 C  s                14      0.202899   2 C  px        
    17      0.196109   2 C  px               84      0.189651   6 O  pz        
    83      0.183292   6 O  py              225      0.175646  15 C  s         
   108      0.171073   7 N  py               87      0.162491   6 O  pz        

 Vector   66  Occ=2.000000D+00  E=-4.255736D-01
              MO Center=  1.7D+00,  8.7D-03, -3.4D-01, r^2= 6.6D+00
   Bfn.  Coefficient  Atom+Function         Bfn.  Coefficient  Atom+Function  
  ----- ------------  ---------------      ----- ------------  ---------------
   567      0.372885  33 O  pz              570      0.294499  33 O  pz        
   333      0.282589  20 H  s               254     -0.280710  16 O  pz        
   257     -0.217595  16 O  pz              279      0.218084  17 N  pz        
   282      0.208477  17 N  pz              539     -0.179239  32 C  s         
   309     -0.176719  19 C  s                12      0.159804   2 C  s         

 Vector   67  Occ=2.000000D+00  E=-4.092390D-01
              MO Center= -1.0D+00, -2.1D+00,  5.1D-01, r^2= 4.0D+00
   Bfn.  Coefficient  Atom+Function         Bfn.  Coefficient  Atom+Function  
  ----- ------------  ---------------      ----- ------------  ---------------
   415      0.331139  25 N  pz              418      0.292418  25 N  pz        
   474     -0.285411  28 N  pz              477     -0.252696  28 N  pz        
   473      0.170752  28 N  py              390      0.152717  24 C  pz        
   476      0.152482  28 N  py              414     -0.151152  25 N  py        

 Vector   68  Occ=2.000000D+00  E=-3.988851D-01
              MO Center=  5.3D-01,  1.7D+00, -9.6D-02, r^2= 5.8D+00
   Bfn.  Coefficient  Atom+Function         Bfn.  Coefficient  Atom+Function  
  ----- ------------  ---------------      ----- ------------  ---------------
   253      0.350595  16 O  py              256      0.287193  16 O  py        
   106     -0.236653   7 N  s               108     -0.232109   7 N  py        
   111     -0.225014   7 N  py              139     -0.214501   9 C  s         
   539      0.197246  32 C  s               163      0.178774  10 H  s         
    83      0.170150   6 O  py              145      0.168452   9 C  py        

 Vector   69  Occ=2.000000D+00  E=-3.855671D-01
              MO Center=  1.9D+00, -1.2D+00, -1.4D+00, r^2= 2.5D+00
   Bfn.  Coefficient  Atom+Function         Bfn.  Coefficient  Atom+Function  
  ----- ------------  ---------------      ----- ------------  ---------------
   591     -0.312394  34 N  py              565      0.302604  33 O  px        
   590     -0.296056  34 N  px              594     -0.285741  34 N  py        
   566      0.264478  33 O  py              593     -0.245047  34 N  px        
   568      0.237941  33 O  px              569      0.215197  33 O  py        
   276     -0.186675  17 N  s               333      0.155300  20 H  s         

 Vector   70  Occ=2.000000D+00  E=-3.750118D-01
              MO Center=  1.7D+00, -8.8D-02, -5.4D-02, r^2= 4.9D+00
   Bfn.  Coefficient  Atom+Function         Bfn.  Coefficient  Atom+Function  
  ----- ------------  ---------------      ----- ------------  ---------------
   279      0.350152  17 N  pz              282      0.336646  17 N  pz        
   567     -0.328003  33 O  pz              570     -0.258292  33 O  pz        
   254     -0.253249  16 O  pz              276      0.212782  17 N  s         
   257     -0.200160  16 O  pz              313     -0.170346  19 C  pz        

 Vector   71  Occ=2.000000D+00  E=-3.289402D-01
              MO Center= -7.6D-01, -2.6D+00,  5.6D-01, r^2= 2.8D+00
   Bfn.  Coefficient  Atom+Function         Bfn.  Coefficient  Atom+Function  
  ----- ------------  ---------------      ----- ------------  ---------------
   508      0.305910  30 C  pz              390      0.268047  24 C  pz        
   440     -0.250425  26 C  pz              393      0.225626  24 C  pz        
   511      0.208709  30 C  pz              507     -0.186890  30 C  py        
   443     -0.175553  26 C  pz              284     -0.160532  17 N  py        

 Vector   72  Occ=0.000000D+00  E= 1.919505D-02
              MO Center= -4.2D+00, -1.2D+00, -2.5D-01, r^2= 2.5D+01
   Bfn.  Coefficient  Atom+Function         Bfn.  Coefficient  Atom+Function  
  ----- ------------  ---------------      ----- ------------  ---------------
   300      2.848438  18 H  s                63     -2.577093   5 C  px        
   394     -2.558418  24 C  px              471     -2.506445  28 N  s         
   461     -2.289773  27 H  s               226      2.041364  15 C  s         
   437      1.887390  26 C  s                37     -1.636769   3 H  s         
   310      1.639603  19 C  s               539      1.633198  32 C  s         

 Vector   73  Occ=0.000000D+00  E= 2.613605D-02
              MO Center= -3.1D+00,  5.7D-01,  1.2D-01, r^2= 3.7D+01
   Bfn.  Coefficient  Atom+Function         Bfn.  Coefficient  Atom+Function  
  ----- ------------  ---------------      ----- ------------  ---------------
   234      2.460470  15 C  py               37     -2.025036   3 H  s         
   495      1.848461  29 H  s               207     -1.825247  13 H  s         
   471      1.802645  28 N  s               106     -1.778800   7 N  s         
   147     -1.751105   9 C  px                3     -1.501882   1 H  s         
   174      1.486976  11 C  s               300      1.424978  18 H  s         

 Vector   74  Occ=0.000000D+00  E= 3.795242D-02
              MO Center= -1.8D+00,  3.7D-01,  1.3D+00, r^2= 4.0D+01
   Bfn.  Coefficient  Atom+Function         Bfn.  Coefficient  Atom+Function  
  ----- ------------  ---------------      ----- ------------  ---------------
   300      3.742405  18 H  s                63      2.618851   5 C  px        
   377     -2.361733  23 H  s               461      2.227858  27 H  s         
    37      2.208541   3 H  s               216     -2.017926  14 H  s         
   148      1.933033   9 C  py              529     -1.842913  31 H  s         
   173      1.755060  11 C  s               412      1.735775  25 N  s         

 Vector   75  Occ=0.000000D+00  E= 3.954536D-02
              MO Center= -2.4D+00,  9.2D-01,  6.6D-01, r^2= 3.7D+01
   Bfn.  Coefficient  Atom+Function         Bfn.  Coefficient  Atom+Function  
  ----- ------------  ---------------      ----- ------------  ---------------
   234      4.782993  15 C  py              461      3.893225  27 H  s         
   300     -3.284796  18 H  s               444      3.123602  26 C  px        
   394      2.784302  24 C  px                3      2.731347   1 H  s         
   437      2.716593  26 C  s               318      2.671904  19 C  py        
   207     -2.657269  13 H  s               344      2.485571  21 C  s         

 Vector   76  Occ=0.000000D+00  E= 4.890586D-02
              MO Center= -7.5D-01, -4.1D-02,  8.6D-01, r^2= 4.8D+01
   Bfn.  Coefficient  Atom+Function         Bfn.  Coefficient  Atom+Function  
  ----- ------------  ---------------      ----- ------------  ---------------
   234      3.533824  15 C  py              461     -3.175820  27 H  s         
   512     -2.867087  30 C  px              529      2.708358  31 H  s         
   437     -2.552134  26 C  s                37      2.474008   3 H  s         
   444     -2.484411  26 C  px              377      2.311072  23 H  s         
    63      2.286185   5 C  px              207     -2.281034  13 H  s         

 Vector   77  Occ=0.000000D+00  E= 5.089543D-02
              MO Center= -8.3D-01,  7.4D-01,  1.5D-01, r^2= 4.1D+01
   Bfn.  Coefficient  Atom+Function         Bfn.  Coefficient  Atom+Function  
  ----- ------------  ---------------      ----- ------------  ---------------
    46      3.913230   4 H  s               130     -2.559878   8 H  s         
   377      1.831914  23 H  s               198      1.677298  12 H  s         
   300     -1.666022  18 H  s               529     -1.654533  31 H  s         
   164      1.561172  10 H  s               148     -1.505762   9 C  py        
   216      1.404419  14 H  s                 3     -1.363352   1 H  s         

 Vector   78  Occ=0.000000D+00  E= 5.466781D-02
              MO Center= -9.4D-01,  2.3D-01,  3.7D-01, r^2= 4.0D+01
   Bfn.  Coefficient  Atom+Function         Bfn.  Coefficient  Atom+Function  
  ----- ------------  ---------------      ----- ------------  ---------------
   437      3.437737  26 C  s               461     -3.227659  27 H  s         
   216      2.982016  14 H  s                46      2.742863   4 H  s         
    63      2.753982   5 C  px              394     -2.435723  24 C  px        
   548      2.409426  32 C  pz              589      2.346239  34 N  s         
   164     -2.153183  10 H  s               368     -2.065155  22 H  s         

 Vector   79  Occ=0.000000D+00  E= 5.999298D-02
              MO Center= -3.8D-01,  7.4D-02, -2.3D+00, r^2= 3.6D+01
   Bfn.  Coefficient  Atom+Function         Bfn.  Coefficient  Atom+Function  
  ----- ------------  ---------------      ----- ------------  ---------------
   589      4.821405  34 N  s               539     -3.679842  32 C  s         
   622      3.200903  36 H  s               164      2.932880  10 H  s         
   548      2.893672  32 C  pz               37     -2.438840   3 H  s         
    56     -2.368764   5 C  s                 3      2.276196   1 H  s         
   461      2.239330  27 H  s               106      2.091307   7 N  s         

 Vector   80  Occ=0.000000D+00  E= 6.523704D-02
              MO Center= -1.4D-01,  2.2D-01,  7.5D-01, r^2= 4.6D+01
   Bfn.  Coefficient  Atom+Function         Bfn.  Coefficient  Atom+Function  
  ----- ------------  ---------------      ----- ------------  ---------------
   529      4.216646  31 H  s                 3      3.650478   1 H  s         
   198      3.403653  12 H  s                63      3.261020   5 C  px        
   164     -3.212751  10 H  s                56      3.156178   5 C  s         
   377     -3.127203  23 H  s               130     -2.810073   8 H  s         
   234     -2.759535  15 C  py              539      2.641729  32 C  s         

 Vector   81  Occ=0.000000D+00  E= 6.859947D-02
              MO Center= -7.4D-01,  1.8D+00,  4.8D-01, r^2= 4.6D+01
   Bfn.  Coefficient  Atom+Function         Bfn.  Coefficient  Atom+Function  
  ----- ------------  ---------------      ----- ------------  ---------------
   207      4.753485  13 H  s                46      4.193528   4 H  s         
    56      3.475970   5 C  s               368      3.365259  22 H  s         
   198     -3.257802  12 H  s                37     -3.183851   3 H  s         
    13      3.153560   2 C  s               147      2.677086   9 C  px        
    63      2.574128   5 C  px                3     -2.481601   1 H  s         

 Vector   82  Occ=0.000000D+00  E= 7.326522D-02
              MO Center=  1.7D+00, -3.0D-01,  3.9D-01, r^2= 3.8D+01
   Bfn.  Coefficient  Atom+Function         Bfn.  Coefficient  Atom+Function  
  ----- ------------  ---------------      ----- ------------  ---------------
   334      5.543885  20 H  s               317     -4.233480  19 C  px        
   529     -3.325249  31 H  s               234      3.148969  15 C  py        
    46     -2.669941   4 H  s               164     -2.565984  10 H  s         
   539      2.378086  32 C  s               368      2.209455  22 H  s         
   377     -2.143598  23 H  s               622      1.783528  36 H  s         

 Vector   83  Occ=0.000000D+00  E= 7.635523D-02
              MO Center= -9.2D-01,  5.9D-01,  2.1D-01, r^2= 4.1D+01
   Bfn.  Coefficient  Atom+Function         Bfn.  Coefficient  Atom+Function  
  ----- ------------  ---------------      ----- ------------  ---------------
    37      5.125324   3 H  s               589      3.857322  34 N  s         
   437     -3.824432  26 C  s                 3     -3.591409   1 H  s         
   164     -3.345406  10 H  s                13      3.195170   2 C  s         
   461      3.168316  27 H  s               130     -3.104296   8 H  s         
   368     -2.903441  22 H  s               334     -2.638556  20 H  s         

 Vector   84  Occ=0.000000D+00  E= 8.281635D-02
              MO Center= -3.7D-01,  9.4D-01,  2.2D+00, r^2= 3.9D+01
   Bfn.  Coefficient  Atom+Function         Bfn.  Coefficient  Atom+Function  
  ----- ------------  ---------------      ----- ------------  ---------------
   234      6.484114  15 C  py              216      6.263954  14 H  s         
   377     -5.261143  23 H  s                 3     -5.104998   1 H  s         
   387      4.166729  24 C  s               461      4.088930  27 H  s         
   198     -3.931006  12 H  s               147     -3.658017   9 C  px        
   437     -3.598553  26 C  s               182      3.200977  11 C  py        

 Vector   85  Occ=0.000000D+00  E= 8.923155D-02
              MO Center=  1.7D-01,  4.9D-01,  9.7D-01, r^2= 4.2D+01
   Bfn.  Coefficient  Atom+Function         Bfn.  Coefficient  Atom+Function  
  ----- ------------  ---------------      ----- ------------  ---------------
   368      5.085311  22 H  s               198      4.688640  12 H  s         
    63     -4.388493   5 C  px              613      4.215168  35 H  s         
   130      4.028009   8 H  s               207     -3.991541  13 H  s         
     3     -3.574218   1 H  s               334     -3.492947  20 H  s         
   529     -3.270497  31 H  s               317      3.228646  19 C  px        

 Vector   86  Occ=0.000000D+00  E= 9.283303D-02
              MO Center=  6.5D-02, -5.7D-01,  1.2D+00, r^2= 4.2D+01
   Bfn.  Coefficient  Atom+Function         Bfn.  Coefficient  Atom+Function  
  ----- ------------  ---------------      ----- ------------  ---------------
   300      7.747150  18 H  s               368     -6.447173  22 H  s         
     3     -6.040559   1 H  s               334      5.710848  20 H  s         
   216     -4.334989  14 H  s               130      3.624828   8 H  s         
   529      3.413003  31 H  s               317     -3.366247  19 C  px        
   164     -2.965520  10 H  s               351      2.778439  21 C  px        

 Vector   87  Occ=0.000000D+00  E= 9.991065D-02
              MO Center= -1.2D+00, -5.6D-02,  7.8D-02, r^2= 3.9D+01
   Bfn.  Coefficient  Atom+Function         Bfn.  Coefficient  Atom+Function  
  ----- ------------  ---------------      ----- ------------  ---------------
     3      6.773537   1 H  s               437      6.085913  26 C  s         
   613      5.260487  35 H  s               174     -4.893095  11 C  s         
   539      4.410970  32 C  s               130     -4.153707   8 H  s         
   461     -3.854397  27 H  s               334      3.276711  20 H  s         
   387     -3.272563  24 C  s               198     -3.153214  12 H  s         

 Vector   88  Occ=0.000000D+00  E= 1.080975D-01
              MO Center= -1.1D+00,  6.2D-01, -4.2D-01, r^2= 3.5D+01
   Bfn.  Coefficient  Atom+Function         Bfn.  Coefficient  Atom+Function  
  ----- ------------  ---------------      ----- ------------  ---------------
    56     14.671511   5 C  s               539     13.315018  32 C  s         
   300     -8.230832  18 H  s               319      6.426909  19 C  pz        
   318     -6.172643  19 C  py               63      5.733485   5 C  px        
   147      5.611619   9 C  px              234     -5.255922  15 C  py        
    65      5.121066   5 C  pz              352     -4.979453  21 C  py        

 Vector   89  Occ=0.000000D+00  E= 1.114345D-01
              MO Center= -2.3D-01, -2.7D-01, -8.6D-01, r^2= 3.4D+01
   Bfn.  Coefficient  Atom+Function         Bfn.  Coefficient  Atom+Function  
  ----- ------------  ---------------      ----- ------------  ---------------
   613      9.441850  35 H  s               300     -8.500638  18 H  s         
   318      6.395575  19 C  py              234      5.420354  15 C  py        
    63     -5.341663   5 C  px               13     -4.382401   2 C  s         
   387      4.148834  24 C  s               147     -3.816532   9 C  px        
   377      3.799736  23 H  s                56     -3.610654   5 C  s         

 Vector   90  Occ=0.000000D+00  E= 1.203347D-01
              MO Center= -1.8D+00, -8.6D-01,  7.8D-01, r^2= 3.0D+01
   Bfn.  Coefficient  Atom+Function         Bfn.  Coefficient  Atom+Function  
  ----- ------------  ---------------      ----- ------------  ---------------
   300     16.056934  18 H  s               539     10.255136  32 C  s         
   394     -9.296638  24 C  px              319      8.516939  19 C  pz        
   396     -6.753897  24 C  pz              344     -6.413809  21 C  s         
   352     -6.432252  21 C  py              437     -6.284639  26 C  s         
    13     -5.975974   2 C  s               351     -5.442903  21 C  px        

 Vector   91  Occ=0.000000D+00  E= 1.246696D-01
[...]
   548      9.144861  32 C  pz              613     -8.558840  35 H  s         
   147     -7.189499   9 C  px              309      7.022109  19 C  s         
   226      6.348625  15 C  s               396     -6.152650  24 C  pz        
   235     -5.701367  15 C  pz              233      5.452150  15 C  px        

 Vector  176  Occ=0.000000D+00  E= 4.355475D-01
              MO Center=  3.1D-01,  4.8D-01,  3.9D-01, r^2= 2.1D+01
   Bfn.  Coefficient  Atom+Function         Bfn.  Coefficient  Atom+Function  
  ----- ------------  ---------------      ----- ------------  ---------------
   539     12.049895  32 C  s               412     10.310507  25 N  s         
   276     -8.830829  17 N  s                12      8.549484   2 C  s         
   471      8.518610  28 N  s               394      8.339221  24 C  px        
   396      7.486111  24 C  pz              376     -7.091090  23 H  s         
    63     -7.026914   5 C  px              352      6.902887  21 C  py        

 Vector  177  Occ=0.000000D+00  E= 4.387831D-01
              MO Center=  6.0D-01,  2.1D-02,  3.7D-01, r^2= 2.1D+01
   Bfn.  Coefficient  Atom+Function         Bfn.  Coefficient  Atom+Function  
  ----- ------------  ---------------      ----- ------------  ---------------
   234     12.535266  15 C  py              387     11.229931  24 C  s         
   318     10.890919  19 C  py              437    -10.889522  26 C  s         
   106     -9.393975   7 N  s               317      8.804202  19 C  px        
   233     -8.360500  15 C  px               56     -8.026951   5 C  s         
   148     -7.885184   9 C  py              395      7.376004  24 C  py        

 Vector  178  Occ=0.000000D+00  E= 4.405039D-01
              MO Center=  7.7D-02,  8.0D-01,  8.5D-02, r^2= 2.1D+01
   Bfn.  Coefficient  Atom+Function         Bfn.  Coefficient  Atom+Function  
  ----- ------------  ---------------      ----- ------------  ---------------
   437     14.932529  26 C  s               318     10.623582  19 C  py        
   106     -6.870545   7 N  s               396      6.677479  24 C  pz        
   173     -6.385636  11 C  s               333     -6.249706  20 H  s         
   344      6.005350  21 C  s               226     -5.652655  15 C  s         
    65      5.502283   5 C  pz              284      5.432665  17 N  py        

 Vector  179  Occ=0.000000D+00  E= 4.431636D-01
              MO Center= -5.3D-01, -4.1D-01,  7.0D-02, r^2= 2.0D+01
   Bfn.  Coefficient  Atom+Function         Bfn.  Coefficient  Atom+Function  
  ----- ------------  ---------------      ----- ------------  ---------------
   589     12.154227  34 N  s               437     -8.644896  26 C  s         
   419     -6.760677  25 N  px              234     -6.369675  15 C  py        
   174      6.206782  11 C  s               318     -6.024995  19 C  py        
   283     -5.953175  17 N  px              539     -5.765840  32 C  s         
   548      5.527862  32 C  pz              319      5.118038  19 C  pz        

 Vector  180  Occ=0.000000D+00  E= 4.460978D-01
              MO Center=  2.4D-01,  1.1D+00,  5.9D-01, r^2= 2.0D+01
   Bfn.  Coefficient  Atom+Function         Bfn.  Coefficient  Atom+Function  
  ----- ------------  ---------------      ----- ------------  ---------------
   539     19.545683  32 C  s               437    -17.154584  26 C  s         
   276    -13.594527  17 N  s               471     12.079914  28 N  s         
   174     11.130016  11 C  s               234    -10.435792  15 C  py        
   344     -9.465694  21 C  s                13     -7.872331   2 C  s         
   226      7.885748  15 C  s               197     -7.799297  12 H  s         

 Vector  181  Occ=0.000000D+00  E= 4.511082D-01
              MO Center= -7.1D-01,  1.2D+00,  4.0D-01, r^2= 2.0D+01
   Bfn.  Coefficient  Atom+Function         Bfn.  Coefficient  Atom+Function  
  ----- ------------  ---------------      ----- ------------  ---------------
   174     10.640069  11 C  s                12      8.292484   2 C  s         
   284     -8.255459  17 N  py               45     -6.715570   4 H  s         
   149     -5.946230   9 C  pz              395      5.389446  24 C  py        
   539     -5.285606  32 C  s               235      5.188218  15 C  pz        
   140      5.148173   9 C  s                63     -5.088314   5 C  px        

 Vector  182  Occ=0.000000D+00  E= 4.585956D-01
              MO Center= -4.9D-01,  6.6D-01,  7.2D-02, r^2= 2.0D+01
   Bfn.  Coefficient  Atom+Function         Bfn.  Coefficient  Atom+Function  
  ----- ------------  ---------------      ----- ------------  ---------------
    56     21.377460   5 C  s               437    -17.940608  26 C  s         
   234    -12.328768  15 C  py              318    -11.727007  19 C  py        
   396    -10.434010  24 C  pz               63      9.622340   5 C  px        
   344     -9.338165  21 C  s                13      9.133075   2 C  s         
   147      8.802429   9 C  px              148      8.361036   9 C  py        

 Vector  183  Occ=0.000000D+00  E= 4.655505D-01
              MO Center= -5.9D-01,  9.4D-01,  3.9D-01, r^2= 1.8D+01
   Bfn.  Coefficient  Atom+Function         Bfn.  Coefficient  Atom+Function  
  ----- ------------  ---------------      ----- ------------  ---------------
   173      9.628681  11 C  s               215     -9.466743  14 H  s         
   284     -9.426401  17 N  py              539     -8.329530  32 C  s         
   106      6.947949   7 N  s               163     -6.916316  10 H  s         
   174      6.847810  11 C  s               300     -6.851282  18 H  s         
   113      6.682171   7 N  px              283      6.470457  17 N  px        

 Vector  184  Occ=0.000000D+00  E= 4.671076D-01
              MO Center= -8.7D-01,  5.8D-01,  4.6D-03, r^2= 2.0D+01
   Bfn.  Coefficient  Atom+Function         Bfn.  Coefficient  Atom+Function  
  ----- ------------  ---------------      ----- ------------  ---------------
   471     13.595519  28 N  s                13     13.271357   2 C  s         
   106    -11.326708   7 N  s               437    -10.011493  26 C  s         
   394      9.233896  24 C  px              174      8.509646  11 C  s         
   396      7.954733  24 C  pz              387      6.064878  24 C  s         
    63      5.911179   5 C  px              310     -5.742240  19 C  s         

 Vector  185  Occ=0.000000D+00  E= 4.694419D-01
              MO Center= -5.7D-01, -6.3D-01, -1.9D-01, r^2= 1.9D+01
   Bfn.  Coefficient  Atom+Function         Bfn.  Coefficient  Atom+Function  
  ----- ------------  ---------------      ----- ------------  ---------------
   589      9.725974  34 N  s               437      9.432921  26 C  s         
   300     -7.825334  18 H  s               174      7.574874  11 C  s         
   106     -7.193571   7 N  s               548      5.688171  32 C  pz        
    56     -5.384616   5 C  s               471      5.140262  28 N  s         
   387     -5.024237  24 C  s                 3      4.561646   1 H  s         

 Vector  186  Occ=0.000000D+00  E= 4.777670D-01
              MO Center=  2.8D-01,  5.6D-01, -3.4D-01, r^2= 2.0D+01
   Bfn.  Coefficient  Atom+Function         Bfn.  Coefficient  Atom+Function  
  ----- ------------  ---------------      ----- ------------  ---------------
   276     18.382434  17 N  s               412     12.775551  25 N  s         
   174    -11.119507  11 C  s               300     11.122988  18 H  s         
   387     -9.082872  24 C  s               234      8.124239  15 C  py        
   589      7.776353  34 N  s               344     -7.449252  21 C  s         
   505     -7.273706  30 C  s               395     -6.619761  24 C  py        

 Vector  187  Occ=0.000000D+00  E= 4.784487D-01
              MO Center= -2.8D-01,  3.0D-01, -1.5D-01, r^2= 2.2D+01
   Bfn.  Coefficient  Atom+Function         Bfn.  Coefficient  Atom+Function  
  ----- ------------  ---------------      ----- ------------  ---------------
   437     16.087005  26 C  s               234    -10.741910  15 C  py        
   318    -10.598043  19 C  py              387    -10.079692  24 C  s         
   539     -8.194983  32 C  s               471     -6.508648  28 N  s         
   394     -6.395197  24 C  px              226      6.038471  15 C  s         
    13     -5.841628   2 C  s               317      5.828805  19 C  px        

 Vector  188  Occ=0.000000D+00  E= 4.813329D-01
              MO Center=  2.1D-01,  7.5D-01,  3.3D-01, r^2= 2.1D+01
   Bfn.  Coefficient  Atom+Function         Bfn.  Coefficient  Atom+Function  
  ----- ------------  ---------------      ----- ------------  ---------------
   319    -14.045774  19 C  pz               13     13.075740   2 C  s         
   539    -12.861755  32 C  s               234    -10.406065  15 C  py        
   344      9.889981  21 C  s               147      8.451830   9 C  px        
   589     -7.980184  34 N  s               310     -7.164533  19 C  s         
   437      6.844308  26 C  s                12      6.143296   2 C  s         

 Vector  189  Occ=0.000000D+00  E= 4.898989D-01
              MO Center=  3.8D-01, -2.0D-01, -2.1D-01, r^2= 2.0D+01
   Bfn.  Coefficient  Atom+Function         Bfn.  Coefficient  Atom+Function  
  ----- ------------  ---------------      ----- ------------  ---------------
   539     10.716139  32 C  s               471      9.356609  28 N  s         
   437     -8.768706  26 C  s               234      8.176970  15 C  py        
    56      7.500602   5 C  s               412      6.758376  25 N  s         
   344     -6.646879  21 C  s               285      6.546223  17 N  pz        
   376      6.241195  23 H  s               299      6.179105  18 H  s         

 Vector  190  Occ=0.000000D+00  E= 4.908720D-01
              MO Center=  4.8D-02,  2.1D+00,  5.2D-01, r^2= 1.8D+01
   Bfn.  Coefficient  Atom+Function         Bfn.  Coefficient  Atom+Function  
  ----- ------------  ---------------      ----- ------------  ---------------
   234    -18.030017  15 C  py               13     17.271101   2 C  s         
   147     16.223706   9 C  px               63      8.413447   5 C  px        
   539     -7.971911  32 C  s               114      7.875372   7 N  py        
   226     -7.794043  15 C  s               235      7.215038  15 C  pz        
   283     -6.963774  17 N  px               56      6.659240   5 C  s         

 Vector  191  Occ=0.000000D+00  E= 4.947652D-01
              MO Center= -5.5D-01, -7.5D-01,  3.3D-02, r^2= 1.9D+01
   Bfn.  Coefficient  Atom+Function         Bfn.  Coefficient  Atom+Function  
  ----- ------------  ---------------      ----- ------------  ---------------
   437     17.604751  26 C  s               300    -13.766359  18 H  s         
   539     12.469683  32 C  s               589    -11.259070  34 N  s         
    56     10.186555   5 C  s                63      9.436376   5 C  px        
    13      7.303376   2 C  s               113      6.932572   7 N  px        
   412     -6.253161  25 N  s               478      5.848351  28 N  px        

 Vector  192  Occ=0.000000D+00  E= 5.007297D-01
              MO Center=  2.6D-02,  2.8D-01,  3.4D-01, r^2= 2.0D+01
   Bfn.  Coefficient  Atom+Function         Bfn.  Coefficient  Atom+Function  
  ----- ------------  ---------------      ----- ------------  ---------------
   539     19.278095  32 C  s               394    -10.594500  24 C  px        
   319     10.139442  19 C  pz              344     -9.861281  21 C  s         
   310      8.899451  19 C  s               352     -8.720811  21 C  py        
   589     -7.974259  34 N  s               437     -7.444392  26 C  s         
   387     -7.300417  24 C  s               106     -7.123782   7 N  s         


 center of mass
 --------------
 x =   0.06461285 y =  -0.04813830 z =  -0.02513000

 moments of inertia (a.u.)
 ------------------
        5297.571527489425          -0.000000000001           0.000000000000
          -0.000000000001        3728.535055215073           0.000000000000
           0.000000000000           0.000000000000        7182.655012974471

  Mulliken analysis of the total density
  --------------------------------------

    Atom       Charge   Shell Charges
 -----------   ------   -------------------------------------------------------
    1 H    1     0.82   0.76  0.09  0.02  0.03 -0.08
    2 C    6     6.41   2.01  0.66  0.40  0.16  2.07  0.99 -0.05  0.06  0.12
    3 H    1     0.84   0.77  0.10  0.02  0.03 -0.08
    4 H    1     0.92   0.77  0.21 -0.00  0.03 -0.08
    5 C    6     5.19   2.01  0.68  0.09  0.07  1.89  0.32 -0.05  0.24 -0.05
    6 O    8     8.80   2.01  0.82  1.00  0.17  2.80  1.87  0.14  0.01 -0.01
    7 N    7     7.53   2.01  0.72  0.81 -0.14  2.45  1.44  0.14  0.05  0.04
    8 H    1     0.95   0.77  0.21 -0.03  0.05 -0.04
    9 C    6     6.36   2.01  0.66  0.09  0.04  1.99  1.33 -0.04  0.14  0.14
   10 H    1     1.13   0.78  0.28  0.02  0.03  0.02
   11 C    6     5.78   2.01  0.66  0.30  0.16  2.04  0.58 -0.04  0.07  0.01
   12 H    1     0.94   0.76  0.22 -0.01  0.03 -0.07
   13 H    1     0.96   0.77  0.23  0.01  0.03 -0.08
   14 H    1     0.94   0.77  0.19  0.04  0.03 -0.08
   15 C    6     4.79   2.01  0.68  0.06 -0.03  1.89  0.11  0.12  0.24 -0.29
   16 O    8     8.86   2.01  0.82  1.05  0.20  2.79  1.85  0.14  0.01 -0.00
   17 N    7     7.51   2.01  0.72  0.78 -0.08  2.45  1.41  0.15  0.06  0.02
   18 H    1     0.81   0.75  0.25 -0.07  0.06 -0.18
   19 C    6     6.25   2.01  0.66  0.04  0.04  1.99  1.21  0.09  0.14  0.07
   20 H    1     1.05   0.77  0.26 -0.00  0.03 -0.01
   21 C    6     5.72   2.01  0.66  0.19 -0.07  2.05  0.79 -0.04  0.09  0.05
   22 H    1     0.97   0.78  0.23 -0.01  0.03 -0.06
   23 H    1     0.84   0.78  0.12 -0.01  0.03 -0.07
   24 C    6     5.77   2.01  0.66  0.10 -0.15  1.99  0.65  0.13  0.15  0.24
   25 N    7     7.98   2.01  0.76  1.05  0.02  2.27  1.68  0.06  0.05  0.08
   26 C    6     4.95   2.01  0.66 -0.02 -0.03  1.96  0.42  0.03  0.14 -0.21
   27 H    1     1.44   0.77  0.60  0.02  0.03  0.02
   28 N    7     7.66   2.01  0.73  0.99 -0.11  2.43  1.44 -0.01  0.06  0.12
   29 H    1     1.05   0.76  0.24 -0.01  0.05 -0.01
   30 C    6     4.98   2.01  0.66  0.04 -0.12  2.02  0.46 -0.01  0.11 -0.19
   31 H    1     1.31   0.76  0.52  0.01  0.03 -0.02
   32 C    6     4.50   2.01  0.68  0.06 -0.04  1.89 -0.21  0.01  0.24 -0.14
   33 O    8     8.91   2.01  0.82  1.05  0.22  2.79  1.85  0.16  0.01 -0.00
   34 N    7     7.18   2.01  0.72  0.81 -0.19  2.46  1.24  0.11  0.04 -0.02
   35 H    1     0.86   0.73  0.21 -0.01  0.06 -0.14
   36 H    1     1.03   0.76  0.25 -0.01  0.05 -0.02

       Multipole analysis of the density wrt the origin
       ------------------------------------------------

     L   x y z        total         open         nuclear
     -   - - -        -----         ----         -------
     0   0 0 0     -0.000000      0.000000    142.000000

     1   1 0 0     -3.727295      0.000000      0.000000
     1   0 1 0     -0.117017      0.000000      0.000000
     1   0 0 1      0.711901      0.000000      0.000000

     2   2 0 0    -88.730512      0.000000   1535.205045
     2   1 1 0      2.562806      0.000000    -14.303573
     2   1 0 1      5.052427      0.000000     16.319988
     2   0 2 0    -71.184075      0.000000   2403.696749
     2   0 1 1      5.371029      0.000000     24.268345
     2   0 0 2    -85.220020      0.000000    521.007034


 Task  times  cpu:     5734.4s     wall:     6004.1s


                                NWChem Input Module
                                -------------------


 Summary of allocated global arrays
-----------------------------------
  No active global arrays


MA_summarize_allocated_blocks: starting scan ...
MA_summarize_allocated_blocks: scan completed: 0 heap blocks, 0 stack blocks
MA usage statistics:

	allocation statistics:
					      heap	     stack
					      ----	     -----
	current number of blocks	         0	         0
	maximum number of blocks	        16	        14
	current total bytes		         0	         0
	maximum total bytes		    132840	  28811320
	maximum total K-bytes		       133	     28812
	maximum total M-bytes		         1	        29


                                     CITATION
                                     --------
                Please cite the following reference when publishing
                           results obtained with NWChem:

          E. Apra, E. J. Bylaska, W. A. de Jong, N. Govind, K. Kowalski,
       T. P. Straatsma, M. Valiev, H. J. J. van Dam, Y. Alexeev, J. Anchell,
       V. Anisimov, F. W. Aquino, R. Atta-Fynn, J. Autschbach, N. P. Bauman,
     J. C. Becca, D. E. Bernholdt, K. Bhaskaran-Nair, S. Bogatko, P. Borowski,
         J. Boschen, J. Brabec, A. Bruner, E. Cauet, Y. Chen, G. N. Chuev,
      C. J. Cramer, J. Daily, M. J. O. Deegan, T. H. Dunning Jr., M. Dupuis,
   K. G. Dyall, G. I. Fann, S. A. Fischer, A. Fonari, H. Fruchtl, L. Gagliardi,
      J. Garza, N. Gawande, S. Ghosh, K. Glaesemann, A. W. Gotz, J. Hammond,
       V. Helms, E. D. Hermes, K. Hirao, S. Hirata, M. Jacquelin, L. Jensen,
   B. G. Johnson, H. Jonsson, R. A. Kendall, M. Klemm, R. Kobayashi, V. Konkov,
      S. Krishnamoorthy, M. Krishnan, Z. Lin, R. D. Lins, R. J. Littlefield,
      A. J. Logsdail, K. Lopata, W. Ma, A. V. Marenich, J. Martin del Campo,
   D. Mejia-Rodriguez, J. E. Moore, J. M. Mullin, T. Nakajima, D. R. Nascimento,
    J. A. Nichols, P. J. Nichols, J. Nieplocha, A. Otero-de-la-Roza, B. Palmer,
    A. Panyala, T. Pirojsirikul, B. Peng, R. Peverati, J. Pittner, L. Pollack,
   R. M. Richard, P. Sadayappan, G. C. Schatz, W. A. Shelton, D. W. Silverstein,
   D. M. A. Smith, T. A. Soares, D. Song, M. Swart, H. L. Taylor, G. S. Thomas,
            V. Tipparaju, D. G. Truhlar, K. Tsemekhman, T. Van Voorhis,
      A. Vazquez-Mayagoitia, P. Verma, O. Villa, A. Vishnu, K. D. Vogiatzis,
        D. Wang, J. H. Weare, M. J. Williamson, T. L. Windus, K. Wolinski,
        A. T. Wong, Q. Wu, C. Yang, Q. Yu, M. Zacharias, Z. Zhang, Y. Zhao,
                                and R. J. Harrison
                        "NWChem: Past, present, and future
                         J. Chem. Phys. 152, 184102 (2020)
                               doi:10.1063/5.0004997

                                      AUTHORS
                                      -------
  E. Apra, E. J. Bylaska, N. Govind, K. Kowalski, M. Valiev, D. Mejia-Rodriguez,
       A. Kunitsa, N. P. Bauman, A. Panyala, W. A. de Jong, T. P. Straatsma,
   H. J. J. van Dam, D. Wang, T. L. Windus, J. Hammond, J. Autschbach, A. Woods,
    K. Bhaskaran-Nair, J. Brabec, K. Lopata, S. A. Fischer, S. Krishnamoorthy,
     M. Jacquelin, W. Ma, M. Klemm, O. Villa, Y. Chen, V. Anisimov, F. Aquino,
     S. Hirata, M. T. Hackler, E. Hermes, L. Jensen, J. E. Moore, J. C. Becca,
      V. Konjkov, T. Risthaus, M. Malagoli, A. Marenich, A. Otero-de-la-Roza,
        J. Mullin, P. Nichols, R. Peverati, J. Pittner, Y. Zhao, P.-D. Fan,
        A. Fonari, M. J. Williamson, R. J. Harrison, J. R. Rehr, M. Dupuis,
     D. Silverstein, D. M. A. Smith, J. Nieplocha, V. Tipparaju, M. Krishnan,
     B. E. Van Kuiken, A. Vazquez-Mayagoitia, M. Swart, Q. Wu, T. Van Voorhis,
     A. A. Auer, M. Nooijen, L. D. Crosby, E. Brown, G. Cisneros, G. I. Fann,
   H. Fruchtl, J. Garza, K. Hirao, R. A. Kendall, J. A. Nichols, K. Tsemekhman,
    K. Wolinski, J. Anchell, D. E. Bernholdt, P. Borowski, T. Clark, D. Clerc,
   H. Dachsel, M. J. O. Deegan, K. Dyall, D. Elwood, E. Glendening, M. Gutowski,
   A. C. Hess, J. Jaffe, B. G. Johnson, J. Ju, R. Kobayashi, R. Kutteh, Z. Lin,
   R. Littlefield, X. Long, B. Meng, T. Nakajima, S. Niu, L. Pollack, M. Rosing,
   K. Glaesemann, G. Sandrone, M. Stave, H. Taylor, G. Thomas, J. H. van Lenthe,
                               A. T. Wong, Z. Zhang.

 Total times  cpu:     5734.4s     wall:     6004.6s
