export TMOUT=5400
export TMPDIR=/tmp
export PTMPDIR=/tmp/ptmp
 argument  1 = ALA_PRO_0.nw
                                         
                                         


             Northwest Computational Chemistry Package (NWChem) 7.2.0
             --------------------------------------------------------


                    Environmental Molecular Sciences Laboratory
                       Pacific Northwest National Laboratory
                                Richland, WA 99352

                              Copyright (c) 1994-2022
                       Pacific Northwest National Laboratory
                            Battelle Memorial Institute

             NWChem is an open-source computational chemistry package
                        distributed under the terms of the
                      Educational Community License (ECL) 2.0
             A copy of the license is included with this distribution
                              in the LICENSE.TXT file

                                  ACKNOWLEDGMENT
                                  --------------

            This software and its documentation were developed at the
            EMSL at Pacific Northwest National Laboratory, a multiprogram
            national laboratory, operated for the U.S. Department of Energy
            by Battelle under Contract Number DE-AC05-76RL01830. Support
            for this work was provided by the Department of Energy Office
            of Biological and Environmental Research, Office of Basic
            Energy Sciences, and the Office of Advanced Scientific Computing.


           Job information
           ---------------

    hostname        = nova18-41
    program         = /opt/rit/el9/20230413/app/linux-rhel9-x86_64_v3/gcc-11.2.1/nwchem-7.2.0-oxtctbuhfuzyfaoziquq6bki22grib3g/bin/nwchem
    date            = Mon Jun 30 09:29:24 2025

    compiled        = Wed_May_17_23:46:39_2023
    source          = /tmp/root/spack-stage/spack-stage-nwchem-7.2.0-oxtctbuhfuzyfaoziquq6bki22grib3g/spack-src
    nwchem branch   = 7.2.0
    nwchem revision = d0d141fd
    ga revision     = 5.8.0
    use scalapack   = T
    input           = ALA_PRO_0.nw
    prefix          = ALA_PRO_0.
    data base       = ./ALA_PRO_0.db
    status          = startup
    nproc           =        8
    time left       =     -1s



           Memory information
           ------------------

    heap     =   26214400 doubles =    200.0 Mbytes
    stack    =   26214397 doubles =    200.0 Mbytes
    global   =   52428800 doubles =    400.0 Mbytes (distinct from heap & stack)
    total    =  104857597 doubles =    800.0 Mbytes
    verify   = yes
    hardfail = no 


           Directory information
           ---------------------

  0 permanent = .
  0 scratch   = .




                                NWChem Input Module
                                -------------------



 Scaling coordinates for geometry "geometry" by  1.889725989
 (inverse scale =  0.529177249)

 C1  symmetry detected

          ------
          auto-z
          ------
  no constraints, skipping    0.0000000000000000     
  no constraints, skipping    0.0000000000000000     


                             Geometry "geometry" -> ""
                             -------------------------

 Output coordinates in angstroms (scale by  1.889725989 to convert to a.u.)

  No.       Tag          Charge          X              Y              Z
 ---- ---------------- ---------- -------------- -------------- --------------
    1 H                    1.0000    -0.97922792    -4.63682412     1.86507428
    2 C                    6.0000    -0.73436359    -4.92261835     0.84349604
    3 H                    1.0000    -1.64612674    -5.07583007     0.27070364
    4 H                    1.0000    -0.14873979    -5.84163377     0.85133262
    5 C                    6.0000     0.08329433    -3.82758087     0.19951587
    6 O                    8.0000     1.21187172    -4.06246300    -0.20934531
    7 N                    7.0000    -0.48899926    -2.62814219     0.11623988
    8 H                    1.0000    -1.41287565    -2.50525449     0.50195485
    9 C                    6.0000     0.14311588    -1.44471662    -0.46823884
   10 H                    1.0000     1.22001927    -1.51714298    -0.31181786
   11 C                    6.0000    -0.13315435    -1.44125304    -1.98043881
   12 H                    1.0000     0.27510929    -2.34754172    -2.43104132
   13 H                    1.0000    -1.20778169    -1.40343111    -2.16198653
   14 H                    1.0000     0.33698535    -0.57590200    -2.44722918
   15 C                    6.0000    -0.37451916    -0.15460097     0.20547072
   16 O                    8.0000    -1.50803838    -0.14761804     0.69321494
   17 N                    7.0000     0.41005598     0.94447246     0.23157506
   18 C                    6.0000     1.78559165     1.02556729    -0.25103683
   19 H                    1.0000     1.86218126     0.73090525    -1.29749433
   20 H                    1.0000     2.42327220     0.39149508     0.36631716
   21 C                    6.0000     2.21003455     2.48577681    -0.08856716
   22 H                    1.0000     1.95810055     3.04604825    -0.98976979
   23 H                    1.0000     3.27338972     2.57512607     0.13567044
   24 C                    6.0000     1.34149124     2.95817408     1.07661065
   25 H                    1.0000     1.23404269     4.04339044     1.09587898
   26 H                    1.0000     1.77750557     2.61287783     2.01541787
   27 C                    6.0000     0.01623441     2.22398655     0.82985366
   28 H                    1.0000    -0.47002308     2.04799742     1.79063328
   29 C                    6.0000    -0.97236639     3.00618997    -0.06273318
   30 O                    8.0000    -0.67087077     4.06942149    -0.59074845
   31 N                    7.0000    -2.16929381     2.47880108    -0.27562450
   32 H                    1.0000    -2.39707091     1.58287717     0.13447663
   33 H                    1.0000    -2.81695249     2.97865053    -0.86201580

      Atomic Mass 
      ----------- 

      H                  1.007825
      C                 12.000000
      O                 15.994910
      N                 14.003070


 Effective nuclear repulsion energy (a.u.)    1170.9911543017

            Nuclear Dipole moment (a.u.) 
            ----------------------------
        X                 Y               Z
 ---------------- ---------------- ----------------
    -0.0000000000    -0.0000000000     0.0000000000



                                Z-matrix (autoz)
                                -------- 

 Units are Angstrom for bonds and degrees for angles

      Type          Name      I     J     K     L     M      Value
      ----------- --------  ----- ----- ----- ----- ----- ----------
    1 Stretch                  1     2                       1.08870
    2 Stretch                  2     3                       1.08760
    3 Stretch                  2     4                       1.08977
    4 Stretch                  2     5                       1.51076
    5 Stretch                  5     6                       1.22312
    6 Stretch                  5     7                       1.33158
    7 Stretch                  7     8                       1.00867
    8 Stretch                  7     9                       1.46345
    9 Stretch                  9    10                       1.09061
   10 Stretch                  9    11                       1.53723
   11 Stretch                  9    15                       1.54474
   12 Stretch                 11    12                       1.09137
   13 Stretch                 11    13                       1.09051
   14 Stretch                 11    14                       1.08984
   15 Stretch                 15    16                       1.23402
   16 Stretch                 15    17                       1.35063
   17 Stretch                 17    18                       1.46000
   18 Stretch                 17    27                       1.46635
   19 Stretch                 18    19                       1.08985
   20 Stretch                 18    20                       1.09078
   21 Stretch                 18    21                       1.52930
   22 Stretch                 21    22                       1.09066
   23 Stretch                 21    23                       1.09041
   24 Stretch                 21    24                       1.52812
   25 Stretch                 24    25                       1.09069
   26 Stretch                 24    26                       1.09119
   27 Stretch                 24    27                       1.53500
   28 Stretch                 27    28                       1.09111
   29 Stretch                 27    29                       1.54463
   30 Stretch                 29    30                       1.22481
   31 Stretch                 29    31                       1.32518
   32 Stretch                 31    32                       1.01131
   33 Stretch                 31    33                       1.00656
   34 Bend                     1     2     3               110.03636
   35 Bend                     1     2     4               109.60264
   36 Bend                     1     2     5               109.35616
   37 Bend                     2     5     6               120.17796
   38 Bend                     2     5     7               116.54790
   39 Bend                     3     2     4               109.60229
   40 Bend                     3     2     5               109.34981
   41 Bend                     4     2     5               108.87320
   42 Bend                     5     7     8               118.65139
   43 Bend                     5     7     9               124.59310
   44 Bend                     6     5     7               123.27354
   45 Bend                     7     9    10               108.39236
   46 Bend                     7     9    11               108.48617
   47 Bend                     7     9    15               110.88161
   48 Bend                     8     7     9               116.73262
   49 Bend                     9    11    12               109.69751
   50 Bend                     9    11    13               109.93465
   51 Bend                     9    11    14               110.21820
   52 Bend                     9    15    16               119.00653
   53 Bend                     9    15    17               119.56358
   54 Bend                    10     9    11               108.58427
   55 Bend                    10     9    15               108.89248
   56 Bend                    11     9    15               111.52602
   57 Bend                    12    11    13               109.18997
   58 Bend                    12    11    14               108.73241
   59 Bend                    13    11    14               109.04171
   60 Bend                    15    17    18               125.88083
   61 Bend                    15    17    27               124.18982
   62 Bend                    16    15    17               121.42231
   63 Bend                    17    18    19               111.62865
   64 Bend                    17    18    20               109.35461
   65 Bend                    17    18    21               106.22454
   66 Bend                    17    27    24               104.54075
   67 Bend                    17    27    28               109.76837
   68 Bend                    17    27    29               112.20977
   69 Bend                    18    17    27               109.84257
   70 Bend                    18    21    22               109.79148
   71 Bend                    18    21    23               111.76134
   72 Bend                    18    21    24               102.61672
   73 Bend                    19    18    20               110.19343
   74 Bend                    19    18    21               109.91706
   75 Bend                    20    18    21               109.43015
   76 Bend                    21    24    25               112.15082
   77 Bend                    21    24    26               109.33416
   78 Bend                    21    24    27               102.72534
   79 Bend                    22    21    23               110.67649
   80 Bend                    22    21    24               109.87353
   81 Bend                    23    21    24               111.84749
   82 Bend                    24    27    28               108.68437
   83 Bend                    24    27    29               113.78174
   84 Bend                    25    24    26               109.81692
   85 Bend                    25    24    27               113.18388
   86 Bend                    26    24    27               109.38598
   87 Bend                    27    29    30               122.08432
   88 Bend                    27    29    31               117.99415
   89 Bend                    28    27    29               107.77564
   90 Bend                    29    31    32               119.39679
   91 Bend                    29    31    33               118.49774
   92 Bend                    30    29    31               119.90421
   93 Bend                    32    31    33               122.09009
   94 Torsion                  1     2     5     6         119.77290
   95 Torsion                  1     2     5     7         -59.95467
   96 Torsion                  2     5     7     8           1.59340
   97 Torsion                  2     5     7     9         179.79279
   98 Torsion                  3     2     5     6        -119.67988
   99 Torsion                  3     2     5     7          60.59255
  100 Torsion                  4     2     5     6           0.04441
  101 Torsion                  4     2     5     7        -179.68316
  102 Torsion                  5     7     9    10         -30.60929
  103 Torsion                  5     7     9    11          87.12000
  104 Torsion                  5     7     9    15        -150.08542
  105 Torsion                  6     5     7     8        -178.12492
  106 Torsion                  6     5     7     9           0.07447
  107 Torsion                  7     9    11    12         -59.59445
  108 Torsion                  7     9    11    13          60.48651
  109 Torsion                  7     9    11    14        -179.28763
  110 Torsion                  7     9    15    16         -27.78997
  111 Torsion                  7     9    15    17         153.19755
  112 Torsion                  8     7     9    10         147.62149
  113 Torsion                  8     7     9    11         -94.64923
  114 Torsion                  8     7     9    15          28.14535
  115 Torsion                  9    15    17    18          -4.41283
  116 Torsion                  9    15    17    27         179.32298
  117 Torsion                 10     9    11    12          58.01244
  118 Torsion                 10     9    11    13         178.09340
  119 Torsion                 10     9    11    14         -61.68074
  120 Torsion                 10     9    15    16        -146.96577
  121 Torsion                 10     9    15    17          34.02175
  122 Torsion                 11     9    15    16          93.22660
  123 Torsion                 11     9    15    17         -85.78588
  124 Torsion                 12    11     9    15         178.00190
  125 Torsion                 13    11     9    15         -61.91713
  126 Torsion                 14    11     9    15          58.30873
  127 Torsion                 15    17    18    19          56.67629
  128 Torsion                 15    17    18    20         -65.52243
  129 Torsion                 15    17    18    21         176.48072
  130 Torsion                 15    17    27    24         160.07552
  131 Torsion                 15    17    27    28          43.65856
  132 Torsion                 15    17    27    29         -76.15280
  133 Torsion                 16    15    17    18         176.59924
  134 Torsion                 16    15    17    27           0.33505
  135 Torsion                 17    18    21    22         -89.32996
  136 Torsion                 17    18    21    23         147.46059
  137 Torsion                 17    18    21    24          27.46332
  138 Torsion                 17    27    24    21          33.34032
  139 Torsion                 17    27    24    25         154.48563
  140 Torsion                 17    27    24    26         -82.71747
  141 Torsion                 17    27    29    30        -113.65203
  142 Torsion                 17    27    29    31          64.83161
  143 Torsion                 18    17    27    24         -16.70713
  144 Torsion                 18    17    27    28        -133.12408
  145 Torsion                 18    17    27    29         107.06455
  146 Torsion                 18    21    24    25        -158.72008
  147 Torsion                 18    21    24    26          79.22436
  148 Torsion                 18    21    24    27         -36.87062
  149 Torsion                 19    18    17    27        -126.60842
  150 Torsion                 19    18    21    22          31.58296
  151 Torsion                 19    18    21    23         -91.62649
  152 Torsion                 19    18    21    24         148.37624
  153 Torsion                 20    18    17    27         111.19287
  154 Torsion                 20    18    21    22         152.72325
  155 Torsion                 20    18    21    23          29.51380
  156 Torsion                 20    18    21    24         -90.48347
  157 Torsion                 21    18    17    27          -6.80399
  158 Torsion                 21    24    27    28         150.50597
  159 Torsion                 21    24    27    29         -89.41431
  160 Torsion                 22    21    24    25         -41.98547
  161 Torsion                 22    21    24    26        -164.04103
  162 Torsion                 22    21    24    27          79.86399
  163 Torsion                 23    21    24    25          81.34243
  164 Torsion                 23    21    24    26         -40.71313
  165 Torsion                 23    21    24    27        -156.80812
  166 Torsion                 24    27    29    30           4.79040
  167 Torsion                 24    27    29    31        -176.72596
  168 Torsion                 25    24    27    28         -88.34871
  169 Torsion                 25    24    27    29          31.73101
  170 Torsion                 26    24    27    28          34.44819
  171 Torsion                 26    24    27    29         154.52791
  172 Torsion                 27    29    31    32          -0.92417
  173 Torsion                 27    29    31    33        -179.52750
  174 Torsion                 28    27    29    30         125.38159
  175 Torsion                 28    27    29    31         -56.13477
  176 Torsion                 30    29    31    32         177.59375
  177 Torsion                 30    29    31    33          -1.00958


            XYZ format geometry
            -------------------
    33
 geometry
 H                    -0.97922792    -4.63682412     1.86507428
 C                    -0.73436359    -4.92261835     0.84349604
 H                    -1.64612674    -5.07583007     0.27070364
 H                    -0.14873979    -5.84163377     0.85133262
 C                     0.08329433    -3.82758087     0.19951587
 O                     1.21187172    -4.06246300    -0.20934531
 N                    -0.48899926    -2.62814219     0.11623988
 H                    -1.41287565    -2.50525449     0.50195485
 C                     0.14311588    -1.44471662    -0.46823884
 H                     1.22001927    -1.51714298    -0.31181786
 C                    -0.13315435    -1.44125304    -1.98043881
 H                     0.27510929    -2.34754172    -2.43104132
 H                    -1.20778169    -1.40343111    -2.16198653
 H                     0.33698535    -0.57590200    -2.44722918
 C                    -0.37451916    -0.15460097     0.20547072
 O                    -1.50803838    -0.14761804     0.69321494
 N                     0.41005598     0.94447246     0.23157506
 C                     1.78559165     1.02556729    -0.25103683
 H                     1.86218126     0.73090525    -1.29749433
 H                     2.42327220     0.39149508     0.36631716
 C                     2.21003455     2.48577681    -0.08856716
 H                     1.95810055     3.04604825    -0.98976979
 H                     3.27338972     2.57512607     0.13567044
 C                     1.34149124     2.95817408     1.07661065
 H                     1.23404269     4.04339044     1.09587898
 H                     1.77750557     2.61287783     2.01541787
 C                     0.01623441     2.22398655     0.82985366
 H                    -0.47002308     2.04799742     1.79063328
 C                    -0.97236639     3.00618997    -0.06273318
 O                    -0.67087077     4.06942149    -0.59074845
 N                    -2.16929381     2.47880108    -0.27562450
 H                    -2.39707091     1.58287717     0.13447663
 H                    -2.81695249     2.97865053    -0.86201580

 ==============================================================================
                                internuclear distances
 ------------------------------------------------------------------------------
       center one      |      center two      | atomic units |  angstroms
 ------------------------------------------------------------------------------
    2 C                |   1 H                |     2.05734  |     1.08870
    3 H                |   2 C                |     2.05527  |     1.08760
    4 H                |   2 C                |     2.05937  |     1.08977
    5 C                |   2 C                |     2.85491  |     1.51076
    6 O                |   5 C                |     2.31136  |     1.22312
    7 N                |   5 C                |     2.51632  |     1.33158
    8 H                |   7 N                |     1.90612  |     1.00867
    9 C                |   7 N                |     2.76552  |     1.46345
   10 H                |   9 C                |     2.06096  |     1.09061
   11 C                |   9 C                |     2.90495  |     1.53723
   12 H                |  11 C                |     2.06238  |     1.09137
   13 H                |  11 C                |     2.06077  |     1.09051
   14 H                |  11 C                |     2.05950  |     1.08984
   15 C                |   9 C                |     2.91914  |     1.54474
   16 O                |  15 C                |     2.33196  |     1.23402
   17 N                |  15 C                |     2.55232  |     1.35063
   18 C                |  17 N                |     2.75899  |     1.46000
   19 H                |  18 C                |     2.05951  |     1.08985
   20 H                |  18 C                |     2.06128  |     1.09078
   21 C                |  18 C                |     2.88996  |     1.52930
   22 H                |  21 C                |     2.06105  |     1.09066
   23 H                |  21 C                |     2.06057  |     1.09041
   24 C                |  21 C                |     2.88774  |     1.52812
   25 H                |  24 C                |     2.06111  |     1.09069
   26 H                |  24 C                |     2.06205  |     1.09119
   27 C                |  17 N                |     2.77100  |     1.46635
   27 C                |  24 C                |     2.90073  |     1.53500
   28 H                |  27 C                |     2.06189  |     1.09111
   29 C                |  27 C                |     2.91893  |     1.54463
   30 O                |  29 C                |     2.31456  |     1.22481
   31 N                |  29 C                |     2.50422  |     1.32518
   32 H                |  31 N                |     1.91110  |     1.01131
   33 H                |  31 N                |     1.90213  |     1.00656
 ------------------------------------------------------------------------------
                         number of included internuclear distances:         33
 ==============================================================================



 ==============================================================================
                                 internuclear angles
 ------------------------------------------------------------------------------
        center 1       |       center 2       |       center 3       |  degrees
 ------------------------------------------------------------------------------
    1 H                |   2 C                |   3 H                |   110.04
    1 H                |   2 C                |   4 H                |   109.60
    1 H                |   2 C                |   5 C                |   109.36
    3 H                |   2 C                |   4 H                |   109.60
    3 H                |   2 C                |   5 C                |   109.35
    4 H                |   2 C                |   5 C                |   108.87
    2 C                |   5 C                |   6 O                |   120.18
    2 C                |   5 C                |   7 N                |   116.55
    6 O                |   5 C                |   7 N                |   123.27
    5 C                |   7 N                |   8 H                |   118.65
    5 C                |   7 N                |   9 C                |   124.59
    8 H                |   7 N                |   9 C                |   116.73
    7 N                |   9 C                |  10 H                |   108.39
    7 N                |   9 C                |  11 C                |   108.49
    7 N                |   9 C                |  15 C                |   110.88
   10 H                |   9 C                |  11 C                |   108.58
   10 H                |   9 C                |  15 C                |   108.89
   11 C                |   9 C                |  15 C                |   111.53
    9 C                |  11 C                |  12 H                |   109.70
    9 C                |  11 C                |  13 H                |   109.93
    9 C                |  11 C                |  14 H                |   110.22
   12 H                |  11 C                |  13 H                |   109.19
   12 H                |  11 C                |  14 H                |   108.73
   13 H                |  11 C                |  14 H                |   109.04
    9 C                |  15 C                |  16 O                |   119.01
    9 C                |  15 C                |  17 N                |   119.56
   16 O                |  15 C                |  17 N                |   121.42
   15 C                |  17 N                |  18 C                |   125.88
   15 C                |  17 N                |  27 C                |   124.19
   18 C                |  17 N                |  27 C                |   109.84
   17 N                |  18 C                |  19 H                |   111.63
   17 N                |  18 C                |  20 H                |   109.35
   17 N                |  18 C                |  21 C                |   106.22
   19 H                |  18 C                |  20 H                |   110.19
   19 H                |  18 C                |  21 C                |   109.92
   20 H                |  18 C                |  21 C                |   109.43
   18 C                |  21 C                |  22 H                |   109.79
   18 C                |  21 C                |  23 H                |   111.76
   18 C                |  21 C                |  24 C                |   102.62
   22 H                |  21 C                |  23 H                |   110.68
   22 H                |  21 C                |  24 C                |   109.87
   23 H                |  21 C                |  24 C                |   111.85
   21 C                |  24 C                |  25 H                |   112.15
   21 C                |  24 C                |  26 H                |   109.33
   21 C                |  24 C                |  27 C                |   102.73
   25 H                |  24 C                |  26 H                |   109.82
   25 H                |  24 C                |  27 C                |   113.18
   26 H                |  24 C                |  27 C                |   109.39
   17 N                |  27 C                |  24 C                |   104.54
   17 N                |  27 C                |  28 H                |   109.77
   17 N                |  27 C                |  29 C                |   112.21
   24 C                |  27 C                |  28 H                |   108.68
   24 C                |  27 C                |  29 C                |   113.78
   28 H                |  27 C                |  29 C                |   107.78
   27 C                |  29 C                |  30 O                |   122.08
   27 C                |  29 C                |  31 N                |   117.99
   30 O                |  29 C                |  31 N                |   119.90
   29 C                |  31 N                |  32 H                |   119.40
   29 C                |  31 N                |  33 H                |   118.50
   32 H                |  31 N                |  33 H                |   122.09
 ------------------------------------------------------------------------------
                            number of included internuclear angles:         60
 ==============================================================================



  library name resolved from: environment
  library file name is: </opt/rit/el9/20230413/app/linux-rhel9-x86_64_v3/gcc-11.2.1/nwchem-7.2.0-oxtctbuhfuzyfaoziquq6bki22grib3g/share/nwchem/libraries/>
  


 Summary of "ao basis" -> "" (cartesian)
 ------------------------------------------------------------------------------
       Tag                 Description            Shells   Functions and Types
 ---------------- ------------------------------  ------  ---------------------
 *                        aug-cc-pvdz                 on all atoms 


                      Basis "ao basis" -> "ao basis" (cartesian)
                      -----
  H (Hydrogen)
  ------------
            Exponent  Coefficients 
       -------------- ---------------------------------------------------------
  1 S  1.30100000E+01  0.019685
  1 S  1.96200000E+00  0.137977
  1 S  4.44600000E-01  0.478148

  2 S  1.22000000E-01  1.000000

  3 S  2.97400000E-02  1.000000

  4 P  7.27000000E-01  1.000000

  5 P  1.41000000E-01  1.000000

  C (Carbon)
  ----------
            Exponent  Coefficients 
       -------------- ---------------------------------------------------------
  1 S  6.66500000E+03  0.000692
  1 S  1.00000000E+03  0.005329
  1 S  2.28000000E+02  0.027077
  1 S  6.47100000E+01  0.101718
  1 S  2.10600000E+01  0.274740
  1 S  7.49500000E+00  0.448564
  1 S  2.79700000E+00  0.285074
  1 S  5.21500000E-01  0.015204

  2 S  6.66500000E+03 -0.000146
  2 S  1.00000000E+03 -0.001154
  2 S  2.28000000E+02 -0.005725
  2 S  6.47100000E+01 -0.023312
  2 S  2.10600000E+01 -0.063955
  2 S  7.49500000E+00 -0.149981
  2 S  2.79700000E+00 -0.127262
  2 S  5.21500000E-01  0.544529

  3 S  1.59600000E-01  1.000000

  4 S  4.69000000E-02  1.000000

  5 P  9.43900000E+00  0.038109
  5 P  2.00200000E+00  0.209480
  5 P  5.45600000E-01  0.508557

  6 P  1.51700000E-01  1.000000

  7 P  4.04100000E-02  1.000000

  8 D  5.50000000E-01  1.000000

  9 D  1.51000000E-01  1.000000

  O (Oxygen)
  ----------
            Exponent  Coefficients 
       -------------- ---------------------------------------------------------
  1 S  1.17200000E+04  0.000710
  1 S  1.75900000E+03  0.005470
  1 S  4.00800000E+02  0.027837
  1 S  1.13700000E+02  0.104800
  1 S  3.70300000E+01  0.283062
  1 S  1.32700000E+01  0.448719
  1 S  5.02500000E+00  0.270952
  1 S  1.01300000E+00  0.015458

  2 S  1.17200000E+04 -0.000160
  2 S  1.75900000E+03 -0.001263
  2 S  4.00800000E+02 -0.006267
  2 S  1.13700000E+02 -0.025716
  2 S  3.70300000E+01 -0.070924
  2 S  1.32700000E+01 -0.165411
  2 S  5.02500000E+00 -0.116955
  2 S  1.01300000E+00  0.557368

  3 S  3.02300000E-01  1.000000

  4 S  7.89600000E-02  1.000000

  5 P  1.77000000E+01  0.043018
  5 P  3.85400000E+00  0.228913
  5 P  1.04600000E+00  0.508728

  6 P  2.75300000E-01  1.000000

  7 P  6.85600000E-02  1.000000

  8 D  1.18500000E+00  1.000000

  9 D  3.32000000E-01  1.000000

  N (Nitrogen)
  ------------
            Exponent  Coefficients 
       -------------- ---------------------------------------------------------
  1 S  9.04600000E+03  0.000700
  1 S  1.35700000E+03  0.005389
  1 S  3.09300000E+02  0.027406
  1 S  8.77300000E+01  0.103207
  1 S  2.85600000E+01  0.278723
  1 S  1.02100000E+01  0.448540
  1 S  3.83800000E+00  0.278238
  1 S  7.46600000E-01  0.015440

  2 S  9.04600000E+03 -0.000153
  2 S  1.35700000E+03 -0.001208
  2 S  3.09300000E+02 -0.005992
  2 S  8.77300000E+01 -0.024544
  2 S  2.85600000E+01 -0.067459
  2 S  1.02100000E+01 -0.158078
  2 S  3.83800000E+00 -0.121831
  2 S  7.46600000E-01  0.549003

  3 S  2.24800000E-01  1.000000

  4 S  6.12400000E-02  1.000000

  5 P  1.35500000E+01  0.039919
  5 P  2.91700000E+00  0.217169
  5 P  7.97300000E-01  0.510319

  6 P  2.18500000E-01  1.000000

  7 P  5.61100000E-02  1.000000

  8 D  8.17000000E-01  1.000000

  9 D  2.30000000E-01  1.000000



 Summary of "ao basis" -> "ao basis" (cartesian)
 ------------------------------------------------------------------------------
       Tag                 Description            Shells   Functions and Types
 ---------------- ------------------------------  ------  ---------------------
 H                        aug-cc-pvdz                5        9   3s2p
 C                        aug-cc-pvdz                9       25   4s3p2d
 O                        aug-cc-pvdz                9       25   4s3p2d
 N                        aug-cc-pvdz                9       25   4s3p2d


                                 NWChem SCF Module
                                 -----------------



  ao basis        = "ao basis"
  functions       =   553
  atoms           =    33
  closed shells   =    61
  open shells     =     0
  charge          =   0.00
  wavefunction    = RHF 
  input vectors   = atomic
  output vectors  = ./ALA_PRO_0.movecs
  use symmetry    = F
  symmetry adapt  = F


 Summary of "ao basis" -> "ao basis" (cartesian)
 ------------------------------------------------------------------------------
       Tag                 Description            Shells   Functions and Types
 ---------------- ------------------------------  ------  ---------------------
 H                        aug-cc-pvdz                5        9   3s2p
 C                        aug-cc-pvdz                9       25   4s3p2d
 O                        aug-cc-pvdz                9       25   4s3p2d
 N                        aug-cc-pvdz                9       25   4s3p2d



 Forming initial guess at       1.0s


 !! The overlap matrix has   5 vectors deemed linearly dependent with
    eigenvalues:
 2.34D-06 5.31D-06 5.99D-06 7.80D-06 9.31D-06


      Superposition of Atomic Density Guess
      -------------------------------------

 Sum of atomic energies:        -772.36748674

      Non-variational initial energy
      ------------------------------

 Total energy =    -783.173751
 1-e energy   =   -3374.568232
 2-e energy   =    1420.403327
 HOMO         =      -0.282818
 LUMO         =       0.004339


 Starting SCF solution at     233.4s



 ----------------------------------------------
         Quadratically convergent ROHF

 Convergence threshold     :          1.000E-04
 Maximum no. of iterations :           30
 Final Fock-matrix accuracy:          1.000E-10
 ----------------------------------------------


              iter       energy          gnorm     gmax       time
             ----- ------------------- --------- --------- --------
                 1     -776.3188712908  2.40D+00  1.42D-01    481.1
                 2     -776.6269719413  8.19D-01  5.00D-02    997.6
                 3     -776.6862863594  6.34D-02  5.05D-03   1708.8
                 4     -776.6869113070  1.83D-03  8.71D-05   2862.7
                 5     -776.6869117468  5.07D-06  3.21D-07   4532.5


       Final RHF  results 
       ------------------ 

         Total SCF energy =   -776.686911746784
      One-electron energy =  -3385.849580837858
      Two-electron energy =   1438.171514789370
 Nuclear repulsion energy =   1170.991154301703

        Time for solution =   4303.4s


             Final eigenvalues
             -----------------

              1      
    1  -20.5529
    2  -20.5240
    3  -20.5225
    4  -15.6220
    5  -15.5985
    6  -15.5846
    7  -11.3842
    8  -11.3559
    9  -11.3548
   10  -11.3071
   11  -11.3007
   12  -11.2889
   13  -11.2471
   14  -11.2458
   15  -11.2441
   16  -11.2427
   17   -1.4129
   18   -1.3860
   19   -1.3843
   20   -1.2873
   21   -1.2471
   22   -1.2148
   23   -1.0983
   24   -1.0606
   25   -1.0291
   26   -0.9937
   27   -0.9257
   28   -0.8872
   29   -0.8464
   30   -0.8120
   31   -0.7929
   32   -0.7635
   33   -0.7360
   34   -0.7320
   35   -0.6955
   36   -0.6821
   37   -0.6654
   38   -0.6554
   39   -0.6392
   40   -0.6364
   41   -0.6218
   42   -0.6035
   43   -0.5943
   44   -0.5877
   45   -0.5777
   46   -0.5706
   47   -0.5671
   48   -0.5573
   49   -0.5405
   50   -0.5379
   51   -0.5317
   52   -0.5099
   53   -0.5030
   54   -0.4976
   55   -0.4950
   56   -0.4481
   57   -0.4369
   58   -0.4205
   59   -0.4063
   60   -0.3993
   61   -0.3869
   62    0.0296
   63    0.0344
   64    0.0387
   65    0.0418
   66    0.0515
   67    0.0534
   68    0.0557
   69    0.0580
   70    0.0637
   71    0.0707

                       ROHF Final Molecular Orbital Analysis
                       -------------------------------------

 Vector   17  Occ=2.000000D+00  E=-1.412938D+00
              MO Center= -9.2D-01,  1.1D-02,  4.6D-01, r^2= 1.6D+00
   Bfn.  Coefficient  Atom+Function         Bfn.  Coefficient  Atom+Function  
  ----- ------------  ---------------      ----- ------------  ---------------
   250      0.368363  16 O  s               249      0.339367  16 O  s         
   224      0.235304  15 C  s               145      0.156341   9 C  py        
   139      0.150587   9 C  s         

 Vector   18  Occ=2.000000D+00  E=-1.385958D+00
              MO Center= -3.6D-01,  1.0D+00, -2.7D-01, r^2= 1.4D+01
   Bfn.  Coefficient  Atom+Function         Bfn.  Coefficient  Atom+Function  
  ----- ------------  ---------------      ----- ------------  ---------------
   488      0.305110  30 O  s               487      0.284809  30 O  s         
    79     -0.202309   6 O  s                80     -0.202666   6 O  s         
   462      0.199333  29 C  s         

 Vector   19  Occ=2.000000D+00  E=-1.384342D+00
              MO Center=  1.1D-01, -1.3D+00, -1.4D-01, r^2= 1.3D+01
   Bfn.  Coefficient  Atom+Function         Bfn.  Coefficient  Atom+Function  
  ----- ------------  ---------------      ----- ------------  ---------------
    79      0.280893   6 O  s                80      0.282219   6 O  s         
   488      0.217777  30 O  s               487      0.201329  30 O  s         
    54      0.197767   5 C  s         

 Vector   20  Occ=2.000000D+00  E=-1.287270D+00
              MO Center=  3.0D-01,  1.0D+00,  2.8D-01, r^2= 2.0D+00
   Bfn.  Coefficient  Atom+Function         Bfn.  Coefficient  Atom+Function  
  ----- ------------  ---------------      ----- ------------  ---------------
   275      0.375398  17 N  s               274      0.316522  17 N  s         
   250     -0.207575  16 O  s               249     -0.171186  16 O  s         
   139      0.169525   9 C  s         

 Vector   21  Occ=2.000000D+00  E=-1.247128D+00
              MO Center= -1.8D-01, -2.7D+00,  1.6D-02, r^2= 1.8D+00
   Bfn.  Coefficient  Atom+Function         Bfn.  Coefficient  Atom+Function  
  ----- ------------  ---------------      ----- ------------  ---------------
   105      0.454506   7 N  s               104      0.342157   7 N  s         
    80     -0.214671   6 O  s                79     -0.186345   6 O  s         
   128      0.152756   8 H  s         

 Vector   22  Occ=2.000000D+00  E=-1.214846D+00
              MO Center= -1.8D+00,  2.7D+00, -2.6D-01, r^2= 1.4D+00
   Bfn.  Coefficient  Atom+Function         Bfn.  Coefficient  Atom+Function  
  ----- ------------  ---------------      ----- ------------  ---------------
   513      0.387467  31 N  s               512      0.369878  31 N  s         
   488     -0.219755  30 O  s               487     -0.180872  30 O  s         
   536      0.164484  32 H  s               545      0.157106  33 H  s         
   465     -0.155090  29 C  px              466     -0.150584  29 C  py        

 Vector   23  Occ=2.000000D+00  E=-1.098261D+00
              MO Center=  8.6D-01,  1.3D+00,  2.9D-01, r^2= 5.3D+00
   Bfn.  Coefficient  Atom+Function         Bfn.  Coefficient  Atom+Function  
  ----- ------------  ---------------      ----- ------------  ---------------
   385      0.209335  24 C  s               342      0.192133  21 C  s         

 Vector   24  Occ=2.000000D+00  E=-1.060630D+00
              MO Center=  2.5D-01, -1.2D+00, -3.7D-01, r^2= 7.4D+00
   Bfn.  Coefficient  Atom+Function         Bfn.  Coefficient  Atom+Function  
  ----- ------------  ---------------      ----- ------------  ---------------
   138      0.213258   9 C  s               300      0.208151  18 C  s         
   172      0.189925  11 C  s                12     -0.155212   2 C  s         

 Vector   25  Occ=2.000000D+00  E=-1.029079D+00
              MO Center=  7.2D-01,  1.5D+00,  2.4D-01, r^2= 5.1D+00
   Bfn.  Coefficient  Atom+Function         Bfn.  Coefficient  Atom+Function  
  ----- ------------  ---------------      ----- ------------  ---------------
   428     -0.251111  27 C  s               299      0.237185  18 C  s         
   300      0.171895  18 C  s         

 Vector   26  Occ=2.000000D+00  E=-9.936997D-01
              MO Center= -4.7D-01, -3.8D+00,  2.3D-01, r^2= 5.1D+00
   Bfn.  Coefficient  Atom+Function         Bfn.  Coefficient  Atom+Function  
  ----- ------------  ---------------      ----- ------------  ---------------
    11      0.317581   2 C  s               146     -0.192244   9 C  pz        
   225      0.177904  15 C  s                56     -0.168420   5 C  s         
    55      0.162235   5 C  s               172      0.161949  11 C  s         

 Vector   27  Occ=2.000000D+00  E=-9.257279D-01
              MO Center=  4.5D-01,  5.1D-01, -2.4D-01, r^2= 6.7D+00
   Bfn.  Coefficient  Atom+Function         Bfn.  Coefficient  Atom+Function  
  ----- ------------  ---------------      ----- ------------  ---------------
   146      0.227414   9 C  pz              139      0.223160   9 C  s         
   172     -0.189884  11 C  s               224      0.180223  15 C  s         
   231      0.176291  15 C  py              145      0.170170   9 C  py        
   385      0.165582  24 C  s               250     -0.155135  16 O  s         
   278     -0.152806  17 N  py              434      0.150147  27 C  px        

 Vector   28  Occ=2.000000D+00  E=-8.872326D-01
              MO Center=  3.9D-02, -2.0D-01, -3.6D-01, r^2= 8.4D+00
   Bfn.  Coefficient  Atom+Function         Bfn.  Coefficient  Atom+Function  
  ----- ------------  ---------------      ----- ------------  ---------------
   146      0.233482   9 C  pz              225     -0.228356  15 C  s         
   172     -0.182715  11 C  s               228     -0.164649  15 C  py        
   138      0.154777   9 C  s               108      0.150123   7 N  py        

 Vector   29  Occ=2.000000D+00  E=-8.463719D-01
              MO Center=  5.4D-01,  2.1D+00,  1.2D-01, r^2= 5.7D+00
   Bfn.  Coefficient  Atom+Function         Bfn.  Coefficient  Atom+Function  
  ----- ------------  ---------------      ----- ------------  ---------------
   429      0.447608  27 C  s               343      0.249070  21 C  s         
   386     -0.246292  24 C  s               342      0.207195  21 C  s         
   300     -0.195348  18 C  s               436     -0.177246  27 C  pz        
   468     -0.169814  29 C  px              277     -0.160924  17 N  px        
   515      0.157641  31 N  px              462      0.155588  29 C  s         

 Vector   30  Occ=2.000000D+00  E=-8.119785D-01
              MO Center=  3.1D-01,  2.8D-02,  1.8D-01, r^2= 9.9D+00
   Bfn.  Coefficient  Atom+Function         Bfn.  Coefficient  Atom+Function  
  ----- ------------  ---------------      ----- ------------  ---------------
   300      0.452217  18 C  s               343     -0.413936  21 C  s         
   139      0.224504   9 C  s               386      0.206887  24 C  s         
   108     -0.198975   7 N  py              435      0.192420  27 C  py        
   231      0.163385  15 C  py              278     -0.155990  17 N  py        

 Vector   31  Occ=2.000000D+00  E=-7.928561D-01
              MO Center= -2.7D-01, -1.2D+00, -1.8D-02, r^2= 7.5D+00
   Bfn.  Coefficient  Atom+Function         Bfn.  Coefficient  Atom+Function  
  ----- ------------  ---------------      ----- ------------  ---------------
   128     -0.273947   8 H  s               107      0.271573   7 N  px        
   105     -0.224428   7 N  s                55      0.222921   5 C  s         
   386     -0.189824  24 C  s               139      0.181164   9 C  s         
   163      0.177115  10 H  s               162      0.156582  10 H  s         
   158     -0.155271   9 C  dxz             146      0.153546   9 C  pz        

 Vector   32  Occ=2.000000D+00  E=-7.634574D-01
              MO Center= -7.5D-01,  1.8D+00,  1.2D-02, r^2= 5.7D+00
   Bfn.  Coefficient  Atom+Function         Bfn.  Coefficient  Atom+Function  
  ----- ------------  ---------------      ----- ------------  ---------------
   536      0.228965  32 H  s               515     -0.214807  31 N  px        
   516     -0.215427  31 N  py              463     -0.205983  29 C  s         
   465      0.186615  29 C  px              386     -0.174070  24 C  s         
   300      0.168620  18 C  s         

 Vector   33  Occ=2.000000D+00  E=-7.359800D-01
              MO Center= -8.8D-01,  1.3D+00,  2.3D-01, r^2= 7.1D+00
   Bfn.  Coefficient  Atom+Function         Bfn.  Coefficient  Atom+Function  
  ----- ------------  ---------------      ----- ------------  ---------------
   516      0.218659  31 N  py              343      0.207973  21 C  s         
   545      0.205569  33 H  s               536     -0.193494  32 H  s         
   464     -0.177703  29 C  s               252      0.160612  16 O  px        

 Vector   34  Occ=2.000000D+00  E=-7.319642D-01
              MO Center=  2.8D-01,  9.3D-02,  2.4D-01, r^2= 8.0D+00
   Bfn.  Coefficient  Atom+Function         Bfn.  Coefficient  Atom+Function  
  ----- ------------  ---------------      ----- ------------  ---------------
   300      0.430000  18 C  s               343     -0.333662  21 C  s         
   225      0.296321  15 C  s               145     -0.223789   9 C  py        
   228      0.179717  15 C  py              306      0.173236  18 C  py        
   142     -0.171378   9 C  py              275     -0.165929  17 N  s         
   349      0.152949  21 C  py        

 Vector   35  Occ=2.000000D+00  E=-6.955078D-01
              MO Center= -3.8D-01,  1.3D+00, -7.5D-02, r^2= 1.0D+01
   Bfn.  Coefficient  Atom+Function         Bfn.  Coefficient  Atom+Function  
  ----- ------------  ---------------      ----- ------------  ---------------
   429      0.325258  27 C  s               545      0.235722  33 H  s         
   435      0.187222  27 C  py              386     -0.176843  24 C  s         
   139      0.173415   9 C  s               546      0.168856  33 H  s         
   517     -0.166916  31 N  pz              515     -0.158081  31 N  px        
   304     -0.150673  18 C  pz              516      0.150542  31 N  py        

 Vector   36  Occ=2.000000D+00  E=-6.820568D-01
              MO Center= -5.6D-01, -6.7D-01,  1.6D-01, r^2= 6.0D+00
   Bfn.  Coefficient  Atom+Function         Bfn.  Coefficient  Atom+Function  
  ----- ------------  ---------------      ----- ------------  ---------------
   252      0.266602  16 O  px              250     -0.215804  16 O  s         
   227     -0.203223  15 C  px              386      0.200028  24 C  s         
   141     -0.178439   9 C  px              162     -0.157829  10 H  s         
   254     -0.157518  16 O  pz        

 Vector   37  Occ=2.000000D+00  E=-6.653742D-01
              MO Center=  2.1D-01, -3.0D+00,  8.5D-02, r^2= 6.8D+00
   Bfn.  Coefficient  Atom+Function         Bfn.  Coefficient  Atom+Function  
  ----- ------------  ---------------      ----- ------------  ---------------
    82      0.273773   6 O  px               58      0.240971   5 C  py        
    80      0.231801   6 O  s                12     -0.184028   2 C  s         
    14     -0.162517   2 C  px              108     -0.152899   7 N  py        

 Vector   38  Occ=2.000000D+00  E=-6.554328D-01
              MO Center=  4.3D-01,  2.0D+00, -2.9D-01, r^2= 5.8D+00
   Bfn.  Coefficient  Atom+Function         Bfn.  Coefficient  Atom+Function  
  ----- ------------  ---------------      ----- ------------  ---------------
   304      0.246005  18 C  pz              323     -0.200736  19 H  s         
   465      0.199133  29 C  px              491     -0.194390  30 O  py        
   324     -0.190023  19 H  s               139     -0.169321   9 C  s         
   173      0.167607  11 C  s               488     -0.165758  30 O  s         
    13      0.162527   2 C  s               492      0.154902  30 O  pz        

 Vector   39  Occ=2.000000D+00  E=-6.392104D-01
              MO Center=  2.5D-03, -1.8D-01,  3.9D-02, r^2= 8.5D+00
   Bfn.  Coefficient  Atom+Function         Bfn.  Coefficient  Atom+Function  
  ----- ------------  ---------------      ----- ------------  ---------------
   343      0.343455  21 C  s               386     -0.267673  24 C  s         
   300     -0.214680  18 C  s               275      0.179426  17 N  s         
   435      0.165649  27 C  py              433      0.162597  27 C  pz        
   141     -0.157229   9 C  px              162     -0.155852  10 H  s         
   277      0.156570  17 N  px        

 Vector   40  Occ=2.000000D+00  E=-6.364342D-01
              MO Center= -6.7D-02, -2.0D+00, -1.3D-01, r^2= 8.5D+00
   Bfn.  Coefficient  Atom+Function         Bfn.  Coefficient  Atom+Function  
  ----- ------------  ---------------      ----- ------------  ---------------
   173      0.388738  11 C  s               139     -0.351332   9 C  s         
   146      0.172281   9 C  pz              177     -0.172114  11 C  pz        
    84      0.158386   6 O  pz              109      0.156844   7 N  pz        
   143      0.155892   9 C  pz        

 Vector   41  Occ=2.000000D+00  E=-6.217801D-01
              MO Center=  8.0D-02, -9.8D-01,  1.4D-01, r^2= 1.2D+01
   Bfn.  Coefficient  Atom+Function         Bfn.  Coefficient  Atom+Function  
  ----- ------------  ---------------      ----- ------------  ---------------
   139      0.365454   9 C  s                16     -0.186769   2 C  pz        
    56      0.184220   5 C  s               252      0.170563  16 O  px        
   197      0.163502  12 H  s               173     -0.162407  11 C  s         
   225     -0.159018  15 C  s               231      0.155199  15 C  py        
   229      0.151522  15 C  pz                1     -0.150753   1 H  s         

 Vector   42  Occ=2.000000D+00  E=-6.035356D-01
              MO Center=  2.4D-01,  2.7D+00,  4.2D-02, r^2= 5.3D+00
   Bfn.  Coefficient  Atom+Function         Bfn.  Coefficient  Atom+Function  
  ----- ------------  ---------------      ----- ------------  ---------------
   343      0.269530  21 C  s               491     -0.239095  30 O  py        
   148     -0.235515   9 C  py              466      0.235091  29 C  py        
   300     -0.225334  18 C  s               389     -0.182514  24 C  py        
   463      0.183198  29 C  s               410     -0.178049  25 H  s         
   488     -0.170441  30 O  s               301      0.163406  18 C  s         

 Vector   43  Occ=2.000000D+00  E=-5.942935D-01
              MO Center= -7.1D-02, -2.6D+00, -2.0D-01, r^2= 9.6D+00
   Bfn.  Coefficient  Atom+Function         Bfn.  Coefficient  Atom+Function  
  ----- ------------  ---------------      ----- ------------  ---------------
    82      0.197266   6 O  px              214     -0.187748  14 H  s         
    15      0.184819   2 C  py               35     -0.183468   3 H  s         
   177      0.157056  11 C  pz        

 Vector   44  Occ=2.000000D+00  E=-5.876761D-01
              MO Center=  6.9D-01,  1.5D+00,  1.8D-01, r^2= 7.3D+00
   Bfn.  Coefficient  Atom+Function         Bfn.  Coefficient  Atom+Function  
  ----- ------------  ---------------      ----- ------------  ---------------
   345      0.198920  21 C  px              375      0.180436  23 H  s         
   429      0.177349  27 C  s               302     -0.174111  18 C  px        
   227     -0.157871  15 C  px              390      0.155013  24 C  pz        

 Vector   45  Occ=2.000000D+00  E=-5.777447D-01
              MO Center= -1.5D-01,  4.3D-01, -2.4D-01, r^2= 1.1D+01
   Bfn.  Coefficient  Atom+Function         Bfn.  Coefficient  Atom+Function  
  ----- ------------  ---------------      ----- ------------  ---------------
   343      0.249211  21 C  s               491      0.192828  30 O  py        
   467      0.180456  29 C  pz              175      0.171025  11 C  px        
   300     -0.170989  18 C  s               205     -0.160467  13 H  s         
   349     -0.151206  21 C  py        

 Vector   46  Occ=2.000000D+00  E=-5.706327D-01
              MO Center=  2.8D-01, -1.5D+00,  8.4D-02, r^2= 1.3D+01
   Bfn.  Coefficient  Atom+Function         Bfn.  Coefficient  Atom+Function  
  ----- ------------  ---------------      ----- ------------  ---------------
    82      0.204560   6 O  px               57     -0.176869   5 C  px        
     1     -0.159669   1 H  s                45      0.151471   4 H  s         
    14      0.150084   2 C  px        

 Vector   47  Occ=2.000000D+00  E=-5.671461D-01
              MO Center= -1.5D-02, -2.2D+00, -3.7D-01, r^2= 1.2D+01
   Bfn.  Coefficient  Atom+Function         Bfn.  Coefficient  Atom+Function  
  ----- ------------  ---------------      ----- ------------  ---------------
   176      0.254697  11 C  py              197     -0.231216  12 H  s         
    45      0.219028   4 H  s               196     -0.219861  12 H  s         
    44      0.217867   4 H  s               215      0.187636  14 H  s         
    15     -0.171582   2 C  py               14      0.166430   2 C  px        
   214      0.160400  14 H  s         

 Vector   48  Occ=2.000000D+00  E=-5.572970D-01
              MO Center= -5.1D-01, -6.9D-01, -1.3D-01, r^2= 1.6D+01
   Bfn.  Coefficient  Atom+Function         Bfn.  Coefficient  Atom+Function  
  ----- ------------  ---------------      ----- ------------  ---------------
    44      0.200905   4 H  s               467     -0.167090  29 C  pz        
    45      0.159509   4 H  s                14      0.158581   2 C  px        
   492     -0.157519  30 O  pz              197      0.156025  12 H  s         
    15     -0.154322   2 C  py              139      0.154717   9 C  s         
   386     -0.153983  24 C  s                35     -0.152487   3 H  s         

 Vector   49  Occ=2.000000D+00  E=-5.405461D-01
              MO Center= -2.3D-01,  1.1D-01, -1.5D-01, r^2= 1.1D+01
   Bfn.  Coefficient  Atom+Function         Bfn.  Coefficient  Atom+Function  
  ----- ------------  ---------------      ----- ------------  ---------------
   343      0.247912  21 C  s               386     -0.184938  24 C  s         
   176      0.164310  11 C  py              277      0.163774  17 N  px        
   197     -0.154608  12 H  s               253      0.152685  16 O  py        

 Vector   50  Occ=2.000000D+00  E=-5.378577D-01
              MO Center= -3.7D-01, -5.5D-01,  6.8D-02, r^2= 8.0D+00
   Bfn.  Coefficient  Atom+Function         Bfn.  Coefficient  Atom+Function  
  ----- ------------  ---------------      ----- ------------  ---------------
   254      0.291067  16 O  pz              386      0.259653  24 C  s         
   257      0.222679  16 O  pz              215      0.204617  14 H  s         
   229      0.177401  15 C  pz              324      0.161244  19 H  s         
   429     -0.160320  27 C  s         

 Vector   51  Occ=2.000000D+00  E=-5.317266D-01
              MO Center= -1.1D-01, -1.4D+00, -8.4D-01, r^2= 6.1D+00
   Bfn.  Coefficient  Atom+Function         Bfn.  Coefficient  Atom+Function  
  ----- ------------  ---------------      ----- ------------  ---------------
   163      0.312139  10 H  s               206      0.273740  13 H  s         
   175     -0.270278  11 C  px              205      0.249047  13 H  s         
   141      0.196264   9 C  px              162      0.191090  10 H  s         
   214     -0.186986  14 H  s               139     -0.173296   9 C  s         
   215     -0.152884  14 H  s         

 Vector   52  Occ=2.000000D+00  E=-5.099196D-01
              MO Center=  9.6D-01,  5.0D-01,  1.2D-01, r^2= 1.1D+01
   Bfn.  Coefficient  Atom+Function         Bfn.  Coefficient  Atom+Function  
  ----- ------------  ---------------      ----- ------------  ---------------
   376     -0.225438  23 H  s               301      0.219311  18 C  s         
   303      0.193274  18 C  py              349     -0.193991  21 C  py        
   431     -0.192397  27 C  px              343      0.176912  21 C  s         
   324     -0.174369  19 H  s               148     -0.172081   9 C  py        
   375     -0.169291  23 H  s               389      0.156548  24 C  py        

 Vector   53  Occ=2.000000D+00  E=-5.029759D-01
              MO Center=  6.2D-01, -7.5D-01,  9.0D-02, r^2= 1.2D+01
   Bfn.  Coefficient  Atom+Function         Bfn.  Coefficient  Atom+Function  
  ----- ------------  ---------------      ----- ------------  ---------------
    84      0.223824   6 O  pz              376      0.222655  23 H  s         
   431      0.186522  27 C  px              388     -0.179565  24 C  px        
   345      0.172364  21 C  px              375      0.168905  23 H  s         
    87      0.162331   6 O  pz              143     -0.155657   9 C  pz        
   177      0.152448  11 C  pz              391     -0.150775  24 C  px        

 Vector   54  Occ=2.000000D+00  E=-4.976438D-01
              MO Center=  1.4D+00,  2.0D+00,  2.8D-01, r^2= 6.1D+00
   Bfn.  Coefficient  Atom+Function         Bfn.  Coefficient  Atom+Function  
  ----- ------------  ---------------      ----- ------------  ---------------
   410      0.393162  25 H  s               387     -0.308855  24 C  s         
   346     -0.257245  21 C  py              367     -0.254719  22 H  s         
   303      0.245758  18 C  py              409      0.221400  25 H  s         
   349     -0.218201  21 C  py              376      0.218439  23 H  s         
   389      0.216712  24 C  py              366     -0.201464  22 H  s         

 Vector   55  Occ=2.000000D+00  E=-4.949732D-01
              MO Center=  1.2D+00,  2.3D+00,  4.0D-01, r^2= 4.3D+00
   Bfn.  Coefficient  Atom+Function         Bfn.  Coefficient  Atom+Function  
  ----- ------------  ---------------      ----- ------------  ---------------
   347      0.304437  21 C  pz              391      0.285638  24 C  px        
   390     -0.277322  24 C  pz              386     -0.264944  24 C  s         
   324      0.201276  19 H  s               388      0.199940  24 C  px        
   453      0.184383  28 H  s               366     -0.166596  22 H  s         
   452      0.165281  28 H  s               418     -0.159598  26 H  s         

 Vector   56  Occ=2.000000D+00  E=-4.480715D-01
              MO Center= -7.0D-01,  4.3D-02,  2.6D-01, r^2= 4.7D+00
   Bfn.  Coefficient  Atom+Function         Bfn.  Coefficient  Atom+Function  
  ----- ------------  ---------------      ----- ------------  ---------------
   253      0.431825  16 O  py              256      0.359275  16 O  py        
   275     -0.224192  17 N  s               139     -0.204277   9 C  s         
   254      0.197736  16 O  pz              142      0.157993   9 C  py        
   343     -0.154925  21 C  s               257      0.150500  16 O  pz        

 Vector   57  Occ=2.000000D+00  E=-4.368971D-01
              MO Center= -4.7D-01,  2.4D+00, -1.7D-01, r^2= 5.6D+00
   Bfn.  Coefficient  Atom+Function         Bfn.  Coefficient  Atom+Function  
  ----- ------------  ---------------      ----- ------------  ---------------
   490      0.408287  30 O  px              493      0.321353  30 O  px        
   253      0.215353  16 O  py              279      0.197635  17 N  pz        
   492      0.185291  30 O  pz              256      0.178643  16 O  py        
   282      0.174192  17 N  pz        

 Vector   58  Occ=2.000000D+00  E=-4.205377D-01
              MO Center=  7.0D-01, -4.0D+00, -6.7D-03, r^2= 2.1D+00
   Bfn.  Coefficient  Atom+Function         Bfn.  Coefficient  Atom+Function  
  ----- ------------  ---------------      ----- ------------  ---------------
    83      0.513090   6 O  py               86      0.408820   6 O  py        
   105     -0.247508   7 N  s                13     -0.224060   2 C  s         
    84     -0.188493   6 O  pz               64     -0.171876   5 C  py        
   145     -0.172540   9 C  py              234     -0.169216  15 C  py        
    14      0.166215   2 C  px               17      0.162983   2 C  px        

 Vector   59  Occ=2.000000D+00  E=-4.063418D-01
              MO Center= -1.5D+00,  3.1D+00, -3.7D-01, r^2= 2.2D+00
   Bfn.  Coefficient  Atom+Function         Bfn.  Coefficient  Atom+Function  
  ----- ------------  ---------------      ----- ------------  ---------------
   517      0.362699  31 N  pz              520      0.302021  31 N  pz        
   492     -0.299132  30 O  pz              495     -0.234304  30 O  pz        
   516      0.216759  31 N  py              491     -0.203367  30 O  py        
   519      0.187413  31 N  py              514      0.171632  31 N  s         
   284      0.167743  17 N  py              490      0.162817  30 O  px        

 Vector   60  Occ=2.000000D+00  E=-3.992709D-01
              MO Center=  6.4D-02, -2.2D+00, -8.2D-02, r^2= 5.8D+00
   Bfn.  Coefficient  Atom+Function         Bfn.  Coefficient  Atom+Function  
  ----- ------------  ---------------      ----- ------------  ---------------
   109      0.365857   7 N  pz              112      0.347621   7 N  pz        
    84     -0.286358   6 O  pz              148      0.241370   9 C  py        
   139     -0.234361   9 C  s                87     -0.221098   6 O  pz        
   174     -0.204788  11 C  s               107      0.160776   7 N  px        
    12      0.158292   2 C  s         

 Vector   61  Occ=2.000000D+00  E=-3.869269D-01
              MO Center= -8.6D-02,  8.8D-01,  1.1D-01, r^2= 6.6D+00
   Bfn.  Coefficient  Atom+Function         Bfn.  Coefficient  Atom+Function  
  ----- ------------  ---------------      ----- ------------  ---------------
   279      0.321242  17 N  pz              282      0.300418  17 N  pz        
   254     -0.210952  16 O  pz              490     -0.204821  30 O  px        
   257     -0.168388  16 O  pz              493     -0.164138  30 O  px        
   109      0.162369   7 N  pz              386      0.159846  24 C  s         
   112      0.155040   7 N  pz              492     -0.153238  30 O  pz        

 Vector   62  Occ=0.000000D+00  E= 2.958663D-02
              MO Center= -2.8D-01, -8.2D-01,  1.1D+00, r^2= 3.5D+01
   Bfn.  Coefficient  Atom+Function         Bfn.  Coefficient  Atom+Function  
  ----- ------------  ---------------      ----- ------------  ---------------
   148      4.689721   9 C  py              301     -4.011456  18 C  s         
   464     -3.599395  29 C  s               174     -3.104187  11 C  s         
   106      2.439095   7 N  s               344     -1.857878  21 C  s         
    64      1.679506   5 C  py              514      1.598548  31 N  s         
   226     -1.449016  15 C  s               420      1.451025  26 H  s         

 Vector   63  Occ=0.000000D+00  E= 3.435610D-02
              MO Center=  7.3D-01,  1.3D-01,  6.0D-01, r^2= 4.0D+01
   Bfn.  Coefficient  Atom+Function         Bfn.  Coefficient  Atom+Function  
  ----- ------------  ---------------      ----- ------------  ---------------
   148      4.957048   9 C  py              387     -3.347401  24 C  s         
    64      2.676939   5 C  py              420     -2.337571  26 H  s         
   377     -2.262115  23 H  s               106      2.193316   7 N  s         
   234      1.933800  15 C  py              471      1.929342  29 C  px        
   309      1.807151  18 C  py              147      1.781873   9 C  px        

 Vector   64  Occ=0.000000D+00  E= 3.867589D-02
              MO Center= -2.1D-02, -5.3D-01, -8.5D-01, r^2= 3.8D+01
   Bfn.  Coefficient  Atom+Function         Bfn.  Coefficient  Atom+Function  
  ----- ------------  ---------------      ----- ------------  ---------------
    64      2.854620   5 C  py              149     -2.531040   9 C  pz        
    12     -1.974114   2 C  s               148      1.889037   9 C  py        
     3      1.866146   1 H  s               216     -1.839388  14 H  s         
   173      1.606074  11 C  s               377     -1.589648  23 H  s         
   464      1.410204  29 C  s                56      1.363992   5 C  s         

 Vector   65  Occ=0.000000D+00  E= 4.184700D-02
              MO Center= -1.2D+00,  4.4D-02,  1.7D-01, r^2= 4.2D+01
   Bfn.  Coefficient  Atom+Function         Bfn.  Coefficient  Atom+Function  
  ----- ------------  ---------------      ----- ------------  ---------------
   454      2.900394  28 H  s               174      2.597731  11 C  s         
   464     -2.377306  29 C  s               325     -2.025357  19 H  s         
   547      1.888393  33 H  s               148     -1.857177   9 C  py        
   439     -1.801000  27 C  pz              377     -1.672062  23 H  s         
   471      1.670759  29 C  px               13      1.513305   2 C  s         

 Vector   66  Occ=0.000000D+00  E= 5.148099D-02
              MO Center=  9.6D-01, -3.4D-03,  1.4D-01, r^2= 4.2D+01
   Bfn.  Coefficient  Atom+Function         Bfn.  Coefficient  Atom+Function  
  ----- ------------  ---------------      ----- ------------  ---------------
   377      3.005731  23 H  s                37      2.979584   3 H  s         
   411      2.850623  25 H  s               334     -2.364311  20 H  s         
   216     -2.337667  14 H  s               309     -2.244326  18 C  py        
   174      2.219774  11 C  s               301      1.936057  18 C  s         
     3     -1.922151   1 H  s               395     -1.834525  24 C  py        

 Vector   67  Occ=0.000000D+00  E= 5.338290D-02
              MO Center=  1.1D-01, -5.5D-02, -4.3D-01, r^2= 4.3D+01
   Bfn.  Coefficient  Atom+Function         Bfn.  Coefficient  Atom+Function  
  ----- ------------  ---------------      ----- ------------  ---------------
   377      3.140298  23 H  s               420     -2.820775  26 H  s         
   149     -2.800119   9 C  pz              198     -2.392650  12 H  s         
   351     -1.881777  21 C  px              173      1.790987  11 C  s         
    64      1.750511   5 C  py              147     -1.731075   9 C  px        
   164      1.733873  10 H  s               438     -1.624037  27 C  py        

 Vector   68  Occ=0.000000D+00  E= 5.574442D-02
              MO Center=  7.7D-01,  4.3D-01,  5.7D-01, r^2= 4.3D+01
   Bfn.  Coefficient  Atom+Function         Bfn.  Coefficient  Atom+Function  
  ----- ------------  ---------------      ----- ------------  ---------------
   411      2.988072  25 H  s               334     -2.848312  20 H  s         
   309     -2.660938  18 C  py              454      2.524189  28 H  s         
    46      2.168438   4 H  s               106     -2.162451   7 N  s         
   234     -2.074354  15 C  py              174     -1.880388  11 C  s         
   368      1.882109  22 H  s               514     -1.853610  31 N  s         

 Vector   69  Occ=0.000000D+00  E= 5.802199D-02
              MO Center= -6.7D-01, -2.2D+00,  3.5D-01, r^2= 4.4D+01
   Bfn.  Coefficient  Atom+Function         Bfn.  Coefficient  Atom+Function  
  ----- ------------  ---------------      ----- ------------  ---------------
    46      4.218785   4 H  s               130     -2.844457   8 H  s         
   106     -2.505178   7 N  s               334      2.358737  20 H  s         
    56      2.303385   5 C  s                64      2.219973   5 C  py        
   547      2.091825  33 H  s               514      1.987874  31 N  s         
    21      1.798891   2 C  py                3     -1.662188   1 H  s         

 Vector   70  Occ=0.000000D+00  E= 6.367917D-02
              MO Center= -4.2D-01, -3.7D-01,  1.4D-01, r^2= 3.8D+01
   Bfn.  Coefficient  Atom+Function         Bfn.  Coefficient  Atom+Function  
  ----- ------------  ---------------      ----- ------------  ---------------
   325     -4.976599  19 H  s               234      4.840789  15 C  py        
   216      4.213343  14 H  s               454     -3.671878  28 H  s         
     3      3.160055   1 H  s               420      3.081155  26 H  s         
   198     -2.893208  12 H  s               207      2.784794  13 H  s         
   439      2.457144  27 C  pz               13      2.323739   2 C  s         

 Vector   71  Occ=0.000000D+00  E= 7.067509D-02
              MO Center=  2.6D-01, -6.9D-01, -8.7D-01, r^2= 4.4D+01
   Bfn.  Coefficient  Atom+Function         Bfn.  Coefficient  Atom+Function  
  ----- ------------  ---------------      ----- ------------  ---------------
   368      4.021969  22 H  s               411     -3.998093  25 H  s         
   198     -3.845915  12 H  s                37      3.765917   3 H  s         
   420      3.540726  26 H  s               377     -3.447635  23 H  s         
   395      2.745130  24 C  py              351      2.253595  21 C  px        
     3     -2.181245   1 H  s               106     -2.048080   7 N  s         

 Vector   72  Occ=0.000000D+00  E= 7.438603D-02
              MO Center=  6.2D-01,  4.7D-01,  6.5D-01, r^2= 4.8D+01
   Bfn.  Coefficient  Atom+Function         Bfn.  Coefficient  Atom+Function  
  ----- ------------  ---------------      ----- ------------  ---------------
   411      4.754642  25 H  s               334      4.332434  20 H  s         
    56     -4.111802   5 C  s               377     -3.574972  23 H  s         
    64     -3.556025   5 C  py               46     -3.498079   4 H  s         
   174      3.457053  11 C  s               437     -3.195038  27 C  px        
   387      2.998367  24 C  s               395     -2.960915  24 C  py        

 Vector   73  Occ=0.000000D+00  E= 7.773875D-02
              MO Center=  1.5D-01, -3.2D-01, -4.0D-01, r^2= 4.4D+01
   Bfn.  Coefficient  Atom+Function         Bfn.  Coefficient  Atom+Function  
  ----- ------------  ---------------      ----- ------------  ---------------
   207      4.460977  13 H  s                13      4.147562   2 C  s         
   234      4.023312  15 C  py              368      3.858689  22 H  s         
   344     -3.199667  21 C  s               334      3.046160  20 H  s         
   325     -2.861368  19 H  s               377     -2.829151  23 H  s         
   420     -2.821334  26 H  s               198     -2.762725  12 H  s         

 Vector   74  Occ=0.000000D+00  E= 8.119629D-02
              MO Center= -5.0D-01,  3.2D-01,  5.7D-01, r^2= 4.1D+01
   Bfn.  Coefficient  Atom+Function         Bfn.  Coefficient  Atom+Function  
  ----- ------------  ---------------      ----- ------------  ---------------
   454     -7.150888  28 H  s               148      6.659106   9 C  py        
   538      4.923004  32 H  s               387     -4.197890  24 C  s         
   164      3.875301  10 H  s               130      3.762579   8 H  s         
   420      3.714089  26 H  s               216      3.659144  14 H  s         
   437     -3.643054  27 C  px              439      3.611213  27 C  pz        

 Vector   75  Occ=0.000000D+00  E= 8.340127D-02
              MO Center=  8.7D-01,  1.6D-01, -1.5D+00, r^2= 3.9D+01
   Bfn.  Coefficient  Atom+Function         Bfn.  Coefficient  Atom+Function  
  ----- ------------  ---------------      ----- ------------  ---------------
   148      7.178200   9 C  py              368     -6.371704  22 H  s         
   198     -6.021325  12 H  s                56      5.232769   5 C  s         
   309      3.955743  18 C  py              308      3.606206  18 C  px        
   420     -3.612673  26 H  s               301     -3.413104  18 C  s         
   411      3.403715  25 H  s               182     -3.228971  11 C  py        

 Vector   76  Occ=0.000000D+00  E= 9.040071D-02
              MO Center=  9.6D-01,  2.7D-01, -1.4D+00, r^2= 3.5D+01
   Bfn.  Coefficient  Atom+Function         Bfn.  Coefficient  Atom+Function  
  ----- ------------  ---------------      ----- ------------  ---------------
   325    -12.508347  19 H  s               216     11.827501  14 H  s         
   148      7.461793   9 C  py              334      6.641839  20 H  s         
   207     -5.438341  13 H  s                56      4.549523   5 C  s         
   174     -4.063071  11 C  s               420     -4.052054  26 H  s         
   234     -3.802272  15 C  py              310     -3.661599  18 C  pz        

 Vector   77  Occ=0.000000D+00  E= 1.001859D-01
              MO Center= -1.7D+00, -9.4D-01,  4.0D-01, r^2= 3.8D+01
   Bfn.  Coefficient  Atom+Function         Bfn.  Coefficient  Atom+Function  
  ----- ------------  ---------------      ----- ------------  ---------------
   234      6.709559  15 C  py               13      5.637342   2 C  s         
    56     -5.537828   5 C  s               538     -5.499548  32 H  s         
   130      5.174189   8 H  s               464     -4.547280  29 C  s         
   438      4.297436  27 C  py              216      4.128369  14 H  s         
   377      3.938855  23 H  s               368     -3.794502  22 H  s         

 Vector   78  Occ=0.000000D+00  E= 1.081440D-01
              MO Center=  9.5D-01, -2.6D-01,  4.7D-01, r^2= 3.7D+01
   Bfn.  Coefficient  Atom+Function         Bfn.  Coefficient  Atom+Function  
  ----- ------------  ---------------      ----- ------------  ---------------
   164     10.865600  10 H  s               464     10.145696  29 C  s         
   387     -7.729560  24 C  s               334     -7.236113  20 H  s         
   437      6.592512  27 C  px               56     -5.794822   5 C  s         
   147     -4.887632   9 C  px              301      4.692239  18 C  s         
   216      4.204659  14 H  s               130     -3.851791   8 H  s         

 Vector   79  Occ=0.000000D+00  E= 1.135930D-01
              MO Center=  1.3D+00, -7.0D-01,  2.9D-01, r^2= 3.0D+01
   Bfn.  Coefficient  Atom+Function         Bfn.  Coefficient  Atom+Function  
  ----- ------------  ---------------      ----- ------------  ---------------
   164     10.932855  10 H  s                13     -7.138475   2 C  s         
   325     -7.013279  19 H  s               174     -6.442599  11 C  s         
   106      6.186845   7 N  s                64     -6.086225   5 C  py        
   368      4.649694  22 H  s               411     -3.393422  25 H  s         
   147     -3.364676   9 C  px              149     -3.188043   9 C  pz        

 Vector   80  Occ=0.000000D+00  E= 1.182458D-01
              MO Center= -2.9D-01, -3.6D-01,  1.2D+00, r^2= 3.6D+01
   Bfn.  Coefficient  Atom+Function         Bfn.  Coefficient  Atom+Function  
  ----- ------------  ---------------      ----- ------------  ---------------
   464     15.049345  29 C  s               174     -8.648551  11 C  s         
    56      8.453757   5 C  s               234     -7.430979  15 C  py        
    13     -6.500585   2 C  s               438     -6.242205  27 C  py        
   437      5.014619  27 C  px              149     -4.784413   9 C  pz        
   344     -4.716836  21 C  s               301     -4.677880  18 C  s         

 Vector   81  Occ=0.000000D+00  E= 1.258897D-01
              MO Center= -3.7D-01,  5.6D-01, -1.3D+00, r^2= 2.6D+01
   Bfn.  Coefficient  Atom+Function         Bfn.  Coefficient  Atom+Function  
  ----- ------------  ---------------      ----- ------------  ---------------
   148     11.305625   9 C  py              301     -9.821377  18 C  s         
   387      8.059605  24 C  s               174     -6.492983  11 C  s         
   464     -6.258120  29 C  s               216      6.126437  14 H  s         
   182     -5.316422  11 C  py              438     -5.094683  27 C  py        
   439     -4.794471  27 C  pz              198     -4.554681  12 H  s         

 Vector   82  Occ=0.000000D+00  E= 1.287695D-01
              MO Center= -3.9D-01, -8.5D-02,  6.5D-01, r^2= 3.5D+01
   Bfn.  Coefficient  Atom+Function         Bfn.  Coefficient  Atom+Function  
  ----- ------------  ---------------      ----- ------------  ---------------
   344     10.979063  21 C  s                13     -9.287055   2 C  s         
   438     -7.561123  27 C  py              301      7.368468  18 C  s         
    64     -6.379978   5 C  py              164      6.321058  10 H  s         
   234     -5.943355  15 C  py              148     -5.874627   9 C  py        
   334     -5.406585  20 H  s               394     -4.988808  24 C  px        

 Vector   83  Occ=0.000000D+00  E= 1.348026D-01
              MO Center=  3.9D-01,  1.4D+00,  6.2D-01, r^2= 2.8D+01
   Bfn.  Coefficient  Atom+Function         Bfn.  Coefficient  Atom+Function  
  ----- ------------  ---------------      ----- ------------  ---------------
   387     21.103842  24 C  s               396     -7.063787  24 C  pz        
   148     -6.577373   9 C  py              309     -6.547663  18 C  py        
   420      5.388919  26 H  s               106     -5.109451   7 N  s         
   301     -4.911051  18 C  s               164      4.790202  10 H  s         
   284     -4.764262  17 N  py              471     -4.633654  29 C  px        

 Vector   84  Occ=0.000000D+00  E= 1.403233D-01
              MO Center= -1.1D+00,  2.2D-01, -4.7D-02, r^2= 3.6D+01
   Bfn.  Coefficient  Atom+Function         Bfn.  Coefficient  Atom+Function  
  ----- ------------  ---------------      ----- ------------  ---------------
   148     17.077422   9 C  py              464    -16.277822  29 C  s         
    64      9.774792   5 C  py              234      9.458763  15 C  py        
    13      9.302346   2 C  s               514      8.895231  31 N  s         
   106      8.642017   7 N  s               301     -7.905287  18 C  s         
   472      6.212803  29 C  py              308      5.679643  18 C  px        

 Vector   85  Occ=0.000000D+00  E= 1.436529D-01
              MO Center=  1.2D+00,  7.7D-01, -4.0D-02, r^2= 3.7D+01
   Bfn.  Coefficient  Atom+Function         Bfn.  Coefficient  Atom+Function  
  ----- ------------  ---------------      ----- ------------  ---------------
[...]
   Bfn.  Coefficient  Atom+Function         Bfn.  Coefficient  Atom+Function  
  ----- ------------  ---------------      ----- ------------  ---------------
   344     14.517741  21 C  s               514     14.191318  31 N  s         
   464    -13.264249  29 C  s               283    -11.806444  17 N  px        
   234    -11.346988  15 C  py              437    -10.097767  27 C  px        
    13     -8.925177   2 C  s               276      6.637119  17 N  s         
   430     -6.588193  27 C  s                64     -6.541538   5 C  py        

 Vector  157  Occ=0.000000D+00  E= 4.381988D-01
              MO Center=  1.2D+00,  4.5D-02, -1.5D-01, r^2= 2.2D+01
   Bfn.  Coefficient  Atom+Function         Bfn.  Coefficient  Atom+Function  
  ----- ------------  ---------------      ----- ------------  ---------------
   376     -9.340324  23 H  s               344      8.704720  21 C  s         
   234     -8.203462  15 C  py              173      7.849515  11 C  s         
   301      7.823869  18 C  s               197     -6.797362  12 H  s         
   438     -6.676684  27 C  py              453      6.697213  28 H  s         
   215     -6.186698  14 H  s               353      5.710843  21 C  pz        

 Vector  158  Occ=0.000000D+00  E= 4.411958D-01
              MO Center= -8.4D-02, -6.8D-01,  5.6D-02, r^2= 2.2D+01
   Bfn.  Coefficient  Atom+Function         Bfn.  Coefficient  Atom+Function  
  ----- ------------  ---------------      ----- ------------  ---------------
    56     17.354700   5 C  s               148     16.566614   9 C  py        
   234    -16.336164  15 C  py              174    -13.051198  11 C  s         
   301    -11.395501  18 C  s               149     -8.576104   9 C  pz        
   106     -7.103728   7 N  s               464      6.794653  29 C  s         
   430      5.571813  27 C  s               514     -5.553164  31 N  s         

 Vector  159  Occ=0.000000D+00  E= 4.478561D-01
              MO Center=  7.0D-02, -1.4D+00,  3.6D-01, r^2= 2.2D+01
   Bfn.  Coefficient  Atom+Function         Bfn.  Coefficient  Atom+Function  
  ----- ------------  ---------------      ----- ------------  ---------------
   148     20.184977   9 C  py              387    -14.367384  24 C  s         
    56     10.920372   5 C  s               284     10.329772  17 N  py        
   438      9.702745  27 C  py              174     -9.254626  11 C  s         
    13      8.568201   2 C  s               106      7.380225   7 N  s         
   149     -6.791442   9 C  pz              439      5.897322  27 C  pz        

 Vector  160  Occ=0.000000D+00  E= 4.516436D-01
              MO Center=  1.9D-02, -2.0D+00,  5.4D-01, r^2= 2.4D+01
   Bfn.  Coefficient  Atom+Function         Bfn.  Coefficient  Atom+Function  
  ----- ------------  ---------------      ----- ------------  ---------------
   148      7.706953   9 C  py               13      7.388411   2 C  s         
    36     -6.392207   3 H  s               284      6.117973  17 N  py        
   343     -5.694272  21 C  s               464     -5.695646  29 C  s         
   429     -5.029977  27 C  s               283      4.904547  17 N  px        
   419     -4.738460  26 H  s               376      4.346533  23 H  s         

 Vector  161  Occ=0.000000D+00  E= 4.537577D-01
              MO Center=  1.0D+00,  5.0D-01,  2.0D-02, r^2= 1.8D+01
   Bfn.  Coefficient  Atom+Function         Bfn.  Coefficient  Atom+Function  
  ----- ------------  ---------------      ----- ------------  ---------------
   464     18.007306  29 C  s               301    -11.905805  18 C  s         
   344    -11.286239  21 C  s               164     -9.493501  10 H  s         
   333      8.400455  20 H  s               147      8.215828   9 C  px        
   387     -8.146921  24 C  s               376      7.318272  23 H  s         
   343     -7.281243  21 C  s               514     -7.049347  31 N  s         

 Vector  162  Occ=0.000000D+00  E= 4.588799D-01
              MO Center=  3.1D-01,  2.4D-01, -3.9D-01, r^2= 2.1D+01
   Bfn.  Coefficient  Atom+Function         Bfn.  Coefficient  Atom+Function  
  ----- ------------  ---------------      ----- ------------  ---------------
   234     13.813947  15 C  py              437     12.762957  27 C  px        
   114     10.527750   7 N  py              344     -8.922997  21 C  s         
   148     -8.636749   9 C  py              464      8.549352  29 C  s         
   215      8.204834  14 H  s               174     -8.083197  11 C  s         
    13      7.853413   2 C  s               233     -7.758753  15 C  px        

 Vector  163  Occ=0.000000D+00  E= 4.606166D-01
              MO Center=  2.0D-01, -2.4D-01, -5.8D-01, r^2= 2.0D+01
   Bfn.  Coefficient  Atom+Function         Bfn.  Coefficient  Atom+Function  
  ----- ------------  ---------------      ----- ------------  ---------------
   174     18.070207  11 C  s                56    -11.841305   5 C  s         
    13     11.615678   2 C  s               284     10.763895  17 N  py        
   173     10.433400  11 C  s               149      7.684702   9 C  pz        
   215     -7.718933  14 H  s               197     -7.352937  12 H  s         
   344     -6.903215  21 C  s               206     -6.855531  13 H  s         

 Vector  164  Occ=0.000000D+00  E= 4.651960D-01
              MO Center=  1.4D-01, -4.8D-01, -1.3D-01, r^2= 2.0D+01
   Bfn.  Coefficient  Atom+Function         Bfn.  Coefficient  Atom+Function  
  ----- ------------  ---------------      ----- ------------  ---------------
   148     29.349943   9 C  py              301    -15.076787  18 C  s         
   514     14.388660  31 N  s               284     12.628983  17 N  py        
   464    -11.293327  29 C  s               106     11.130221   7 N  s         
   233      9.976862  15 C  px               56      9.920405   5 C  s         
   471      6.954964  29 C  px              182     -5.812874  11 C  py        

 Vector  165  Occ=0.000000D+00  E= 4.684322D-01
              MO Center=  2.1D-01,  7.2D-01, -2.5D-02, r^2= 1.9D+01
   Bfn.  Coefficient  Atom+Function         Bfn.  Coefficient  Atom+Function  
  ----- ------------  ---------------      ----- ------------  ---------------
   387     17.238744  24 C  s               301    -11.474948  18 C  s         
   419     -6.107307  26 H  s               163     -5.886635  10 H  s         
   276      5.870605  17 N  s               234     -5.612590  15 C  py        
   430      5.447383  27 C  s               206     -5.335142  13 H  s         
   310     -5.282083  18 C  pz              325     -5.177707  19 H  s         

 Vector  166  Occ=0.000000D+00  E= 4.727514D-01
              MO Center=  2.4D-01,  8.6D-01, -2.9D-01, r^2= 2.0D+01
   Bfn.  Coefficient  Atom+Function         Bfn.  Coefficient  Atom+Function  
  ----- ------------  ---------------      ----- ------------  ---------------
   387     17.415505  24 C  s               344     -9.447702  21 C  s         
   148     -9.297826   9 C  py              206      9.055405  13 H  s         
   514     -8.184790  31 N  s               173     -7.821277  11 C  s         
   301     -7.530019  18 C  s               284     -7.338605  17 N  py        
   367      7.200637  22 H  s               464      6.799369  29 C  s         

 Vector  167  Occ=0.000000D+00  E= 4.775733D-01
              MO Center=  1.4D-02, -4.0D-01, -4.8D-02, r^2= 2.2D+01
   Bfn.  Coefficient  Atom+Function         Bfn.  Coefficient  Atom+Function  
  ----- ------------  ---------------      ----- ------------  ---------------
   174     15.577096  11 C  s               148     13.992050   9 C  py        
    13     11.726750   2 C  s               309      9.299784  18 C  py        
   308      8.874087  18 C  px              387     -8.653543  24 C  s         
   113     -8.204095   7 N  px              464     -8.056254  29 C  s         
   438      7.454371  27 C  py              284      7.333704  17 N  py        

 Vector  168  Occ=0.000000D+00  E= 4.813184D-01
              MO Center= -4.1D-02,  1.8D+00,  2.2D-01, r^2= 1.7D+01
   Bfn.  Coefficient  Atom+Function         Bfn.  Coefficient  Atom+Function  
  ----- ------------  ---------------      ----- ------------  ---------------
   387     13.329817  24 C  s               276    -11.328257  17 N  s         
   301     -9.773321  18 C  s               174     -9.276735  11 C  s         
    56      8.449198   5 C  s               514     -7.751554  31 N  s         
    13     -7.470854   2 C  s               410     -6.599570  25 H  s         
   343     -6.390892  21 C  s               464      5.994130  29 C  s         

 Vector  169  Occ=0.000000D+00  E= 4.891042D-01
              MO Center= -4.4D-02, -3.3D-01, -4.2D-01, r^2= 1.8D+01
   Bfn.  Coefficient  Atom+Function         Bfn.  Coefficient  Atom+Function  
  ----- ------------  ---------------      ----- ------------  ---------------
   301    -16.320047  18 C  s               148     15.377172   9 C  py        
   206     -8.955738  13 H  s               174      8.853581  11 C  s         
   163     -8.792084  10 H  s               324      8.520791  19 H  s         
   234     -8.056348  15 C  py              464     -7.779200  29 C  s         
   387      7.636959  24 C  s               284      7.426940  17 N  py        

 Vector  170  Occ=0.000000D+00  E= 4.912768D-01
              MO Center=  2.4D-01, -1.2D+00, -3.6D-01, r^2= 2.0D+01
   Bfn.  Coefficient  Atom+Function         Bfn.  Coefficient  Atom+Function  
  ----- ------------  ---------------      ----- ------------  ---------------
    56     22.801119   5 C  s               234    -18.465752  15 C  py        
   148     16.608641   9 C  py              174    -15.382191  11 C  s         
   173     -9.495054  11 C  s               197      9.456080  12 H  s         
   438     -9.324582  27 C  py              387     -8.826620  24 C  s         
   309      8.778234  18 C  py              106     -8.102639   7 N  s         

 Vector  171  Occ=0.000000D+00  E= 4.955114D-01
              MO Center=  4.9D-01,  8.3D-02, -6.7D-01, r^2= 1.9D+01
   Bfn.  Coefficient  Atom+Function         Bfn.  Coefficient  Atom+Function  
  ----- ------------  ---------------      ----- ------------  ---------------
   234     20.937679  15 C  py               56    -17.570520   5 C  s         
   174     17.290597  11 C  s                13     14.415056   2 C  s         
   437     11.522389  27 C  px              149     10.702274   9 C  pz        
   387    -10.679677  24 C  s               438     10.318456  27 C  py        
   283      9.418105  17 N  px              344     -9.321120  21 C  s         

 Vector  172  Occ=0.000000D+00  E= 4.994694D-01
              MO Center=  4.7D-02, -1.3D-01, -3.2D-01, r^2= 2.0D+01
   Bfn.  Coefficient  Atom+Function         Bfn.  Coefficient  Atom+Function  
  ----- ------------  ---------------      ----- ------------  ---------------
    56     20.039559   5 C  s               148     15.563725   9 C  py        
   301    -13.796310  18 C  s               174    -10.832383  11 C  s         
   234     -6.964121  15 C  py              114      6.469686   7 N  py        
   149     -6.378158   9 C  pz              333      6.216573  20 H  s         
    81     -5.753877   6 O  s                64      5.678961   5 C  py        

 Vector  173  Occ=0.000000D+00  E= 5.073218D-01
              MO Center=  3.4D-01,  6.8D-01,  2.6D-01, r^2= 1.9D+01
   Bfn.  Coefficient  Atom+Function         Bfn.  Coefficient  Atom+Function  
  ----- ------------  ---------------      ----- ------------  ---------------
   387     28.836227  24 C  s               301    -15.311947  18 C  s         
   234     14.517049  15 C  py               13     14.157464   2 C  s         
   464    -14.219459  29 C  s               410    -10.435417  25 H  s         
   439     -9.503886  27 C  pz              276     -9.158679  17 N  s         
   148      8.965361   9 C  py               64      8.504887   5 C  py        


 center of mass
 --------------
 x =  -0.02710788 y =   0.03217292 z =   0.01217341

 moments of inertia (a.u.)
 ------------------
        6738.239307184910           0.000000000002           0.000000000002
           0.000000000002        1644.780808556566           0.000000000001
           0.000000000002           0.000000000001        7441.986422491047

  Mulliken analysis of the total density
  --------------------------------------

    Atom       Charge   Shell Charges
 -----------   ------   -------------------------------------------------------
    1 H    1     0.86   0.76  0.13 -0.00  0.03 -0.06
    2 C    6     6.21   2.01  0.66  0.19  0.10  2.06  1.04 -0.01  0.06  0.09
    3 H    1     0.88   0.76  0.15 -0.00  0.03 -0.06
    4 H    1     1.01   0.76  0.26  0.01  0.03 -0.05
    5 C    6     5.22   2.01  0.68  0.09 -0.08  1.90  0.31  0.05  0.24  0.04
    6 O    8     8.71   2.01  0.82  0.99  0.15  2.79  1.82  0.14  0.01 -0.02
    7 N    7     7.62   2.01  0.72  0.88 -0.05  2.46  1.47  0.03  0.05  0.06
    8 H    1     1.02   0.76  0.23  0.00  0.06 -0.02
    9 C    6     6.62   2.01  0.66  0.27  0.02  2.00  1.46 -0.09  0.14  0.17
   10 H    1     0.93   0.78  0.20 -0.06  0.03 -0.02
   11 C    6     5.63   2.01  0.67  0.21  0.18  2.04  0.43 -0.00  0.07  0.02
   12 H    1     0.98   0.77  0.26 -0.01  0.03 -0.07
   13 H    1     0.83   0.77  0.12 -0.01  0.03 -0.09
   14 H    1     0.95   0.78  0.15  0.05  0.03 -0.06
   15 C    6     4.76   2.01  0.68 -0.03  0.11  1.88  0.20  0.02  0.23 -0.35
   16 O    8     8.96   2.01  0.82  1.04  0.21  2.80  1.90  0.18  0.01  0.00
   17 N    7     7.48   2.01  0.71  0.78 -0.12  2.43  1.60 -0.10  0.06  0.11
   18 C    6     5.90   2.01  0.67  0.72 -0.15  2.01  0.31  0.06  0.12  0.16
   19 H    1     0.87   0.79  0.21 -0.04  0.03 -0.12
   20 H    1     0.92   0.79  0.15  0.01  0.03 -0.06
   21 C    6     6.02   2.01  0.66  0.24  0.08  2.04  0.86  0.06  0.09 -0.01
   22 H    1     0.97   0.78  0.25 -0.02  0.03 -0.08
   23 H    1     0.94   0.78  0.24  0.01  0.03 -0.12
   24 C    6     5.69   2.01  0.66  0.25 -0.07  2.04  0.62  0.05  0.09  0.04
   25 H    1     1.07   0.77  0.35  0.00  0.03 -0.09
   26 H    1     0.88   0.79  0.16 -0.02  0.03 -0.09
   27 C    6     6.50   2.01  0.67  0.12 -0.01  2.00  1.38  0.03  0.14  0.17
   28 H    1     1.09   0.78  0.28 -0.01  0.03  0.01
   29 C    6     4.56   2.01  0.68 -0.02  0.10  1.89 -0.13 -0.02  0.24 -0.19
   30 O    8     8.78   2.01  0.82  1.03  0.15  2.79  1.83  0.14  0.01 -0.01
   31 N    7     7.25   2.01  0.72  0.83 -0.14  2.47  1.26  0.09  0.04 -0.02
   32 H    1     0.89   0.73  0.18 -0.01  0.06 -0.07
   33 H    1     1.02   0.76  0.24 -0.00  0.05 -0.03

       Multipole analysis of the density wrt the origin
       ------------------------------------------------

     L   x y z        total         open         nuclear
     -   - - -        -----         ----         -------
     0   0 0 0     -0.000000      0.000000    122.000000

     1   1 0 0     -0.344967      0.000000     -0.000000
     1   0 1 0     -0.280223      0.000000     -0.000000
     1   0 0 1      0.416699      0.000000      0.000000

     2   2 0 0    -68.631436      0.000000    678.101374
     2   1 1 0     11.830324      0.000000     52.112680
     2   1 0 1      2.483381      0.000000      1.378934
     2   0 2 0    -89.149355      0.000000   3405.472504
     2   0 1 1      1.235632      0.000000      3.417197
     2   0 0 2    -69.920703      0.000000    294.177806


 Task  times  cpu:     4537.5s     wall:     4597.3s


                                NWChem Input Module
                                -------------------


 Summary of allocated global arrays
-----------------------------------
  No active global arrays


MA_summarize_allocated_blocks: starting scan ...
MA_summarize_allocated_blocks: scan completed: 0 heap blocks, 0 stack blocks
MA usage statistics:

	allocation statistics:
					      heap	     stack
					      ----	     -----
	current number of blocks	         0	         0
	maximum number of blocks	        16	        14
	current total bytes		         0	         0
	maximum total bytes		    116888	  26223304
	maximum total K-bytes		       117	     26224
	maximum total M-bytes		         1	        27


                                     CITATION
                                     --------
                Please cite the following reference when publishing
                           results obtained with NWChem:

          E. Apra, E. J. Bylaska, W. A. de Jong, N. Govind, K. Kowalski,
       T. P. Straatsma, M. Valiev, H. J. J. van Dam, Y. Alexeev, J. Anchell,
       V. Anisimov, F. W. Aquino, R. Atta-Fynn, J. Autschbach, N. P. Bauman,
     J. C. Becca, D. E. Bernholdt, K. Bhaskaran-Nair, S. Bogatko, P. Borowski,
         J. Boschen, J. Brabec, A. Bruner, E. Cauet, Y. Chen, G. N. Chuev,
      C. J. Cramer, J. Daily, M. J. O. Deegan, T. H. Dunning Jr., M. Dupuis,
   K. G. Dyall, G. I. Fann, S. A. Fischer, A. Fonari, H. Fruchtl, L. Gagliardi,
      J. Garza, N. Gawande, S. Ghosh, K. Glaesemann, A. W. Gotz, J. Hammond,
       V. Helms, E. D. Hermes, K. Hirao, S. Hirata, M. Jacquelin, L. Jensen,
   B. G. Johnson, H. Jonsson, R. A. Kendall, M. Klemm, R. Kobayashi, V. Konkov,
      S. Krishnamoorthy, M. Krishnan, Z. Lin, R. D. Lins, R. J. Littlefield,
      A. J. Logsdail, K. Lopata, W. Ma, A. V. Marenich, J. Martin del Campo,
   D. Mejia-Rodriguez, J. E. Moore, J. M. Mullin, T. Nakajima, D. R. Nascimento,
    J. A. Nichols, P. J. Nichols, J. Nieplocha, A. Otero-de-la-Roza, B. Palmer,
    A. Panyala, T. Pirojsirikul, B. Peng, R. Peverati, J. Pittner, L. Pollack,
   R. M. Richard, P. Sadayappan, G. C. Schatz, W. A. Shelton, D. W. Silverstein,
   D. M. A. Smith, T. A. Soares, D. Song, M. Swart, H. L. Taylor, G. S. Thomas,
            V. Tipparaju, D. G. Truhlar, K. Tsemekhman, T. Van Voorhis,
      A. Vazquez-Mayagoitia, P. Verma, O. Villa, A. Vishnu, K. D. Vogiatzis,
        D. Wang, J. H. Weare, M. J. Williamson, T. L. Windus, K. Wolinski,
        A. T. Wong, Q. Wu, C. Yang, Q. Yu, M. Zacharias, Z. Zhang, Y. Zhao,
                                and R. J. Harrison
                        "NWChem: Past, present, and future
                         J. Chem. Phys. 152, 184102 (2020)
                               doi:10.1063/5.0004997

                                      AUTHORS
                                      -------
  E. Apra, E. J. Bylaska, N. Govind, K. Kowalski, M. Valiev, D. Mejia-Rodriguez,
       A. Kunitsa, N. P. Bauman, A. Panyala, W. A. de Jong, T. P. Straatsma,
   H. J. J. van Dam, D. Wang, T. L. Windus, J. Hammond, J. Autschbach, A. Woods,
    K. Bhaskaran-Nair, J. Brabec, K. Lopata, S. A. Fischer, S. Krishnamoorthy,
     M. Jacquelin, W. Ma, M. Klemm, O. Villa, Y. Chen, V. Anisimov, F. Aquino,
     S. Hirata, M. T. Hackler, E. Hermes, L. Jensen, J. E. Moore, J. C. Becca,
      V. Konjkov, T. Risthaus, M. Malagoli, A. Marenich, A. Otero-de-la-Roza,
        J. Mullin, P. Nichols, R. Peverati, J. Pittner, Y. Zhao, P.-D. Fan,
        A. Fonari, M. J. Williamson, R. J. Harrison, J. R. Rehr, M. Dupuis,
     D. Silverstein, D. M. A. Smith, J. Nieplocha, V. Tipparaju, M. Krishnan,
     B. E. Van Kuiken, A. Vazquez-Mayagoitia, M. Swart, Q. Wu, T. Van Voorhis,
     A. A. Auer, M. Nooijen, L. D. Crosby, E. Brown, G. Cisneros, G. I. Fann,
   H. Fruchtl, J. Garza, K. Hirao, R. A. Kendall, J. A. Nichols, K. Tsemekhman,
    K. Wolinski, J. Anchell, D. E. Bernholdt, P. Borowski, T. Clark, D. Clerc,
   H. Dachsel, M. J. O. Deegan, K. Dyall, D. Elwood, E. Glendening, M. Gutowski,
   A. C. Hess, J. Jaffe, B. G. Johnson, J. Ju, R. Kobayashi, R. Kutteh, Z. Lin,
   R. Littlefield, X. Long, B. Meng, T. Nakajima, S. Niu, L. Pollack, M. Rosing,
   K. Glaesemann, G. Sandrone, M. Stave, H. Taylor, G. Thomas, J. H. van Lenthe,
                               A. T. Wong, Z. Zhang.

 Total times  cpu:     4537.5s     wall:     4597.8s
