export TMOUT=5400
export TMPDIR=/tmp
export PTMPDIR=/tmp/ptmp
 argument  1 = ALA_ASN_5.nw
                                         
                                         


             Northwest Computational Chemistry Package (NWChem) 7.2.0
             --------------------------------------------------------


                    Environmental Molecular Sciences Laboratory
                       Pacific Northwest National Laboratory
                                Richland, WA 99352

                              Copyright (c) 1994-2022
                       Pacific Northwest National Laboratory
                            Battelle Memorial Institute

             NWChem is an open-source computational chemistry package
                        distributed under the terms of the
                      Educational Community License (ECL) 2.0
             A copy of the license is included with this distribution
                              in the LICENSE.TXT file

                                  ACKNOWLEDGMENT
                                  --------------

            This software and its documentation were developed at the
            EMSL at Pacific Northwest National Laboratory, a multiprogram
            national laboratory, operated for the U.S. Department of Energy
            by Battelle under Contract Number DE-AC05-76RL01830. Support
            for this work was provided by the Department of Energy Office
            of Biological and Environmental Research, Office of Basic
            Energy Sciences, and the Office of Advanced Scientific Computing.


           Job information
           ---------------

    hostname        = nova18-61
    program         = /opt/rit/el9/20230413/app/linux-rhel9-x86_64_v3/gcc-11.2.1/nwchem-7.2.0-oxtctbuhfuzyfaoziquq6bki22grib3g/bin/nwchem
    date            = Wed Jun 25 13:30:41 2025

    compiled        = Wed_May_17_23:46:39_2023
    source          = /tmp/root/spack-stage/spack-stage-nwchem-7.2.0-oxtctbuhfuzyfaoziquq6bki22grib3g/spack-src
    nwchem branch   = 7.2.0
    nwchem revision = d0d141fd
    ga revision     = 5.8.0
    use scalapack   = T
    input           = ALA_ASN_5.nw
    prefix          = ALA_ASN_5.
    data base       = ./ALA_ASN_5.db
    status          = startup
    nproc           =        8
    time left       =     -1s



           Memory information
           ------------------

    heap     =   26214396 doubles =    200.0 Mbytes
    stack    =   26214401 doubles =    200.0 Mbytes
    global   =   52428800 doubles =    400.0 Mbytes (distinct from heap & stack)
    total    =  104857597 doubles =    800.0 Mbytes
    verify   = yes
    hardfail = no 


           Directory information
           ---------------------

  0 permanent = .
  0 scratch   = .




                                NWChem Input Module
                                -------------------



 Scaling coordinates for geometry "geometry" by  1.889725989
 (inverse scale =  0.529177249)

 C1  symmetry detected

          ------
          auto-z
          ------
  no constraints, skipping    0.0000000000000000     
  no constraints, skipping    0.0000000000000000     


                             Geometry "geometry" -> ""
                             -------------------------

 Output coordinates in angstroms (scale by  1.889725989 to convert to a.u.)

  No.       Tag          Charge          X              Y              Z
 ---- ---------------- ---------- -------------- -------------- --------------
    1 H                    1.0000    -1.58031579    -4.99280764     0.25520403
    2 C                    6.0000    -1.75353364    -4.14230388    -0.40091329
    3 H                    1.0000    -2.81636628    -3.90193161    -0.41480393
    4 H                    1.0000    -1.42119778    -4.37682009    -1.41149234
    5 C                    6.0000    -0.98643875    -2.94699670     0.11081336
    6 O                    8.0000    -1.57949756    -1.91844340     0.42008246
    7 N                    7.0000     0.33634129    -3.07876257     0.20039416
    8 H                    1.0000     0.75761511    -3.93711307    -0.11026288
    9 C                    6.0000     1.21946401    -1.98345057     0.60023021
   10 H                    1.0000     0.89993558    -1.62617876     1.58070888
   11 C                    6.0000     2.65197319    -2.51553435     0.72868373
   12 H                    1.0000     2.68480887    -3.32399167     1.46043136
   13 H                    1.0000     3.00059738    -2.88413025    -0.23782350
   14 H                    1.0000     3.31192704    -1.71329318     1.05977290
   15 C                    6.0000     1.12753384    -0.80857247    -0.39349577
   16 O                    8.0000     1.24842136    -0.99744734    -1.60225773
   17 N                    7.0000     0.89761498     0.39998463     0.12123139
   18 H                    1.0000     0.85894534     0.50830116     1.12461427
   19 C                    6.0000     0.64902300     1.60844212    -0.66682858
   20 H                    1.0000     1.28537909     1.58688035    -1.55252323
   21 C                    6.0000    -0.82513912     1.60554446    -1.12525921
   22 H                    1.0000    -0.96941716     2.38719074    -1.87011285
   23 H                    1.0000    -1.06435672     0.65371546    -1.60004073
   24 C                    6.0000    -1.80655589     1.86130748     0.00392651
   25 O                    8.0000    -2.15195578     2.99202718     0.29008536
   26 N                    7.0000    -2.28754010     0.84459715     0.67896599
   27 H                    1.0000    -2.93204860     1.06353968     1.41423666
   28 H                    1.0000    -2.01628210    -0.11163552     0.46532097
   29 C                    6.0000     1.01890169     2.86971300     0.14316989
   30 O                    8.0000     1.38357002     2.78475997     1.31195943
   31 N                    7.0000     0.94734398     4.04903600    -0.45871529
   32 H                    1.0000     1.15813023     4.86900987     0.08592955
   33 H                    1.0000     0.61065039     4.11921224    -1.40321025

      Atomic Mass 
      ----------- 

      H                  1.007825
      C                 12.000000
      O                 15.994910
      N                 14.003070


 Effective nuclear repulsion energy (a.u.)    1312.2060725340

            Nuclear Dipole moment (a.u.) 
            ----------------------------
        X                 Y               Z
 ---------------- ---------------- ----------------
    -0.0000000000     0.0000000000     0.0000000000



                                Z-matrix (autoz)
                                -------- 

 Units are Angstrom for bonds and degrees for angles

      Type          Name      I     J     K     L     M      Value
      ----------- --------  ----- ----- ----- ----- ----- ----------
    1 Stretch                  1     2                       1.08805
    2 Stretch                  2     3                       1.08976
    3 Stretch                  2     4                       1.08936
    4 Stretch                  2     5                       1.50965
    5 Stretch                  5     6                       1.22690
    6 Stretch                  5     7                       1.33234
    7 Stretch                  7     8                       1.00536
    8 Stretch                  7     9                       1.46270
    9 Stretch                  9    10                       1.09137
   10 Stretch                  9    11                       1.53352
   11 Stretch                  9    15                       1.54152
   12 Stretch                 11    12                       1.09093
   13 Stretch                 11    13                       1.09158
   14 Stretch                 11    14                       1.09030
   15 Stretch                 15    16                       1.22939
   16 Stretch                 15    17                       1.33357
   17 Stretch                 17    18                       1.00995
   18 Stretch                 17    19                       1.46397
   19 Stretch                 19    20                       1.09081
   20 Stretch                 19    21                       1.54380
   21 Stretch                 19    29                       1.54393
   22 Stretch                 21    22                       1.08931
   23 Stretch                 21    23                       1.09024
   24 Stretch                 21    24                       1.51778
   25 Stretch                 24    25                       1.21644
   26 Stretch                 24    26                       1.31176
   27 Stretch                 26    27                       1.00197
   28 Stretch                 26    28                       1.01666
   29 Stretch                 29    30                       1.22730
   30 Stretch                 29    31                       1.32597
   31 Stretch                 31    32                       1.00669
   32 Stretch                 31    33                       1.00517
   33 Bend                     1     2     3               109.59500
   34 Bend                     1     2     4               110.03316
   35 Bend                     1     2     5               109.48823
   36 Bend                     2     5     6               120.23842
   37 Bend                     2     5     7               116.67732
   38 Bend                     3     2     4               109.46274
   39 Bend                     3     2     5               108.98044
   40 Bend                     4     2     5               109.26212
   41 Bend                     5     7     8               118.66465
   42 Bend                     5     7     9               122.93940
   43 Bend                     6     5     7               123.08424
   44 Bend                     7     9    10               108.29750
   45 Bend                     7     9    11               109.09102
   46 Bend                     7     9    15               111.00832
   47 Bend                     8     7     9               118.08665
   48 Bend                     9    11    12               109.96391
   49 Bend                     9    11    13               109.95821
   50 Bend                     9    11    14               109.60675
   51 Bend                     9    15    16               120.72173
   52 Bend                     9    15    17               116.88322
   53 Bend                    10     9    11               108.16919
   54 Bend                    10     9    15               108.19074
   55 Bend                    11     9    15               111.97173
   56 Bend                    12    11    13               109.51473
   57 Bend                    12    11    14               108.86705
   58 Bend                    13    11    14               108.90605
   59 Bend                    15    17    18               119.16074
   60 Bend                    15    17    19               124.72142
   61 Bend                    16    15    17               122.39035
   62 Bend                    17    19    20               108.76591
   63 Bend                    17    19    21               108.68994
   64 Bend                    17    19    29               110.56376
   65 Bend                    18    17    19               116.08918
   66 Bend                    19    21    22               109.15819
   67 Bend                    19    21    23               109.90583
   68 Bend                    19    21    24               113.34130
   69 Bend                    19    29    30               120.94797
   70 Bend                    19    29    31               118.39222
   71 Bend                    20    19    21               108.41608
   72 Bend                    20    19    29               107.60003
   73 Bend                    21    19    29               112.71122
   74 Bend                    21    24    25               121.01446
   75 Bend                    21    24    26               119.29701
   76 Bend                    22    21    23               107.43509
   77 Bend                    22    21    24               107.58719
   78 Bend                    23    21    24               109.22191
   79 Bend                    24    26    27               116.36725
   80 Bend                    24    26    28               121.53557
   81 Bend                    25    24    26               119.68853
   82 Bend                    27    26    28               122.09702
   83 Bend                    29    31    32               117.87602
   84 Bend                    29    31    33               120.44391
   85 Bend                    30    29    31               120.65583
   86 Bend                    32    31    33               121.44228
   87 Torsion                  1     2     5     6        -120.40919
   88 Torsion                  1     2     5     7          59.64510
   89 Torsion                  2     5     7     8           2.67767
   90 Torsion                  2     5     7     9         176.16258
   91 Torsion                  3     2     5     6          -0.54652
   92 Torsion                  3     2     5     7         179.50776
   93 Torsion                  4     2     5     6         119.02033
   94 Torsion                  4     2     5     7         -60.92539
   95 Torsion                  5     7     9    10          57.05276
   96 Torsion                  5     7     9    11         174.56844
   97 Torsion                  5     7     9    15         -61.58080
   98 Torsion                  6     5     7     8        -177.26636
   99 Torsion                  6     5     7     9          -3.78145
  100 Torsion                  7     9    11    12         -58.42512
  101 Torsion                  7     9    11    13          62.24070
  102 Torsion                  7     9    11    14        -178.06998
  103 Torsion                  7     9    15    16         -50.76493
  104 Torsion                  7     9    15    17         128.46558
  105 Torsion                  8     7     9    10        -129.42677
  106 Torsion                  8     7     9    11         -11.91109
  107 Torsion                  8     7     9    15         111.93967
  108 Torsion                  9    15    17    18           4.24172
  109 Torsion                  9    15    17    19        -173.73100
  110 Torsion                 10     9    11    12          59.17156
  111 Torsion                 10     9    11    13         179.83738
  112 Torsion                 10     9    11    14         -60.47330
  113 Torsion                 10     9    15    16        -169.46287
  114 Torsion                 10     9    15    17           9.76765
  115 Torsion                 11     9    15    16          71.42562
  116 Torsion                 11     9    15    17        -109.34387
  117 Torsion                 12    11     9    15         178.29578
  118 Torsion                 13    11     9    15         -61.03840
  119 Torsion                 14    11     9    15          58.65092
  120 Torsion                 15    17    19    20         -37.77613
  121 Torsion                 15    17    19    21          80.07419
  122 Torsion                 15    17    19    29        -155.71590
  123 Torsion                 16    15    17    18        -176.54165
  124 Torsion                 16    15    17    19           5.48563
  125 Torsion                 17    19    21    22        -168.79103
  126 Torsion                 17    19    21    23         -51.20036
  127 Torsion                 17    19    21    24          71.32118
  128 Torsion                 17    19    29    30          -4.16591
  129 Torsion                 17    19    29    31         175.11317
  130 Torsion                 18    17    19    20         144.19502
  131 Torsion                 18    17    19    21         -97.95466
  132 Torsion                 18    17    19    29          26.25525
  133 Torsion                 19    21    24    25          89.66420
  134 Torsion                 19    21    24    26         -90.35021
  135 Torsion                 19    29    31    32         177.84071
  136 Torsion                 19    29    31    33           3.36261
  137 Torsion                 20    19    21    22         -50.71904
  138 Torsion                 20    19    21    23          66.87163
  139 Torsion                 20    19    21    24        -170.60684
  140 Torsion                 20    19    29    30        -122.81702
  141 Torsion                 20    19    29    31          56.46205
  142 Torsion                 21    19    29    30         117.70715
  143 Torsion                 21    19    29    31         -63.01378
  144 Torsion                 21    24    26    27        -179.96498
  145 Torsion                 21    24    26    28           0.17674
  146 Torsion                 22    21    19    29          68.28288
  147 Torsion                 22    21    24    25         -31.11533
  148 Torsion                 22    21    24    26         148.87026
  149 Torsion                 23    21    19    29        -174.12645
  150 Torsion                 23    21    24    25        -147.43583
  151 Torsion                 23    21    24    26          32.54976
  152 Torsion                 24    21    19    29         -51.60492
  153 Torsion                 25    24    26    27           0.02079
  154 Torsion                 25    24    26    28        -179.83748
  155 Torsion                 30    29    31    32          -2.87803
  156 Torsion                 30    29    31    33        -177.35613


            XYZ format geometry
            -------------------
    33
 geometry
 H                    -1.58031579    -4.99280764     0.25520403
 C                    -1.75353364    -4.14230388    -0.40091329
 H                    -2.81636628    -3.90193161    -0.41480393
 H                    -1.42119778    -4.37682009    -1.41149234
 C                    -0.98643875    -2.94699670     0.11081336
 O                    -1.57949756    -1.91844340     0.42008246
 N                     0.33634129    -3.07876257     0.20039416
 H                     0.75761511    -3.93711307    -0.11026288
 C                     1.21946401    -1.98345057     0.60023021
 H                     0.89993558    -1.62617876     1.58070888
 C                     2.65197319    -2.51553435     0.72868373
 H                     2.68480887    -3.32399167     1.46043136
 H                     3.00059738    -2.88413025    -0.23782350
 H                     3.31192704    -1.71329318     1.05977290
 C                     1.12753384    -0.80857247    -0.39349577
 O                     1.24842136    -0.99744734    -1.60225773
 N                     0.89761498     0.39998463     0.12123139
 H                     0.85894534     0.50830116     1.12461427
 C                     0.64902300     1.60844212    -0.66682858
 H                     1.28537909     1.58688035    -1.55252323
 C                    -0.82513912     1.60554446    -1.12525921
 H                    -0.96941716     2.38719074    -1.87011285
 H                    -1.06435672     0.65371546    -1.60004073
 C                    -1.80655589     1.86130748     0.00392651
 O                    -2.15195578     2.99202718     0.29008536
 N                    -2.28754010     0.84459715     0.67896599
 H                    -2.93204860     1.06353968     1.41423666
 H                    -2.01628210    -0.11163552     0.46532097
 C                     1.01890169     2.86971300     0.14316989
 O                     1.38357002     2.78475997     1.31195943
 N                     0.94734398     4.04903600    -0.45871529
 H                     1.15813023     4.86900987     0.08592955
 H                     0.61065039     4.11921224    -1.40321025

 ==============================================================================
                                internuclear distances
 ------------------------------------------------------------------------------
       center one      |      center two      | atomic units |  angstroms
 ------------------------------------------------------------------------------
    2 C                |   1 H                |     2.05611  |     1.08805
    3 H                |   2 C                |     2.05935  |     1.08976
    4 H                |   2 C                |     2.05860  |     1.08936
    5 C                |   2 C                |     2.85283  |     1.50965
    6 O                |   5 C                |     2.31851  |     1.22690
    7 N                |   5 C                |     2.51776  |     1.33234
    8 H                |   7 N                |     1.89985  |     1.00536
    9 C                |   7 N                |     2.76410  |     1.46270
   10 H                |   9 C                |     2.06238  |     1.09137
   11 C                |   9 C                |     2.89794  |     1.53352
   12 H                |  11 C                |     2.06157  |     1.09093
   13 H                |  11 C                |     2.06278  |     1.09158
   14 H                |  11 C                |     2.06036  |     1.09030
   15 C                |   9 C                |     2.91305  |     1.54152
   16 O                |  15 C                |     2.32321  |     1.22939
   17 N                |  15 C                |     2.52009  |     1.33357
   18 H                |  17 N                |     1.90853  |     1.00995
   19 C                |  17 N                |     2.76650  |     1.46397
   20 H                |  19 C                |     2.06133  |     1.09081
   21 C                |  19 C                |     2.91736  |     1.54380
   22 H                |  21 C                |     2.05850  |     1.08931
   23 H                |  21 C                |     2.06025  |     1.09024
   24 C                |  21 C                |     2.86819  |     1.51778
   25 O                |  24 C                |     2.29873  |     1.21644
   26 N                |  24 C                |     2.47887  |     1.31176
   27 H                |  26 N                |     1.89345  |     1.00197
   28 H                |  26 N                |     1.92122  |     1.01666
   29 C                |  19 C                |     2.91760  |     1.54393
   30 O                |  29 C                |     2.31926  |     1.22730
   31 N                |  29 C                |     2.50571  |     1.32597
   32 H                |  31 N                |     1.90237  |     1.00669
   33 H                |  31 N                |     1.89949  |     1.00517
 ------------------------------------------------------------------------------
                         number of included internuclear distances:         32
 ==============================================================================



 ==============================================================================
                                 internuclear angles
 ------------------------------------------------------------------------------
        center 1       |       center 2       |       center 3       |  degrees
 ------------------------------------------------------------------------------
    1 H                |   2 C                |   3 H                |   109.60
    1 H                |   2 C                |   4 H                |   110.03
    1 H                |   2 C                |   5 C                |   109.49
    3 H                |   2 C                |   4 H                |   109.46
    3 H                |   2 C                |   5 C                |   108.98
    4 H                |   2 C                |   5 C                |   109.26
    2 C                |   5 C                |   6 O                |   120.24
    2 C                |   5 C                |   7 N                |   116.68
    6 O                |   5 C                |   7 N                |   123.08
    5 C                |   7 N                |   8 H                |   118.66
    5 C                |   7 N                |   9 C                |   122.94
    8 H                |   7 N                |   9 C                |   118.09
    7 N                |   9 C                |  10 H                |   108.30
    7 N                |   9 C                |  11 C                |   109.09
    7 N                |   9 C                |  15 C                |   111.01
   10 H                |   9 C                |  11 C                |   108.17
   10 H                |   9 C                |  15 C                |   108.19
   11 C                |   9 C                |  15 C                |   111.97
    9 C                |  11 C                |  12 H                |   109.96
    9 C                |  11 C                |  13 H                |   109.96
    9 C                |  11 C                |  14 H                |   109.61
   12 H                |  11 C                |  13 H                |   109.51
   12 H                |  11 C                |  14 H                |   108.87
   13 H                |  11 C                |  14 H                |   108.91
    9 C                |  15 C                |  16 O                |   120.72
    9 C                |  15 C                |  17 N                |   116.88
   16 O                |  15 C                |  17 N                |   122.39
   15 C                |  17 N                |  18 H                |   119.16
   15 C                |  17 N                |  19 C                |   124.72
   18 H                |  17 N                |  19 C                |   116.09
   17 N                |  19 C                |  20 H                |   108.77
   17 N                |  19 C                |  21 C                |   108.69
   17 N                |  19 C                |  29 C                |   110.56
   20 H                |  19 C                |  21 C                |   108.42
   20 H                |  19 C                |  29 C                |   107.60
   21 C                |  19 C                |  29 C                |   112.71
   19 C                |  21 C                |  22 H                |   109.16
   19 C                |  21 C                |  23 H                |   109.91
   19 C                |  21 C                |  24 C                |   113.34
   22 H                |  21 C                |  23 H                |   107.44
   22 H                |  21 C                |  24 C                |   107.59
   23 H                |  21 C                |  24 C                |   109.22
   21 C                |  24 C                |  25 O                |   121.01
   21 C                |  24 C                |  26 N                |   119.30
   25 O                |  24 C                |  26 N                |   119.69
   24 C                |  26 N                |  27 H                |   116.37
   24 C                |  26 N                |  28 H                |   121.54
   27 H                |  26 N                |  28 H                |   122.10
   19 C                |  29 C                |  30 O                |   120.95
   19 C                |  29 C                |  31 N                |   118.39
   30 O                |  29 C                |  31 N                |   120.66
   29 C                |  31 N                |  32 H                |   117.88
   29 C                |  31 N                |  33 H                |   120.44
   32 H                |  31 N                |  33 H                |   121.44
 ------------------------------------------------------------------------------
                            number of included internuclear angles:         54
 ==============================================================================



  library name resolved from: environment
  library file name is: </opt/rit/el9/20230413/app/linux-rhel9-x86_64_v3/gcc-11.2.1/nwchem-7.2.0-oxtctbuhfuzyfaoziquq6bki22grib3g/share/nwchem/libraries/>
  


 Summary of "ao basis" -> "" (cartesian)
 ------------------------------------------------------------------------------
       Tag                 Description            Shells   Functions and Types
 ---------------- ------------------------------  ------  ---------------------
 *                        aug-cc-pvdz                 on all atoms 


                      Basis "ao basis" -> "ao basis" (cartesian)
                      -----
  H (Hydrogen)
  ------------
            Exponent  Coefficients 
       -------------- ---------------------------------------------------------
  1 S  1.30100000E+01  0.019685
  1 S  1.96200000E+00  0.137977
  1 S  4.44600000E-01  0.478148

  2 S  1.22000000E-01  1.000000

  3 S  2.97400000E-02  1.000000

  4 P  7.27000000E-01  1.000000

  5 P  1.41000000E-01  1.000000

  C (Carbon)
  ----------
            Exponent  Coefficients 
       -------------- ---------------------------------------------------------
  1 S  6.66500000E+03  0.000692
  1 S  1.00000000E+03  0.005329
  1 S  2.28000000E+02  0.027077
  1 S  6.47100000E+01  0.101718
  1 S  2.10600000E+01  0.274740
  1 S  7.49500000E+00  0.448564
  1 S  2.79700000E+00  0.285074
  1 S  5.21500000E-01  0.015204

  2 S  6.66500000E+03 -0.000146
  2 S  1.00000000E+03 -0.001154
  2 S  2.28000000E+02 -0.005725
  2 S  6.47100000E+01 -0.023312
  2 S  2.10600000E+01 -0.063955
  2 S  7.49500000E+00 -0.149981
  2 S  2.79700000E+00 -0.127262
  2 S  5.21500000E-01  0.544529

  3 S  1.59600000E-01  1.000000

  4 S  4.69000000E-02  1.000000

  5 P  9.43900000E+00  0.038109
  5 P  2.00200000E+00  0.209480
  5 P  5.45600000E-01  0.508557

  6 P  1.51700000E-01  1.000000

  7 P  4.04100000E-02  1.000000

  8 D  5.50000000E-01  1.000000

  9 D  1.51000000E-01  1.000000

  O (Oxygen)
  ----------
            Exponent  Coefficients 
       -------------- ---------------------------------------------------------
  1 S  1.17200000E+04  0.000710
  1 S  1.75900000E+03  0.005470
  1 S  4.00800000E+02  0.027837
  1 S  1.13700000E+02  0.104800
  1 S  3.70300000E+01  0.283062
  1 S  1.32700000E+01  0.448719
  1 S  5.02500000E+00  0.270952
  1 S  1.01300000E+00  0.015458

  2 S  1.17200000E+04 -0.000160
  2 S  1.75900000E+03 -0.001263
  2 S  4.00800000E+02 -0.006267
  2 S  1.13700000E+02 -0.025716
  2 S  3.70300000E+01 -0.070924
  2 S  1.32700000E+01 -0.165411
  2 S  5.02500000E+00 -0.116955
  2 S  1.01300000E+00  0.557368

  3 S  3.02300000E-01  1.000000

  4 S  7.89600000E-02  1.000000

  5 P  1.77000000E+01  0.043018
  5 P  3.85400000E+00  0.228913
  5 P  1.04600000E+00  0.508728

  6 P  2.75300000E-01  1.000000

  7 P  6.85600000E-02  1.000000

  8 D  1.18500000E+00  1.000000

  9 D  3.32000000E-01  1.000000

  N (Nitrogen)
  ------------
            Exponent  Coefficients 
       -------------- ---------------------------------------------------------
  1 S  9.04600000E+03  0.000700
  1 S  1.35700000E+03  0.005389
  1 S  3.09300000E+02  0.027406
  1 S  8.77300000E+01  0.103207
  1 S  2.85600000E+01  0.278723
  1 S  1.02100000E+01  0.448540
  1 S  3.83800000E+00  0.278238
  1 S  7.46600000E-01  0.015440

  2 S  9.04600000E+03 -0.000153
  2 S  1.35700000E+03 -0.001208
  2 S  3.09300000E+02 -0.005992
  2 S  8.77300000E+01 -0.024544
  2 S  2.85600000E+01 -0.067459
  2 S  1.02100000E+01 -0.158078
  2 S  3.83800000E+00 -0.121831
  2 S  7.46600000E-01  0.549003

  3 S  2.24800000E-01  1.000000

  4 S  6.12400000E-02  1.000000

  5 P  1.35500000E+01  0.039919
  5 P  2.91700000E+00  0.217169
  5 P  7.97300000E-01  0.510319

  6 P  2.18500000E-01  1.000000

  7 P  5.61100000E-02  1.000000

  8 D  8.17000000E-01  1.000000

  9 D  2.30000000E-01  1.000000



 Summary of "ao basis" -> "ao basis" (cartesian)
 ------------------------------------------------------------------------------
       Tag                 Description            Shells   Functions and Types
 ---------------- ------------------------------  ------  ---------------------
 H                        aug-cc-pvdz                5        9   3s2p
 C                        aug-cc-pvdz                9       25   4s3p2d
 O                        aug-cc-pvdz                9       25   4s3p2d
 N                        aug-cc-pvdz                9       25   4s3p2d


                                 NWChem SCF Module
                                 -----------------



  ao basis        = "ao basis"
  functions       =   569
  atoms           =    33
  closed shells   =    65
  open shells     =     0
  charge          =   0.00
  wavefunction    = RHF 
  input vectors   = atomic
  output vectors  = ./ALA_ASN_5.movecs
  use symmetry    = F
  symmetry adapt  = F


 Summary of "ao basis" -> "ao basis" (cartesian)
 ------------------------------------------------------------------------------
       Tag                 Description            Shells   Functions and Types
 ---------------- ------------------------------  ------  ---------------------
 H                        aug-cc-pvdz                5        9   3s2p
 C                        aug-cc-pvdz                9       25   4s3p2d
 O                        aug-cc-pvdz                9       25   4s3p2d
 N                        aug-cc-pvdz                9       25   4s3p2d



 Forming initial guess at       0.8s


 !! The overlap matrix has   4 vectors deemed linearly dependent with
    eigenvalues:
 3.18D-06 3.67D-06 7.82D-06 9.81D-06


      Superposition of Atomic Density Guess
      -------------------------------------

 Sum of atomic energies:        -863.27065637

      Non-variational initial energy
      ------------------------------

 Total energy =    -874.082954
 1-e energy   =   -3782.289135
 2-e energy   =    1596.000109
 HOMO         =      -0.313349
 LUMO         =       0.010199


 Starting SCF solution at     220.9s



 ----------------------------------------------
         Quadratically convergent ROHF

 Convergence threshold     :          1.000E-04
 Maximum no. of iterations :           30
 Final Fock-matrix accuracy:          1.000E-10
 ----------------------------------------------


              iter       energy          gnorm     gmax       time
             ----- ------------------- --------- --------- --------
                 1     -867.1646301256  2.65D+00  1.80D-01    435.3
                 2     -867.5322037529  8.50D-01  3.56D-02    875.7
                 3     -867.5956358564  6.92D-02  5.07D-03   1523.4
                 4     -867.5963768658  4.31D-03  3.38D-04   2517.0
                 5     -867.5963802354  9.57D-06  6.04D-07   4001.5


       Final RHF  results 
       ------------------ 

         Total SCF energy =   -867.596380235414
      One-electron energy =  -3794.498571177694
      Two-electron energy =   1614.696118408272
 Nuclear repulsion energy =   1312.206072534008

        Time for solution =   3784.0s


             Final eigenvalues
             -----------------

              1      
    1  -20.5486
    2  -20.5319
    3  -20.5309
    4  -20.5021
    5  -15.6183
    6  -15.6027
    7  -15.5983
    8  -15.5654
    9  -11.3778
   10  -11.3666
   11  -11.3645
   12  -11.3354
   13  -11.3113
   14  -11.3099
   15  -11.2572
   16  -11.2566
   17  -11.2518
   18   -1.4117
   19   -1.3947
   20   -1.3865
   21   -1.3739
   22   -1.2661
   23   -1.2490
   24   -1.2271
   25   -1.2011
   26   -1.0847
   27   -1.0554
   28   -1.0087
   29   -0.9450
   30   -0.8986
   31   -0.8350
   32   -0.8111
   33   -0.8082
   34   -0.7760
   35   -0.7564
   36   -0.7266
   37   -0.7232
   38   -0.6972
   39   -0.6869
   40   -0.6737
   41   -0.6563
   42   -0.6443
   43   -0.6394
   44   -0.6348
   45   -0.6125
   46   -0.6060
   47   -0.5915
   48   -0.5866
   49   -0.5767
   50   -0.5633
   51   -0.5563
   52   -0.5556
   53   -0.5492
   54   -0.5405
   55   -0.5308
   56   -0.5261
   57   -0.5124
   58   -0.4479
   59   -0.4451
   60   -0.4316
   61   -0.4183
   62   -0.4137
   63   -0.4060
   64   -0.3972
   65   -0.3851
   66    0.0232
   67    0.0356
   68    0.0370
   69    0.0426
   70    0.0478
   71    0.0546
   72    0.0574
   73    0.0613
   74    0.0621
   75    0.0707

                       ROHF Final Molecular Orbital Analysis
                       -------------------------------------

 Vector   18  Occ=2.000000D+00  E=-1.411749D+00
              MO Center= -1.0D+00, -2.2D+00,  2.3D-01, r^2= 1.6D+00
   Bfn.  Coefficient  Atom+Function         Bfn.  Coefficient  Atom+Function  
  ----- ------------  ---------------      ----- ------------  ---------------
    80      0.342408   6 O  s                79      0.335766   6 O  s         
    54      0.235953   5 C  s                12      0.156337   2 C  s         

 Vector   19  Occ=2.000000D+00  E=-1.394743D+00
              MO Center=  1.0D+00,  1.4D+00,  1.4D-01, r^2= 5.4D+00
   Bfn.  Coefficient  Atom+Function         Bfn.  Coefficient  Atom+Function  
  ----- ------------  ---------------      ----- ------------  ---------------
   504      0.289396  30 O  s               503      0.268344  30 O  s         
   250      0.204084  16 O  s               249      0.193533  16 O  s         
   478      0.193863  29 C  s         

 Vector   20  Occ=2.000000D+00  E=-1.386532D+00
              MO Center=  1.1D+00,  5.5D-01, -3.4D-01, r^2= 5.5D+00
   Bfn.  Coefficient  Atom+Function         Bfn.  Coefficient  Atom+Function  
  ----- ------------  ---------------      ----- ------------  ---------------
   250      0.302271  16 O  s               249      0.276435  16 O  s         
   504     -0.239698  30 O  s               503     -0.218981  30 O  s         
   224      0.191095  15 C  s               478     -0.151455  29 C  s         

 Vector   21  Occ=2.000000D+00  E=-1.373920D+00
              MO Center= -2.0D+00,  2.4D+00,  2.5D-01, r^2= 1.1D+00
   Bfn.  Coefficient  Atom+Function         Bfn.  Coefficient  Atom+Function  
  ----- ------------  ---------------      ----- ------------  ---------------
   411      0.370356  25 O  s               410      0.347071  25 O  s         
   385      0.248450  24 C  s         

 Vector   22  Occ=2.000000D+00  E=-1.266127D+00
              MO Center=  9.6D-02, -2.8D+00,  2.1D-01, r^2= 1.7D+00
   Bfn.  Coefficient  Atom+Function         Bfn.  Coefficient  Atom+Function  
  ----- ------------  ---------------      ----- ------------  ---------------
   105      0.428694   7 N  s               104      0.345983   7 N  s         
    80     -0.213887   6 O  s                79     -0.179276   6 O  s         
    57      0.169616   5 C  px              128      0.158558   8 H  s         

 Vector   23  Occ=2.000000D+00  E=-1.249005D+00
              MO Center=  8.8D-01,  3.0D-01, -1.9D-01, r^2= 1.9D+00
   Bfn.  Coefficient  Atom+Function         Bfn.  Coefficient  Atom+Function  
  ----- ------------  ---------------      ----- ------------  ---------------
   275      0.391545  17 N  s               274      0.339670  17 N  s         
   250     -0.218510  16 O  s               249     -0.180862  16 O  s         

 Vector   24  Occ=2.000000D+00  E=-1.227113D+00
              MO Center=  9.9D-01,  3.7D+00, -1.9D-01, r^2= 1.3D+00
   Bfn.  Coefficient  Atom+Function         Bfn.  Coefficient  Atom+Function  
  ----- ------------  ---------------      ----- ------------  ---------------
   529      0.382716  31 N  s               528      0.368521  31 N  s         
   504     -0.221194  30 O  s               503     -0.183780  30 O  s         
   480      0.176133  29 C  s               561      0.171050  33 H  s         
   483     -0.169241  29 C  pz              552      0.154758  32 H  s         
   485     -0.153080  29 C  py        

 Vector   25  Occ=2.000000D+00  E=-1.201119D+00
              MO Center= -2.1D+00,  1.2D+00,  5.0D-01, r^2= 1.4D+00
   Bfn.  Coefficient  Atom+Function         Bfn.  Coefficient  Atom+Function  
  ----- ------------  ---------------      ----- ------------  ---------------
   435      0.365806  26 N  s               436      0.365957  26 N  s         
   411     -0.233819  25 O  s               389     -0.219238  24 C  py        
   410     -0.189316  25 O  s               343     -0.169997  21 C  s         
   459      0.156519  27 H  s               468      0.157081  28 H  s         

 Vector   26  Occ=2.000000D+00  E=-1.084705D+00
              MO Center=  6.7D-01, -1.2D+00,  4.9D-02, r^2= 7.0D+00
   Bfn.  Coefficient  Atom+Function         Bfn.  Coefficient  Atom+Function  
  ----- ------------  ---------------      ----- ------------  ---------------
   138      0.211269   9 C  s               343     -0.193815  21 C  s         
   172      0.167607  11 C  s               308     -0.152427  19 C  s         

 Vector   27  Occ=2.000000D+00  E=-1.055359D+00
              MO Center=  1.1D-01,  2.8D-02, -3.4D-01, r^2= 8.1D+00
   Bfn.  Coefficient  Atom+Function         Bfn.  Coefficient  Atom+Function  
  ----- ------------  ---------------      ----- ------------  ---------------
   343      0.227074  21 C  s               342      0.223656  21 C  s         
   309      0.184830  19 C  s               308      0.179607  19 C  s         

 Vector   28  Occ=2.000000D+00  E=-1.008738D+00
              MO Center= -6.2D-01, -3.5D+00, -7.2D-02, r^2= 5.2D+00
   Bfn.  Coefficient  Atom+Function         Bfn.  Coefficient  Atom+Function  
  ----- ------------  ---------------      ----- ------------  ---------------
    11      0.312783   2 C  s               172      0.171908  11 C  s         
   174      0.156016  11 C  s         

 Vector   29  Occ=2.000000D+00  E=-9.450394D-01
              MO Center=  1.5D-01,  9.4D-01, -3.6D-01, r^2= 6.2D+00
   Bfn.  Coefficient  Atom+Function         Bfn.  Coefficient  Atom+Function  
  ----- ------------  ---------------      ----- ------------  ---------------
   139      0.289994   9 C  s               343      0.286051  21 C  s         
   225     -0.226839  15 C  s               348     -0.227064  21 C  px        
   342      0.221682  21 C  s               145      0.209354   9 C  py        
   231      0.187458  15 C  py              146     -0.178909   9 C  pz        
   308     -0.170924  19 C  s               316     -0.161283  19 C  pz        

 Vector   30  Occ=2.000000D+00  E=-8.986367D-01
              MO Center=  1.3D+00, -1.2D+00,  2.6D-01, r^2= 8.3D+00
   Bfn.  Coefficient  Atom+Function         Bfn.  Coefficient  Atom+Function  
  ----- ------------  ---------------      ----- ------------  ---------------
   139      0.232273   9 C  s               172     -0.218489  11 C  s         
   146     -0.213035   9 C  pz              309      0.198597  19 C  s         
   138      0.187793   9 C  s               145      0.182722   9 C  py        
   231      0.178645  15 C  py              276      0.167052  17 N  s         
   225     -0.163587  15 C  s               174     -0.153915  11 C  s         

 Vector   31  Occ=2.000000D+00  E=-8.349657D-01
              MO Center=  2.6D-01, -1.5D+00,  7.7D-02, r^2= 9.3D+00
   Bfn.  Coefficient  Atom+Function         Bfn.  Coefficient  Atom+Function  
  ----- ------------  ---------------      ----- ------------  ---------------
   107      0.291416   7 N  px               54     -0.191988   5 C  s         
   128      0.178169   8 H  s               105      0.153026   7 N  s         

 Vector   32  Occ=2.000000D+00  E=-8.110647D-01
              MO Center=  6.0D-01,  5.8D-01, -4.2D-02, r^2= 1.1D+01
   Bfn.  Coefficient  Atom+Function         Bfn.  Coefficient  Atom+Function  
  ----- ------------  ---------------      ----- ------------  ---------------
   532      0.235169  31 N  py              128     -0.212711   8 H  s         
   478     -0.169963  29 C  s               108      0.163123   7 N  py        
   485     -0.159556  29 C  py              278      0.157494  17 N  py        
   105     -0.153967   7 N  s               309     -0.150772  19 C  s         

 Vector   33  Occ=2.000000D+00  E=-8.082005D-01
              MO Center= -1.1D-01,  9.8D-01, -2.4D-02, r^2= 5.0D+00
   Bfn.  Coefficient  Atom+Function         Bfn.  Coefficient  Atom+Function  
  ----- ------------  ---------------      ----- ------------  ---------------
   279     -0.222439  17 N  pz              298     -0.221357  18 H  s         
   225      0.218424  15 C  s               275     -0.197971  17 N  s         
   385     -0.162314  24 C  s         

 Vector   34  Occ=2.000000D+00  E=-7.760159D-01
              MO Center= -9.6D-01,  8.3D-01,  1.9D-01, r^2= 5.1D+00
   Bfn.  Coefficient  Atom+Function         Bfn.  Coefficient  Atom+Function  
  ----- ------------  ---------------      ----- ------------  ---------------
   439      0.260111  26 N  py              225      0.216791  15 C  s         
   279     -0.209395  17 N  pz              275     -0.200057  17 N  s         
   298     -0.192123  18 H  s               468     -0.191904  28 H  s         
   387     -0.190945  24 C  s               316      0.184540  19 C  pz        
   437      0.184517  26 N  s               333      0.179728  20 H  s         

 Vector   35  Occ=2.000000D+00  E=-7.564049D-01
              MO Center=  8.1D-01,  2.1D+00, -2.7D-01, r^2= 8.3D+00
   Bfn.  Coefficient  Atom+Function         Bfn.  Coefficient  Atom+Function  
  ----- ------------  ---------------      ----- ------------  ---------------
   533      0.317641  31 N  pz              561     -0.285887  33 H  s         
   482      0.191427  29 C  py              145     -0.178005   9 C  py        
   479      0.166436  29 C  s               225      0.157124  15 C  s         
   315     -0.156915  19 C  py        

 Vector   36  Occ=2.000000D+00  E=-7.265823D-01
              MO Center= -1.5D+00, -1.9D-01,  2.8D-01, r^2= 6.1D+00
   Bfn.  Coefficient  Atom+Function         Bfn.  Coefficient  Atom+Function  
  ----- ------------  ---------------      ----- ------------  ---------------
   459      0.236705  27 H  s               468     -0.221466  28 H  s         
    83     -0.204358   6 O  py              439      0.198174  26 N  py        
   469     -0.197843  28 H  s                57     -0.172834   5 C  px        
   438     -0.168921  26 N  px              440      0.168400  26 N  pz        
   460      0.155752  27 H  s         

 Vector   37  Occ=2.000000D+00  E=-7.231521D-01
              MO Center=  8.9D-01,  1.4D-01, -1.3D-01, r^2= 1.0D+01
   Bfn.  Coefficient  Atom+Function         Bfn.  Coefficient  Atom+Function  
  ----- ------------  ---------------      ----- ------------  ---------------
   225      0.315558  15 C  s               145     -0.251866   9 C  py        
   139     -0.232866   9 C  s               228      0.219886  15 C  py        
   552     -0.211387  32 H  s               143      0.180947   9 C  pz        
   533     -0.179055  31 N  pz              532     -0.165660  31 N  py        
    55      0.158189   5 C  s               146      0.155752   9 C  pz        

 Vector   38  Occ=2.000000D+00  E=-6.971647D-01
              MO Center=  2.4D-01, -2.1D+00,  2.0D-01, r^2= 6.9D+00
   Bfn.  Coefficient  Atom+Function         Bfn.  Coefficient  Atom+Function  
  ----- ------------  ---------------      ----- ------------  ---------------
   139      0.302143   9 C  s               108     -0.225868   7 N  py        
   145      0.208828   9 C  py              143      0.201508   9 C  pz        
   231      0.198922  15 C  py              162      0.195827  10 H  s         
    58     -0.153921   5 C  py        

 Vector   39  Occ=2.000000D+00  E=-6.868831D-01
              MO Center= -8.8D-01, -1.1D+00,  9.6D-02, r^2= 8.2D+00
   Bfn.  Coefficient  Atom+Function         Bfn.  Coefficient  Atom+Function  
  ----- ------------  ---------------      ----- ------------  ---------------
    83      0.246934   6 O  py               80      0.220029   6 O  s         
    57      0.205478   5 C  px              225     -0.182422  15 C  s         
   439      0.177984  26 N  py               15     -0.159105   2 C  py        

 Vector   40  Occ=2.000000D+00  E=-6.737484D-01
              MO Center= -5.4D-02,  1.8D+00,  8.2D-02, r^2= 7.2D+00
   Bfn.  Coefficient  Atom+Function         Bfn.  Coefficient  Atom+Function  
  ----- ------------  ---------------      ----- ------------  ---------------
   482      0.198066  29 C  py              532     -0.193808  31 N  py        
   376      0.166142  23 H  s               508      0.166240  30 O  pz        
   504      0.155292  30 O  s               343     -0.151496  21 C  s         

 Vector   41  Occ=2.000000D+00  E=-6.562927D-01
              MO Center=  2.4D-01,  9.6D-01, -3.3D-01, r^2= 6.3D+00
   Bfn.  Coefficient  Atom+Function         Bfn.  Coefficient  Atom+Function  
  ----- ------------  ---------------      ----- ------------  ---------------
   343      0.349976  21 C  s               139     -0.229614   9 C  s         
   311      0.221061  19 C  px              376     -0.203069  23 H  s         
   277      0.178223  17 N  px              332      0.177353  20 H  s         
   314      0.164497  19 C  px              145     -0.153992   9 C  py        

 Vector   42  Occ=2.000000D+00  E=-6.442902D-01
              MO Center= -3.7D-01,  2.2D+00,  2.6D-01, r^2= 5.7D+00
   Bfn.  Coefficient  Atom+Function         Bfn.  Coefficient  Atom+Function  
  ----- ------------  ---------------      ----- ------------  ---------------
   508      0.249396  30 O  pz              504      0.200749  30 O  s         
   376     -0.189044  23 H  s               389      0.185459  24 C  py        
   411     -0.175730  25 O  s               414     -0.169018  25 O  py        
   375     -0.156553  23 H  s               483     -0.151596  29 C  pz        

 Vector   43  Occ=2.000000D+00  E=-6.393970D-01
              MO Center=  1.6D-01,  8.5D-02, -4.5D-01, r^2= 8.1D+00
   Bfn.  Coefficient  Atom+Function         Bfn.  Coefficient  Atom+Function  
  ----- ------------  ---------------      ----- ------------  ---------------
   343      0.408114  21 C  s               254      0.208325  16 O  pz        
   309     -0.208327  19 C  s               278      0.205069  17 N  py        
   315     -0.201435  19 C  py              229     -0.150467  15 C  pz        

 Vector   44  Occ=2.000000D+00  E=-6.347847D-01
              MO Center= -7.2D-01, -1.9D+00, -7.6D-02, r^2= 1.0D+01
   Bfn.  Coefficient  Atom+Function         Bfn.  Coefficient  Atom+Function  
  ----- ------------  ---------------      ----- ------------  ---------------
   139      0.280340   9 C  s                16     -0.226740   2 C  pz        
   225     -0.208489  15 C  s                59     -0.200897   5 C  pz        
     1     -0.183529   1 H  s               343      0.183157  21 C  s         
    44      0.178234   4 H  s         

 Vector   45  Occ=2.000000D+00  E=-6.125340D-01
              MO Center=  1.1D+00, -1.1D+00, -3.8D-01, r^2= 8.1D+00
   Bfn.  Coefficient  Atom+Function         Bfn.  Coefficient  Atom+Function  
  ----- ------------  ---------------      ----- ------------  ---------------
   254      0.323183  16 O  pz              229     -0.239908  15 C  pz        
   250     -0.211902  16 O  s               177      0.186075  11 C  pz        
   196      0.169320  12 H  s               197      0.166410  12 H  s         
   257      0.162668  16 O  pz        

 Vector   46  Occ=2.000000D+00  E=-6.059656D-01
              MO Center= -3.9D-01, -1.9D+00,  1.1D-01, r^2= 8.7D+00
   Bfn.  Coefficient  Atom+Function         Bfn.  Coefficient  Atom+Function  
  ----- ------------  ---------------      ----- ------------  ---------------
    58      0.269090   5 C  py              139      0.268923   9 C  s         
    82      0.245251   6 O  px              225     -0.215298  15 C  s         
   145      0.186787   9 C  py              176      0.168206  11 C  py        
    85      0.158059   6 O  px               15     -0.156336   2 C  py        
   414      0.151075  25 O  py        

 Vector   47  Occ=2.000000D+00  E=-5.914604D-01
              MO Center=  5.2D-01, -1.0D+00,  4.6D-02, r^2= 1.1D+01
   Bfn.  Coefficient  Atom+Function         Bfn.  Coefficient  Atom+Function  
  ----- ------------  ---------------      ----- ------------  ---------------
   145      0.190553   9 C  py              214      0.174457  14 H  s         
    14     -0.169621   2 C  px              175      0.163000  11 C  px        

 Vector   48  Occ=2.000000D+00  E=-5.865580D-01
              MO Center= -5.0D-01, -2.7D+00,  1.2D-02, r^2= 9.7D+00
   Bfn.  Coefficient  Atom+Function         Bfn.  Coefficient  Atom+Function  
  ----- ------------  ---------------      ----- ------------  ---------------
    35     -0.265097   3 H  s                14      0.254534   2 C  px        
    36     -0.251608   3 H  s               215     -0.180562  14 H  s         
   176     -0.178259  11 C  py               15     -0.172382   2 C  py        
   214     -0.167508  14 H  s                 1      0.164498   1 H  s         
    82      0.162157   6 O  px              139     -0.154552   9 C  s         

 Vector   49  Occ=2.000000D+00  E=-5.766623D-01
              MO Center=  2.1D-02,  1.8D+00,  1.0D-01, r^2= 6.4D+00
   Bfn.  Coefficient  Atom+Function         Bfn.  Coefficient  Atom+Function  
  ----- ------------  ---------------      ----- ------------  ---------------
   483      0.236936  29 C  pz              508     -0.216948  30 O  pz        
   386      0.187901  24 C  s               313     -0.167873  19 C  pz        
   414     -0.167660  25 O  py              348      0.159883  21 C  px        

 Vector   50  Occ=2.000000D+00  E=-5.633441D-01
              MO Center= -1.5D-01,  7.4D-01,  4.1D-02, r^2= 1.2D+01
   Bfn.  Coefficient  Atom+Function         Bfn.  Coefficient  Atom+Function  
  ----- ------------  ---------------      ----- ------------  ---------------
   481      0.180423  29 C  px              531      0.174686  31 N  px        
   388      0.171308  24 C  px              506      0.163816  30 O  px        
   440      0.150417  26 N  pz        

 Vector   51  Occ=2.000000D+00  E=-5.562563D-01
              MO Center=  1.0D+00, -1.5D+00,  2.7D-01, r^2= 1.0D+01
   Bfn.  Coefficient  Atom+Function         Bfn.  Coefficient  Atom+Function  
  ----- ------------  ---------------      ----- ------------  ---------------
   197      0.248876  12 H  s               196      0.245988  12 H  s         
   215     -0.222763  14 H  s               176     -0.219901  11 C  py        
    12     -0.203631   2 C  s                55      0.193497   5 C  s         
   214     -0.179986  14 H  s                14     -0.154697   2 C  px        
   163     -0.153736  10 H  s               376     -0.153542  23 H  s         

 Vector   52  Occ=2.000000D+00  E=-5.555558D-01
              MO Center= -2.4D-01, -7.2D-02,  1.3D-01, r^2= 1.2D+01
   Bfn.  Coefficient  Atom+Function         Bfn.  Coefficient  Atom+Function  
  ----- ------------  ---------------      ----- ------------  ---------------
   414     -0.227500  25 O  py              376      0.217167  23 H  s         
   387      0.210975  24 C  s               215     -0.175664  14 H  s         
   214     -0.168931  14 H  s               388     -0.152435  24 C  px        

 Vector   53  Occ=2.000000D+00  E=-5.491944D-01
              MO Center=  2.5D-02, -1.1D+00,  4.6D-02, r^2= 1.1D+01
   Bfn.  Coefficient  Atom+Function         Bfn.  Coefficient  Atom+Function  
  ----- ------------  ---------------      ----- ------------  ---------------
   343     -0.194597  21 C  s               174      0.187221  11 C  s         
   205      0.183697  13 H  s               367      0.156020  22 H  s         
   175      0.153465  11 C  px        

 Vector   54  Occ=2.000000D+00  E=-5.404778D-01
              MO Center=  1.3D-01,  3.7D-01, -3.9D-01, r^2= 9.4D+00
   Bfn.  Coefficient  Atom+Function         Bfn.  Coefficient  Atom+Function  
  ----- ------------  ---------------      ----- ------------  ---------------
   346      0.243632  21 C  py              366      0.205616  22 H  s         
   387     -0.186912  24 C  s               375     -0.183543  23 H  s         
   367      0.180175  22 H  s         

 Vector   55  Occ=2.000000D+00  E=-5.307761D-01
              MO Center=  1.2D-01, -8.4D-01, -1.5D-01, r^2= 9.6D+00
   Bfn.  Coefficient  Atom+Function         Bfn.  Coefficient  Atom+Function  
  ----- ------------  ---------------      ----- ------------  ---------------
    84      0.189961   6 O  pz              206     -0.155597  13 H  s         
   177      0.152417  11 C  pz        

 Vector   56  Occ=2.000000D+00  E=-5.261335D-01
              MO Center= -1.4D-01,  3.0D-01,  8.1D-02, r^2= 9.0D+00
   Bfn.  Coefficient  Atom+Function         Bfn.  Coefficient  Atom+Function  
  ----- ------------  ---------------      ----- ------------  ---------------
   343      0.344736  21 C  s               314      0.203249  19 C  px        
   438      0.168899  26 N  px              141     -0.163108   9 C  px        
   309     -0.162416  19 C  s               347     -0.162308  21 C  pz        
   390      0.158632  24 C  pz              393      0.158534  24 C  pz        
   366      0.157050  22 H  s               162      0.155720  10 H  s         

 Vector   57  Occ=2.000000D+00  E=-5.123805D-01
              MO Center=  2.8D-01, -2.3D-01, -3.3D-01, r^2= 7.8D+00
   Bfn.  Coefficient  Atom+Function         Bfn.  Coefficient  Atom+Function  
  ----- ------------  ---------------      ----- ------------  ---------------
   252      0.265084  16 O  px              255      0.207821  16 O  px        
   311     -0.198416  19 C  px              178      0.189412  11 C  px        
   174      0.187347  11 C  s                84     -0.171231   6 O  pz        
   227      0.171567  15 C  px              314     -0.158401  19 C  px        
   345      0.155118  21 C  px              141     -0.153681   9 C  px        

 Vector   58  Occ=2.000000D+00  E=-4.478717D-01
              MO Center= -1.1D+00, -2.3D+00,  1.4D-01, r^2= 3.2D+00
   Bfn.  Coefficient  Atom+Function         Bfn.  Coefficient  Atom+Function  
  ----- ------------  ---------------      ----- ------------  ---------------
    82      0.403931   6 O  px               85      0.334378   6 O  px        
    84      0.223534   6 O  pz               83      0.213344   6 O  py        
    18      0.198212   2 C  py               15      0.194575   2 C  py        
    87      0.171052   6 O  pz               86      0.164469   6 O  py        
   107      0.159016   7 N  px              253      0.153021  16 O  py        

 Vector   59  Occ=2.000000D+00  E=-4.450881D-01
              MO Center=  2.7D-01, -1.6D+00, -3.6D-01, r^2= 5.2D+00
   Bfn.  Coefficient  Atom+Function         Bfn.  Coefficient  Atom+Function  
  ----- ------------  ---------------      ----- ------------  ---------------
   253      0.379162  16 O  py              256      0.297220  16 O  py        
   109     -0.274271   7 N  pz              112     -0.226235   7 N  pz        
    82     -0.177521   6 O  px               83     -0.176895   6 O  py        
    84      0.176054   6 O  pz              225     -0.167401  15 C  s         

 Vector   60  Occ=2.000000D+00  E=-4.315581D-01
              MO Center=  9.2D-01,  2.3D+00,  6.7D-01, r^2= 4.2D+00
   Bfn.  Coefficient  Atom+Function         Bfn.  Coefficient  Atom+Function  
  ----- ------------  ---------------      ----- ------------  ---------------
   507      0.506350  30 O  py              309     -0.405435  19 C  s         
   510      0.405988  30 O  py              343      0.287821  21 C  s         
   139      0.222709   9 C  s               499      0.194554  29 C  dyy       
   333      0.182920  20 H  s               485     -0.183768  29 C  py        
   225     -0.174386  15 C  s               284     -0.150291  17 N  py        

 Vector   61  Occ=2.000000D+00  E=-4.183474D-01
              MO Center=  9.1D-01,  3.1D+00,  2.6D-01, r^2= 3.7D+00
   Bfn.  Coefficient  Atom+Function         Bfn.  Coefficient  Atom+Function  
  ----- ------------  ---------------      ----- ------------  ---------------
   531     -0.379484  31 N  px              506      0.363139  30 O  px        
   534     -0.320629  31 N  px              509      0.287344  30 O  px        
    56     -0.185983   5 C  s               343      0.175561  21 C  s         
   174      0.160694  11 C  s               276      0.159880  17 N  s         

 Vector   62  Occ=2.000000D+00  E=-4.136590D-01
              MO Center=  4.6D-01, -1.3D+00, -2.2D-01, r^2= 5.8D+00
   Bfn.  Coefficient  Atom+Function         Bfn.  Coefficient  Atom+Function  
  ----- ------------  ---------------      ----- ------------  ---------------
   253      0.320110  16 O  py              109      0.281661   7 N  pz        
   256      0.272175  16 O  py              112      0.251598   7 N  pz        
    84     -0.199193   6 O  pz              480     -0.198023  29 C  s         
   231     -0.196808  15 C  py              309     -0.172818  19 C  s         
   143     -0.167834   9 C  pz               87     -0.159704   6 O  pz        

 Vector   63  Occ=2.000000D+00  E=-4.060098D-01
              MO Center= -5.1D-01,  1.0D+00, -1.1D-01, r^2= 7.4D+00
   Bfn.  Coefficient  Atom+Function         Bfn.  Coefficient  Atom+Function  
  ----- ------------  ---------------      ----- ------------  ---------------
   415      0.309204  25 O  pz              418      0.241510  25 O  pz        
   252     -0.233063  16 O  px              277      0.229496  17 N  px        
   280      0.220871  17 N  px              255     -0.189483  16 O  px        
   386      0.180255  24 C  s               413     -0.179476  25 O  px        
   344     -0.163397  21 C  s         

 Vector   64  Occ=2.000000D+00  E=-3.971581D-01
              MO Center= -7.0D-01,  1.7D+00, -5.5D-02, r^2= 6.2D+00
   Bfn.  Coefficient  Atom+Function         Bfn.  Coefficient  Atom+Function  
  ----- ------------  ---------------      ----- ------------  ---------------
   413      0.316056  25 O  px              309     -0.267171  19 C  s         
   416      0.250735  25 O  px              277      0.244161  17 N  px        
   280      0.225346  17 N  px              252     -0.182266  16 O  px        
   531      0.181441  31 N  px              479      0.179163  29 C  s         
   440     -0.170244  26 N  pz              534      0.163709  31 N  px        

 Vector   65  Occ=2.000000D+00  E=-3.851233D-01
              MO Center= -1.5D+00,  1.5D+00,  2.5D-01, r^2= 4.5D+00
   Bfn.  Coefficient  Atom+Function         Bfn.  Coefficient  Atom+Function  
  ----- ------------  ---------------      ----- ------------  ---------------
   438     -0.300028  26 N  px              415      0.296242  25 O  pz        
   441     -0.277893  26 N  px              174      0.242491  11 C  s         
   440     -0.236258  26 N  pz              418      0.233498  25 O  pz        
   413      0.227051  25 O  px              277     -0.213410  17 N  px        
   280     -0.197379  17 N  px              443     -0.192325  26 N  pz        

 Vector   66  Occ=0.000000D+00  E= 2.320048D-02
              MO Center=  6.7D-01, -5.4D+00,  7.8D-01, r^2= 1.9D+01
   Bfn.  Coefficient  Atom+Function         Bfn.  Coefficient  Atom+Function  
  ----- ------------  ---------------      ----- ------------  ---------------
    56      2.770084   5 C  s               234     -2.538783  15 C  py        
   106     -2.436015   7 N  s               198     -2.321498  12 H  s         
     3     -1.919503   1 H  s                12      1.814519   2 C  s         
   173      1.566913  11 C  s               344      1.562308  21 C  s         
    13      1.552512   2 C  s               148     -1.488894   9 C  py        

 Vector   67  Occ=0.000000D+00  E= 3.561855D-02
              MO Center=  1.1D+00,  3.9D+00, -2.2D+00, r^2= 2.2D+01
   Bfn.  Coefficient  Atom+Function         Bfn.  Coefficient  Atom+Function  
  ----- ------------  ---------------      ----- ------------  ---------------
   480      3.969565  29 C  s               530     -3.400471  31 N  s         
   234      2.480466  15 C  py              488      2.256213  29 C  py        
   334     -2.129235  20 H  s               387      1.832467  24 C  s         
   226      1.748516  15 C  s                56      1.737821   5 C  s         
   563     -1.593777  33 H  s               344     -1.473952  21 C  s         

 Vector   68  Occ=0.000000D+00  E= 3.698231D-02
              MO Center=  5.6D-02, -3.8D+00,  2.1D-01, r^2= 3.4D+01
   Bfn.  Coefficient  Atom+Function         Bfn.  Coefficient  Atom+Function  
  ----- ------------  ---------------      ----- ------------  ---------------
   147      3.846484   9 C  px               64      3.275063   5 C  py        
    12     -2.730170   2 C  s                63      2.724061   5 C  px        
   174     -2.614763  11 C  s               198     -2.604668  12 H  s         
   234     -2.032703  15 C  py               37      1.934429   3 H  s         
   233      1.766806  15 C  px              106     -1.648617   7 N  s         

 Vector   69  Occ=0.000000D+00  E= 4.258649D-02
              MO Center=  1.9D-01, -3.1D+00,  7.0D-01, r^2= 2.9D+01
   Bfn.  Coefficient  Atom+Function         Bfn.  Coefficient  Atom+Function  
  ----- ------------  ---------------      ----- ------------  ---------------
   164      4.092305  10 H  s               480     -2.894984  29 C  s         
   207     -2.315314  13 H  s                46     -2.136298   4 H  s         
   149     -1.792965   9 C  pz               37      1.726920   3 H  s         
   318      1.733993  19 C  py              147      1.722757   9 C  px        
   130     -1.633382   8 H  s               276      1.612518  17 N  s         

 Vector   70  Occ=0.000000D+00  E= 4.780029D-02
              MO Center=  2.2D-01, -1.4D+00, -1.8D-01, r^2= 4.4D+01
   Bfn.  Coefficient  Atom+Function         Bfn.  Coefficient  Atom+Function  
  ----- ------------  ---------------      ----- ------------  ---------------
     3      2.645045   1 H  s               530      2.613606  31 N  s         
    37     -2.369300   3 H  s               480     -2.263950  29 C  s         
   130      2.202563   8 H  s               106      2.173444   7 N  s         
   216     -2.049832  14 H  s               488     -1.959754  29 C  py        
   377     -1.873310  23 H  s               174      1.677086  11 C  s         

 Vector   71  Occ=0.000000D+00  E= 5.462977D-02
              MO Center=  2.5D-01,  2.0D+00, -1.4D+00, r^2= 3.9D+01
   Bfn.  Coefficient  Atom+Function         Bfn.  Coefficient  Atom+Function  
  ----- ------------  ---------------      ----- ------------  ---------------
   344      4.648528  21 C  s               480     -4.478146  29 C  s         
   368      4.439785  22 H  s               317      3.421631  19 C  px        
   351      2.952561  21 C  px              353      2.888518  21 C  pz        
   377      2.234275  23 H  s               554     -2.209786  32 H  s         
   216     -2.146207  14 H  s               437     -2.026243  26 N  s         

 Vector   72  Occ=0.000000D+00  E= 5.744780D-02
              MO Center= -3.9D-01, -6.8D-01,  6.3D-01, r^2= 4.4D+01
   Bfn.  Coefficient  Atom+Function         Bfn.  Coefficient  Atom+Function  
  ----- ------------  ---------------      ----- ------------  ---------------
   344      4.090279  21 C  s               234     -2.951123  15 C  py        
   334      2.944758  20 H  s                 3      2.806702   1 H  s         
   437     -2.648924  26 N  s               216      2.516877  14 H  s         
   130     -2.349966   8 H  s               461     -2.311521  27 H  s         
   488      2.195771  29 C  py              319      2.029736  19 C  pz        

 Vector   73  Occ=0.000000D+00  E= 6.130925D-02
              MO Center= -3.3D-01, -2.3D+00, -1.7D-01, r^2= 3.7D+01
   Bfn.  Coefficient  Atom+Function         Bfn.  Coefficient  Atom+Function  
  ----- ------------  ---------------      ----- ------------  ---------------
   387      3.692230  24 C  s                46      3.600376   4 H  s         
   207     -3.190140  13 H  s               437     -3.041035  26 N  s         
   164      2.604524  10 H  s               334     -2.465549  20 H  s         
   461     -1.971848  27 H  s               317      1.893581  19 C  px        
   530      1.899808  31 N  s                56     -1.829554   5 C  s         

 Vector   74  Occ=0.000000D+00  E= 6.212462D-02
              MO Center=  5.1D-01, -1.6D+00,  4.2D-01, r^2= 4.0D+01
   Bfn.  Coefficient  Atom+Function         Bfn.  Coefficient  Atom+Function  
  ----- ------------  ---------------      ----- ------------  ---------------
   164     -4.324935  10 H  s                56      4.001645   5 C  s         
   334     -3.854113  20 H  s                63      3.728020   5 C  px        
   198      3.718142  12 H  s                37      3.607947   3 H  s         
   148      3.112792   9 C  py              113      2.829950   7 N  px        
    13      2.607633   2 C  s               319     -1.945027  19 C  pz        

 Vector   75  Occ=0.000000D+00  E= 7.073156D-02
              MO Center=  5.6D-01,  7.1D-03, -5.1D-01, r^2= 4.4D+01
   Bfn.  Coefficient  Atom+Function         Bfn.  Coefficient  Atom+Function  
  ----- ------------  ---------------      ----- ------------  ---------------
   368      6.018411  22 H  s               334     -4.576156  20 H  s         
   216      4.327039  14 H  s                56     -3.700293   5 C  s         
   164     -3.537775  10 H  s               234     -3.372334  15 C  py        
   198     -2.958560  12 H  s               353      2.960222  21 C  pz        
     3      2.802449   1 H  s               480     -2.741998  29 C  s         

 Vector   76  Occ=0.000000D+00  E= 7.522343D-02
              MO Center=  3.4D-01,  2.0D+00, -1.6D+00, r^2= 3.6D+01
   Bfn.  Coefficient  Atom+Function         Bfn.  Coefficient  Atom+Function  
  ----- ------------  ---------------      ----- ------------  ---------------
   480      5.795338  29 C  s               377     -4.747574  23 H  s         
   563      4.045627  33 H  s               344     -3.615870  21 C  s         
   334     -3.573512  20 H  s               387      3.066476  24 C  s         
    56      2.554305   5 C  s               554     -2.528008  32 H  s         
   234      2.454518  15 C  py              319     -2.403287  19 C  pz        

 Vector   77  Occ=0.000000D+00  E= 7.755926D-02
              MO Center=  7.9D-01, -1.9D+00,  5.7D-01, r^2= 3.9D+01
   Bfn.  Coefficient  Atom+Function         Bfn.  Coefficient  Atom+Function  
  ----- ------------  ---------------      ----- ------------  ---------------
   164      6.831666  10 H  s               207      5.947132  13 H  s         
   234      5.084661  15 C  py              149     -4.036407   9 C  pz        
   198     -3.652510  12 H  s               183      2.671220  11 C  pz        
   437     -2.663708  26 N  s               334     -2.500406  20 H  s         
   140     -2.336084   9 C  s               216     -2.331829  14 H  s         

 Vector   78  Occ=0.000000D+00  E= 8.430423D-02
              MO Center=  1.9D-01, -3.1D+00, -1.6D-02, r^2= 3.5D+01
   Bfn.  Coefficient  Atom+Function         Bfn.  Coefficient  Atom+Function  
  ----- ------------  ---------------      ----- ------------  ---------------
   130      6.086284   8 H  s               207     -3.806566  13 H  s         
    37      3.381131   3 H  s               480     -3.356097  29 C  s         
    46     -3.034629   4 H  s               216      3.001138  14 H  s         
     3     -2.979317   1 H  s               147      2.903282   9 C  px        
   470      2.812588  28 H  s               198     -2.704161  12 H  s         

 Vector   79  Occ=0.000000D+00  E= 9.171411D-02
              MO Center= -6.2D-01, -5.0D-01, -4.7D-02, r^2= 3.9D+01
   Bfn.  Coefficient  Atom+Function         Bfn.  Coefficient  Atom+Function  
  ----- ------------  ---------------      ----- ------------  ---------------
   470     -6.094394  28 H  s               368      5.705115  22 H  s         
   300      5.135306  18 H  s                64      3.991208   5 C  py        
   563     -3.855525  33 H  s                56      3.748147   5 C  s         
   216     -3.704626  14 H  s               377     -3.668757  23 H  s         
    37      3.560994   3 H  s               488      3.161527  29 C  py        

 Vector   80  Occ=0.000000D+00  E= 1.030371D-01
              MO Center= -7.3D-01,  4.0D-01, -7.4D-01, r^2= 3.5D+01
   Bfn.  Coefficient  Atom+Function         Bfn.  Coefficient  Atom+Function  
  ----- ------------  ---------------      ----- ------------  ---------------
   387     11.690355  24 C  s               377     10.266462  23 H  s         
   368     -8.823004  22 H  s               344     -7.654031  21 C  s         
   470     -6.529567  28 H  s               234     -5.654344  15 C  py        
   352      5.622521  21 C  py              174     -5.438190  11 C  s         
   300      4.933903  18 H  s               318     -4.902374  19 C  py        

 Vector   81  Occ=0.000000D+00  E= 1.081568D-01
              MO Center= -1.4D+00,  1.2D+00, -8.4D-01, r^2= 3.1D+01
   Bfn.  Coefficient  Atom+Function         Bfn.  Coefficient  Atom+Function  
  ----- ------------  ---------------      ----- ------------  ---------------
   387     32.222061  24 C  s               344    -13.020961  21 C  s         
   437     -9.302211  26 N  s               310     -8.589851  19 C  s         
   394      7.023416  24 C  px              470     -6.491311  28 H  s         
   351      6.200928  21 C  px              395     -5.166934  24 C  py        
   234     -4.360147  15 C  py              317      3.724498  19 C  px        

 Vector   82  Occ=0.000000D+00  E= 1.142447D-01
              MO Center=  3.4D-01, -6.0D-03,  7.6D-01, r^2= 3.8D+01
   Bfn.  Coefficient  Atom+Function         Bfn.  Coefficient  Atom+Function  
  ----- ------------  ---------------      ----- ------------  ---------------
   480     19.041790  29 C  s               387    -11.312261  24 C  s         
    13     -7.924464   2 C  s               164      7.684697  10 H  s         
   276     -6.997483  17 N  s               318     -6.696145  19 C  py        
   310      6.136420  19 C  s               470     -6.055209  28 H  s         
   317     -5.759866  19 C  px               63     -5.634460   5 C  px        

 Vector   83  Occ=0.000000D+00  E= 1.182381D-01
              MO Center= -1.3D+00, -6.9D-01,  2.6D-01, r^2= 3.4D+01
   Bfn.  Coefficient  Atom+Function         Bfn.  Coefficient  Atom+Function  
  ----- ------------  ---------------      ----- ------------  ---------------
   480     14.787752  29 C  s               344    -11.457965  21 C  s         
   174    -11.389192  11 C  s               470      9.448040  28 H  s         
    56      9.230324   5 C  s                13     -6.512938   2 C  s         
   530     -5.861854  31 N  s               147      5.792517   9 C  px        
   318     -4.660257  19 C  py              317     -4.433088  19 C  px        

 Vector   84  Occ=0.000000D+00  E= 1.275393D-01
              MO Center=  9.3D-01,  8.7D-01,  3.1D-01, r^2= 3.2D+01
   Bfn.  Coefficient  Atom+Function         Bfn.  Coefficient  Atom+Function  
  ----- ------------  ---------------      ----- ------------  ---------------
   387     15.924339  24 C  s               234      9.521484  15 C  py        
   344     -8.152267  21 C  s               470     -6.414267  28 H  s         
   164      6.110548  10 H  s               334     -5.230721  20 H  s         
   437     -4.918560  26 N  s               377      4.757496  23 H  s         
   300     -4.650734  18 H  s               530     -3.847504  31 N  s         

 Vector   85  Occ=0.000000D+00  E= 1.311865D-01
              MO Center=  1.7D+00, -2.5D+00,  8.2D-01, r^2= 2.7D+01
   Bfn.  Coefficient  Atom+Function         Bfn.  Coefficient  Atom+Function  
  ----- ------------  ---------------      ----- ------------  ---------------
    56     16.506627   5 C  s               174    -13.888670  11 C  s         
   106     -8.389305   7 N  s               480      8.092840  29 C  s         
   147      7.632751   9 C  px              149      7.117996   9 C  pz        
   148     -6.957973   9 C  py              181      6.322155  11 C  px        
   318     -5.677310  19 C  py              226      5.604226  15 C  s         

 Vector   86  Occ=0.000000D+00  E= 1.357486D-01
              MO Center=  1.4D+00, -1.9D-01,  2.0D-01, r^2= 3.1D+01
   Bfn.  Coefficient  Atom+Function         Bfn.  Coefficient  Atom+Function  
  ----- ------------  ---------------      ----- ------------  ---------------
   387     13.682048  24 C  s               344     -7.194427  21 C  s         
   174      7.100807  11 C  s               310     -6.342979  19 C  s         
    56     -5.220360   5 C  s               164     -4.815520  10 H  s         
   530      4.505023  31 N  s               394      4.065104  24 C  px        
   198      3.859760  12 H  s               488     -3.804582  29 C  py        

 Vector   87  Occ=0.000000D+00  E= 1.408057D-01
              MO Center=  4.4D-01,  2.4D+00, -1.8D+00, r^2= 2.2D+01
   Bfn.  Coefficient  Atom+Function         Bfn.  Coefficient  Atom+Function  
  ----- ------------  ---------------      ----- ------------  ---------------
   530      7.539722  31 N  s               318     -6.518106  19 C  py        
   234     -6.459890  15 C  py              480     -6.427496  29 C  s         
   174     -5.953874  11 C  s               226     -4.353147  15 C  s         
   353      3.850404  21 C  pz              334      3.637389  20 H  s         
   235      3.422681  15 C  pz              310     -3.240662  19 C  s         

 Vector   88  Occ=0.000000D+00  E= 1.417036D-01
              MO Center=  6.7D-01, -2.2D+00,  5.1D-01, r^2= 2.8D+01
   Bfn.  Coefficient  Atom+Function         Bfn.  Coefficient  Atom+Function  
  ----- ------------  ---------------      ----- ------------  ---------------
   147     10.089249   9 C  px              174     -9.739790  11 C  s         
    56      8.689276   5 C  s                63      7.981897   5 C  px        
   234     -6.798240  15 C  py               64      6.239309   5 C  py        
   387      4.455373  24 C  s                13      4.318511   2 C  s         
    12     -3.963512   2 C  s                46      3.855985   4 H  s         

 Vector   89  Occ=0.000000D+00  E= 1.464206D-01
              MO Center=  1.5D-01, -2.2D+00,  1.8D-01, r^2= 3.4D+01
   Bfn.  Coefficient  Atom+Function         Bfn.  Coefficient  Atom+Function  
  ----- ------------  ---------------      ----- ------------  ---------------
   234      8.935462  15 C  py              147      7.014633   9 C  px        
   318      6.280377  19 C  py              106      5.784511   7 N  s         
   437      5.431812  26 N  s                12     -4.901501   2 C  s         
   387     -4.804865  24 C  s               164      4.557851  10 H  s         
    63      4.191626   5 C  px                2      4.017643   1 H  s         

 Vector   90  Occ=0.000000D+00  E= 1.487627D-01
              MO Center=  2.2D-01, -6.3D-01,  5.5D-02, r^2= 3.2D+01
   Bfn.  Coefficient  Atom+Function         Bfn.  Coefficient  Atom+Function  
  ----- ------------  ---------------      ----- ------------  ---------------
   344     -9.289478  21 C  s               234      8.642748  15 C  py        
   164     -6.872743  10 H  s                63      6.733189   5 C  px        
   317     -5.510631  19 C  px              149      4.919212   9 C  pz        
   174      4.674712  11 C  s               488     -4.089843  29 C  py        
    56      3.984268   5 C  s               106     -3.654273   7 N  s         

[...]
  ----- ------------  ---------------      ----- ------------  ---------------
   387     11.140630  24 C  s               530     10.238208  31 N  s         
   344     -8.285170  21 C  s               445     -6.697875  26 N  py        
   276      6.614263  17 N  s               480     -6.020030  29 C  s         
   173      5.947959  11 C  s               174      5.305580  11 C  s         
   310     -4.612550  19 C  s               206     -4.500021  13 H  s         

 Vector  161  Occ=0.000000D+00  E= 4.318780D-01
              MO Center=  2.2D-01,  2.5D-01, -2.1D-01, r^2= 2.2D+01
   Bfn.  Coefficient  Atom+Function         Bfn.  Coefficient  Atom+Function  
  ----- ------------  ---------------      ----- ------------  ---------------
   344    -10.334521  21 C  s               174      9.629099  11 C  s         
   234      7.233373  15 C  py              235      7.120192  15 C  pz        
   480      6.804723  29 C  s               333     -6.489649  20 H  s         
   387      6.126865  24 C  s               300      5.340319  18 H  s         
   285     -5.236897  17 N  pz              489     -4.874986  29 C  pz        

 Vector  162  Occ=0.000000D+00  E= 4.348768D-01
              MO Center=  2.8D-01, -1.0D-01, -2.3D-01, r^2= 2.0D+01
   Bfn.  Coefficient  Atom+Function         Bfn.  Coefficient  Atom+Function  
  ----- ------------  ---------------      ----- ------------  ---------------
   437     13.991549  26 N  s               148    -10.355630   9 C  py        
   317      9.005581  19 C  px              344      8.716649  21 C  s         
   234     -8.496988  15 C  py              480     -8.529444  29 C  s         
   174     -7.834228  11 C  s               284     -7.675986  17 N  py        
   235      6.784823  15 C  pz              530      6.694287  31 N  s         

 Vector  163  Occ=0.000000D+00  E= 4.423984D-01
              MO Center= -3.7D-01, -3.0D-01, -5.9D-02, r^2= 2.3D+01
   Bfn.  Coefficient  Atom+Function         Bfn.  Coefficient  Atom+Function  
  ----- ------------  ---------------      ----- ------------  ---------------
   480     20.672257  29 C  s               530    -16.348399  31 N  s         
   276    -10.033794  17 N  s                13     -8.454613   2 C  s         
   147     -6.533281   9 C  px              344     -5.779621  21 C  s         
    64     -5.199449   5 C  py              140      4.811393   9 C  s         
   317     -4.735130  19 C  px              233      4.316625  15 C  px        

 Vector  164  Occ=0.000000D+00  E= 4.463976D-01
              MO Center=  1.2D-01, -5.6D-01, -1.3D-01, r^2= 2.1D+01
   Bfn.  Coefficient  Atom+Function         Bfn.  Coefficient  Atom+Function  
  ----- ------------  ---------------      ----- ------------  ---------------
   480     12.404111  29 C  s               174     11.832589  11 C  s         
   276    -10.171265  17 N  s               530     -9.215610  31 N  s         
   319      7.601530  19 C  pz              387      7.445374  24 C  s         
    81     -7.068551   6 O  s                63     -5.955388   5 C  px        
   147     -5.899084   9 C  px              106      5.099632   7 N  s         

 Vector  165  Occ=0.000000D+00  E= 4.505256D-01
              MO Center= -6.3D-01, -4.2D-01,  2.2D-01, r^2= 2.1D+01
   Bfn.  Coefficient  Atom+Function         Bfn.  Coefficient  Atom+Function  
  ----- ------------  ---------------      ----- ------------  ---------------
   480     21.200828  29 C  s               437     11.530646  26 N  s         
   235      8.046959  15 C  pz              344     -7.697243  21 C  s         
    13     -7.313613   2 C  s               318     -6.637297  19 C  py        
   530     -6.389941  31 N  s               276     -6.303062  17 N  s         
   396     -5.875474  24 C  pz              310      5.651911  19 C  s         

 Vector  166  Occ=0.000000D+00  E= 4.561031D-01
              MO Center= -2.4D-01, -9.2D-02, -6.0D-02, r^2= 2.1D+01
   Bfn.  Coefficient  Atom+Function         Bfn.  Coefficient  Atom+Function  
  ----- ------------  ---------------      ----- ------------  ---------------
   387     15.318790  24 C  s               437    -10.673680  26 N  s         
    56     -9.248669   5 C  s               530     -9.157608  31 N  s         
   147     -7.854496   9 C  px              319      6.554214  19 C  pz        
   351      6.501204  21 C  px               63     -5.208613   5 C  px        
   174      4.959215  11 C  s                13     -4.320411   2 C  s         

 Vector  167  Occ=0.000000D+00  E= 4.585167D-01
              MO Center=  5.6D-01, -9.7D-01,  2.7D-01, r^2= 2.0D+01
   Bfn.  Coefficient  Atom+Function         Bfn.  Coefficient  Atom+Function  
  ----- ------------  ---------------      ----- ------------  ---------------
   174     14.691427  11 C  s                56    -10.874997   5 C  s         
   318      8.439608  19 C  py              215     -8.076281  14 H  s         
   173      7.969533  11 C  s               147     -6.966592   9 C  px        
   470     -6.420956  28 H  s               206     -6.267135  13 H  s         
   480     -6.279538  29 C  s               309      6.069111  19 C  s         

 Vector  168  Occ=0.000000D+00  E= 4.619500D-01
              MO Center=  9.2D-02,  8.6D-01, -2.9D-01, r^2= 2.1D+01
   Bfn.  Coefficient  Atom+Function         Bfn.  Coefficient  Atom+Function  
  ----- ------------  ---------------      ----- ------------  ---------------
   480     20.043568  29 C  s               318    -13.868083  19 C  py        
   387    -13.598826  24 C  s               234    -11.808322  15 C  py        
   174    -11.025577  11 C  s               310     10.884047  19 C  s         
   235     10.552789  15 C  pz               56      8.466025   5 C  s         
    13     -8.263527   2 C  s               319     -7.325219  19 C  pz        

 Vector  169  Occ=0.000000D+00  E= 4.671717D-01
              MO Center= -2.7D-01, -2.8D-01, -1.8D-02, r^2= 2.0D+01
   Bfn.  Coefficient  Atom+Function         Bfn.  Coefficient  Atom+Function  
  ----- ------------  ---------------      ----- ------------  ---------------
   480     22.544805  29 C  s               344    -16.572073  21 C  s         
   318    -12.073857  19 C  py              174     11.509581  11 C  s         
   437      8.119142  26 N  s               530     -7.669265  31 N  s         
   276     -7.288237  17 N  s               387     -6.501119  24 C  s         
    56     -6.408239   5 C  s               317     -6.125670  19 C  px        

 Vector  170  Occ=0.000000D+00  E= 4.709279D-01
              MO Center=  4.8D-01, -4.1D-01,  1.7D-01, r^2= 2.0D+01
   Bfn.  Coefficient  Atom+Function         Bfn.  Coefficient  Atom+Function  
  ----- ------------  ---------------      ----- ------------  ---------------
   344     13.202885  21 C  s               480    -11.094466  29 C  s         
   318      9.933186  19 C  py              234      9.460012  15 C  py        
   284     -8.448262  17 N  py               13      7.604621   2 C  s         
   113      7.354420   7 N  px               12     -5.402431   2 C  s         
    63      5.078790   5 C  px              387     -5.094598  24 C  s         

 Vector  171  Occ=0.000000D+00  E= 4.800091D-01
              MO Center=  9.9D-01, -1.3D+00, -1.0D-01, r^2= 2.1D+01
   Bfn.  Coefficient  Atom+Function         Bfn.  Coefficient  Atom+Function  
  ----- ------------  ---------------      ----- ------------  ---------------
   174     37.479131  11 C  s               480    -30.101433  29 C  s         
    56    -25.843891   5 C  s               344     17.845782  21 C  s         
   206    -12.693900  13 H  s               173     12.589101  11 C  s         
   147    -12.005714   9 C  px              318     11.234752  19 C  py        
    13     10.800857   2 C  s               197    -10.015609  12 H  s         

 Vector  172  Occ=0.000000D+00  E= 4.874688D-01
              MO Center=  2.8D-01, -5.7D-01,  8.1D-02, r^2= 2.0D+01
   Bfn.  Coefficient  Atom+Function         Bfn.  Coefficient  Atom+Function  
  ----- ------------  ---------------      ----- ------------  ---------------
   318     18.616746  19 C  py              437     15.944106  26 N  s         
   276     15.572641  17 N  s               480    -15.495148  29 C  s         
   387    -11.526419  24 C  s               148     10.245619   9 C  py        
   235     -7.896232  15 C  pz               81      7.545456   6 O  s         
   530      6.917133  31 N  s               106      6.638068   7 N  s         

 Vector  173  Occ=0.000000D+00  E= 4.886298D-01
              MO Center=  1.3D-01, -7.2D-01,  2.7D-01, r^2= 1.9D+01
   Bfn.  Coefficient  Atom+Function         Bfn.  Coefficient  Atom+Function  
  ----- ------------  ---------------      ----- ------------  ---------------
   387     11.505304  24 C  s               530      5.923633  31 N  s         
   480     -5.578761  29 C  s               343      5.298862  21 C  s         
   163      5.232827  10 H  s               437     -4.746624  26 N  s         
   114     -4.618030   7 N  py               81      4.293502   6 O  s         
   285     -4.131315  17 N  pz              376     -4.123310  23 H  s         

 Vector  174  Occ=0.000000D+00  E= 4.929654D-01
              MO Center=  3.5D-01, -4.3D-02,  2.7D-01, r^2= 2.0D+01
   Bfn.  Coefficient  Atom+Function         Bfn.  Coefficient  Atom+Function  
  ----- ------------  ---------------      ----- ------------  ---------------
   387     24.851993  24 C  s               480     19.909931  29 C  s         
   344    -17.990516  21 C  s                56     13.993528   5 C  s         
   174    -11.250613  11 C  s               437    -10.257776  26 N  s         
   318     -9.030365  19 C  py              148      8.159349   9 C  py        
   412     -7.780957  25 O  s               276     -7.627232  17 N  s         

 Vector  175  Occ=0.000000D+00  E= 4.962260D-01
              MO Center= -1.3D-01, -1.5D+00, -3.3D-01, r^2= 1.9D+01
   Bfn.  Coefficient  Atom+Function         Bfn.  Coefficient  Atom+Function  
  ----- ------------  ---------------      ----- ------------  ---------------
   387    -16.329607  24 C  s               344     15.961274  21 C  s         
   480    -11.685991  29 C  s               318     10.857822  19 C  py        
   343      8.829112  21 C  s               437      7.512183  26 N  s         
   376     -7.164017  23 H  s               235     -6.296971  15 C  pz        
   173      5.982981  11 C  s                13      4.994502   2 C  s         

 Vector  176  Occ=0.000000D+00  E= 4.976937D-01
              MO Center=  2.5D-01,  2.1D-01, -3.3D-01, r^2= 2.2D+01
   Bfn.  Coefficient  Atom+Function         Bfn.  Coefficient  Atom+Function  
  ----- ------------  ---------------      ----- ------------  ---------------
   387     13.998660  24 C  s               148     -7.702714   9 C  py        
   530     -6.875441  31 N  s                56      6.714932   5 C  s         
   412     -6.086841  25 O  s               234      5.403649  15 C  py        
   206      5.214668  13 H  s                13     -5.102526   2 C  s         
   318     -4.761262  19 C  py               81     -4.587852   6 O  s         

 Vector  177  Occ=0.000000D+00  E= 5.002614D-01
              MO Center= -4.8D-01, -1.4D+00, -1.9D-01, r^2= 2.0D+01
   Bfn.  Coefficient  Atom+Function         Bfn.  Coefficient  Atom+Function  
  ----- ------------  ---------------      ----- ------------  ---------------
   344     24.994814  21 C  s               480    -19.439639  29 C  s         
   234    -14.010777  15 C  py               12     13.083766   2 C  s         
   173    -12.574106  11 C  s               174    -11.726224  11 C  s         
   113    -10.040951   7 N  px              317      9.501974  19 C  px        
   351      8.680160  21 C  px              197      7.025592  12 H  s         


 center of mass
 --------------
 x =  -0.01353834 y =   0.08964843 z =   0.00886001

 moments of inertia (a.u.)
 ------------------
        5898.053913371275           0.000000000000          -0.000000000000
           0.000000000000        2499.540005936301           0.000000000000
          -0.000000000000           0.000000000000        7394.245952290089

  Mulliken analysis of the total density
  --------------------------------------

    Atom       Charge   Shell Charges
 -----------   ------   -------------------------------------------------------
    1 H    1     0.86   0.76  0.14 -0.00  0.03 -0.06
    2 C    6     6.12   2.01  0.66  0.20  0.03  2.07  1.01  0.00  0.06  0.08
    3 H    1     1.02   0.76  0.26  0.00  0.03 -0.04
    4 H    1     0.87   0.76  0.14 -0.00  0.03 -0.06
    5 C    6     5.17   2.01  0.68  0.11 -0.07  1.89  0.33 -0.02  0.24 -0.00
    6 O    8     8.81   2.01  0.81  0.99  0.16  2.81  1.87  0.17  0.01 -0.02
    7 N    7     7.59   2.01  0.72  0.84 -0.11  2.45  1.44  0.14  0.05  0.05
    8 H    1     0.97   0.77  0.21 -0.02  0.05 -0.04
    9 C    6     6.72   2.01  0.66  0.28  0.04  2.00  1.44 -0.05  0.14  0.20
   10 H    1     1.15   0.79  0.33 -0.00  0.03  0.01
   11 C    6     5.77   2.01  0.66  0.15  0.31  2.04  0.57 -0.03  0.07 -0.01
   12 H    1     0.98   0.77  0.25  0.02  0.03 -0.09
   13 H    1     0.90   0.77  0.14  0.03  0.03 -0.07
   14 H    1     0.98   0.77  0.25  0.01  0.03 -0.08
   15 C    6     4.25   2.01  0.68 -0.13  0.05  1.89 -0.03 -0.04  0.23 -0.42
   16 O    8     8.92   2.01  0.82  1.05  0.20  2.79  1.88  0.16  0.01  0.00
   17 N    7     7.52   2.01  0.72  0.86 -0.12  2.45  1.43  0.04  0.05  0.07
   18 H    1     1.02   0.75  0.22  0.01  0.06 -0.02
   19 C    6     6.29   2.01  0.66  0.25 -0.01  2.00  1.24 -0.06  0.14  0.08
   20 H    1     1.06   0.78  0.26  0.01  0.03 -0.01
   21 C    6     6.33   2.01  0.67  0.68  0.01  2.05  0.76 -0.02  0.09  0.10
   22 H    1     0.89   0.78  0.11  0.01  0.03 -0.04
   23 H    1     1.02   0.77  0.28 -0.01  0.03 -0.05
   24 C    6     4.48   2.01  0.68  0.02  0.00  1.91 -0.26  0.03  0.24 -0.17
   25 O    8     8.82   2.01  0.82  1.03  0.18  2.80  1.83  0.13  0.02 -0.00
   26 N    7     7.12   2.01  0.72  0.78 -0.22  2.47  1.24  0.10  0.04 -0.03
   27 H    1     1.05   0.76  0.26  0.00  0.05 -0.03
   28 H    1     0.81   0.72  0.24 -0.04  0.06 -0.18
   29 C    6     4.60   2.01  0.68  0.04  0.13  1.89 -0.22 -0.01  0.23 -0.15
   30 O    8     8.82   2.01  0.82  1.04  0.18  2.79  1.85  0.13  0.01 -0.00
   31 N    7     7.16   2.01  0.72  0.81 -0.21  2.47  1.27  0.07  0.04 -0.02
   32 H    1     0.97   0.75  0.19 -0.01  0.06 -0.02
   33 H    1     0.97   0.76  0.22 -0.02  0.05 -0.04

       Multipole analysis of the density wrt the origin
       ------------------------------------------------

     L   x y z        total         open         nuclear
     -   - - -        -----         ----         -------
     0   0 0 0      0.000000      0.000000    130.000000

     1   1 0 0      0.729834      0.000000     -0.000000
     1   0 1 0     -2.164215      0.000000      0.000000
     1   0 0 1     -0.488409      0.000000      0.000000

     2   2 0 0    -79.315180      0.000000   1105.045741
     2   1 1 0      5.821841      0.000000      3.608262
     2   1 0 1      1.747717      0.000000     13.217860
     2   0 2 0    -60.215030      0.000000   2965.801100
     2   0 1 1    -11.581743      0.000000    -22.716049
     2   0 0 2    -77.907969      0.000000    289.819907


 Task  times  cpu:     4006.4s     wall:     4264.9s


                                NWChem Input Module
                                -------------------


 Summary of allocated global arrays
-----------------------------------
  No active global arrays


MA_summarize_allocated_blocks: starting scan ...
MA_summarize_allocated_blocks: scan completed: 0 heap blocks, 0 stack blocks
MA usage statistics:

	allocation statistics:
					      heap	     stack
					      ----	     -----
	current number of blocks	         0	         0
	maximum number of blocks	        16	        14
	current total bytes		         0	         0
	maximum total bytes		    119944	  26741416
	maximum total K-bytes		       120	     26742
	maximum total M-bytes		         1	        27


                                     CITATION
                                     --------
                Please cite the following reference when publishing
                           results obtained with NWChem:

          E. Apra, E. J. Bylaska, W. A. de Jong, N. Govind, K. Kowalski,
       T. P. Straatsma, M. Valiev, H. J. J. van Dam, Y. Alexeev, J. Anchell,
       V. Anisimov, F. W. Aquino, R. Atta-Fynn, J. Autschbach, N. P. Bauman,
     J. C. Becca, D. E. Bernholdt, K. Bhaskaran-Nair, S. Bogatko, P. Borowski,
         J. Boschen, J. Brabec, A. Bruner, E. Cauet, Y. Chen, G. N. Chuev,
      C. J. Cramer, J. Daily, M. J. O. Deegan, T. H. Dunning Jr., M. Dupuis,
   K. G. Dyall, G. I. Fann, S. A. Fischer, A. Fonari, H. Fruchtl, L. Gagliardi,
      J. Garza, N. Gawande, S. Ghosh, K. Glaesemann, A. W. Gotz, J. Hammond,
       V. Helms, E. D. Hermes, K. Hirao, S. Hirata, M. Jacquelin, L. Jensen,
   B. G. Johnson, H. Jonsson, R. A. Kendall, M. Klemm, R. Kobayashi, V. Konkov,
      S. Krishnamoorthy, M. Krishnan, Z. Lin, R. D. Lins, R. J. Littlefield,
      A. J. Logsdail, K. Lopata, W. Ma, A. V. Marenich, J. Martin del Campo,
   D. Mejia-Rodriguez, J. E. Moore, J. M. Mullin, T. Nakajima, D. R. Nascimento,
    J. A. Nichols, P. J. Nichols, J. Nieplocha, A. Otero-de-la-Roza, B. Palmer,
    A. Panyala, T. Pirojsirikul, B. Peng, R. Peverati, J. Pittner, L. Pollack,
   R. M. Richard, P. Sadayappan, G. C. Schatz, W. A. Shelton, D. W. Silverstein,
   D. M. A. Smith, T. A. Soares, D. Song, M. Swart, H. L. Taylor, G. S. Thomas,
            V. Tipparaju, D. G. Truhlar, K. Tsemekhman, T. Van Voorhis,
      A. Vazquez-Mayagoitia, P. Verma, O. Villa, A. Vishnu, K. D. Vogiatzis,
        D. Wang, J. H. Weare, M. J. Williamson, T. L. Windus, K. Wolinski,
        A. T. Wong, Q. Wu, C. Yang, Q. Yu, M. Zacharias, Z. Zhang, Y. Zhao,
                                and R. J. Harrison
                        "NWChem: Past, present, and future
                         J. Chem. Phys. 152, 184102 (2020)
                               doi:10.1063/5.0004997

                                      AUTHORS
                                      -------
  E. Apra, E. J. Bylaska, N. Govind, K. Kowalski, M. Valiev, D. Mejia-Rodriguez,
       A. Kunitsa, N. P. Bauman, A. Panyala, W. A. de Jong, T. P. Straatsma,
   H. J. J. van Dam, D. Wang, T. L. Windus, J. Hammond, J. Autschbach, A. Woods,
    K. Bhaskaran-Nair, J. Brabec, K. Lopata, S. A. Fischer, S. Krishnamoorthy,
     M. Jacquelin, W. Ma, M. Klemm, O. Villa, Y. Chen, V. Anisimov, F. Aquino,
     S. Hirata, M. T. Hackler, E. Hermes, L. Jensen, J. E. Moore, J. C. Becca,
      V. Konjkov, T. Risthaus, M. Malagoli, A. Marenich, A. Otero-de-la-Roza,
        J. Mullin, P. Nichols, R. Peverati, J. Pittner, Y. Zhao, P.-D. Fan,
        A. Fonari, M. J. Williamson, R. J. Harrison, J. R. Rehr, M. Dupuis,
     D. Silverstein, D. M. A. Smith, J. Nieplocha, V. Tipparaju, M. Krishnan,
     B. E. Van Kuiken, A. Vazquez-Mayagoitia, M. Swart, Q. Wu, T. Van Voorhis,
     A. A. Auer, M. Nooijen, L. D. Crosby, E. Brown, G. Cisneros, G. I. Fann,
   H. Fruchtl, J. Garza, K. Hirao, R. A. Kendall, J. A. Nichols, K. Tsemekhman,
    K. Wolinski, J. Anchell, D. E. Bernholdt, P. Borowski, T. Clark, D. Clerc,
   H. Dachsel, M. J. O. Deegan, K. Dyall, D. Elwood, E. Glendening, M. Gutowski,
   A. C. Hess, J. Jaffe, B. G. Johnson, J. Ju, R. Kobayashi, R. Kutteh, Z. Lin,
   R. Littlefield, X. Long, B. Meng, T. Nakajima, S. Niu, L. Pollack, M. Rosing,
   K. Glaesemann, G. Sandrone, M. Stave, H. Taylor, G. Thomas, J. H. van Lenthe,
                               A. T. Wong, Z. Zhang.

 Total times  cpu:     4006.5s     wall:     4265.2s
