export TMOUT=5400
export TMPDIR=/tmp
export PTMPDIR=/tmp/ptmp
 argument  1 = ALA_PHE_2.nw
                                         
                                         


             Northwest Computational Chemistry Package (NWChem) 7.2.0
             --------------------------------------------------------


                    Environmental Molecular Sciences Laboratory
                       Pacific Northwest National Laboratory
                                Richland, WA 99352

                              Copyright (c) 1994-2022
                       Pacific Northwest National Laboratory
                            Battelle Memorial Institute

             NWChem is an open-source computational chemistry package
                        distributed under the terms of the
                      Educational Community License (ECL) 2.0
             A copy of the license is included with this distribution
                              in the LICENSE.TXT file

                                  ACKNOWLEDGMENT
                                  --------------

            This software and its documentation were developed at the
            EMSL at Pacific Northwest National Laboratory, a multiprogram
            national laboratory, operated for the U.S. Department of Energy
            by Battelle under Contract Number DE-AC05-76RL01830. Support
            for this work was provided by the Department of Energy Office
            of Biological and Environmental Research, Office of Basic
            Energy Sciences, and the Office of Advanced Scientific Computing.


           Job information
           ---------------

    hostname        = nova18-45
    program         = /opt/rit/el9/20230413/app/linux-rhel9-x86_64_v3/gcc-11.2.1/nwchem-7.2.0-oxtctbuhfuzyfaoziquq6bki22grib3g/bin/nwchem
    date            = Fri Jun 27 17:43:56 2025

    compiled        = Wed_May_17_23:46:39_2023
    source          = /tmp/root/spack-stage/spack-stage-nwchem-7.2.0-oxtctbuhfuzyfaoziquq6bki22grib3g/spack-src
    nwchem branch   = 7.2.0
    nwchem revision = d0d141fd
    ga revision     = 5.8.0
    use scalapack   = T
    input           = ALA_PHE_2.nw
    prefix          = ALA_PHE_2.
    data base       = ./ALA_PHE_2.db
    status          = startup
    nproc           =        8
    time left       =     -1s



           Memory information
           ------------------

    heap     =   26214398 doubles =    200.0 Mbytes
    stack    =   26214395 doubles =    200.0 Mbytes
    global   =   52428800 doubles =    400.0 Mbytes (distinct from heap & stack)
    total    =  104857593 doubles =    800.0 Mbytes
    verify   = yes
    hardfail = no 


           Directory information
           ---------------------

  0 permanent = .
  0 scratch   = .




                                NWChem Input Module
                                -------------------



 Scaling coordinates for geometry "geometry" by  1.889725989
 (inverse scale =  0.529177249)

 C1  symmetry detected

          ------
          auto-z
          ------
  no constraints, skipping    0.0000000000000000     
  no constraints, skipping    0.0000000000000000     


                             Geometry "geometry" -> ""
                             -------------------------

 Output coordinates in angstroms (scale by  1.889725989 to convert to a.u.)

  No.       Tag          Charge          X              Y              Z
 ---- ---------------- ---------- -------------- -------------- --------------
    1 H                    1.0000     3.85927240     3.39649532     0.81524436
    2 C                    6.0000     3.15087900     3.78568642     0.08438249
    3 H                    1.0000     3.39784283     3.39787908    -0.90209627
    4 H                    1.0000     3.19436641     4.87285843     0.08040017
    5 C                    6.0000     1.75953740     3.33991142     0.46708891
    6 O                    8.0000     1.58612599     2.64722872     1.46087117
    7 N                    7.0000     0.76622931     3.72593581    -0.33106032
    8 H                    1.0000     0.99860443     4.28499599    -1.13462085
    9 C                    6.0000    -0.65203353     3.41083772    -0.12098005
   10 H                    1.0000    -0.87351951     3.55164079     0.93853137
   11 C                    6.0000    -1.48725694     4.43222710    -0.90940481
   12 H                    1.0000    -1.23073364     5.44489318    -0.59658343
   13 H                    1.0000    -1.30236611     4.32250955    -1.97873892
   14 H                    1.0000    -2.54714009     4.26242559    -0.71605501
   15 C                    6.0000    -1.00853657     1.93924893    -0.45182897
   16 O                    8.0000    -1.86020284     1.66448505    -1.29765896
   17 N                    7.0000    -0.33247028     0.98133240     0.18984018
   18 H                    1.0000     0.35871986     1.27601986     0.87186399
   19 C                    6.0000    -0.53311564    -0.45862239    -0.00278548
   20 H                    1.0000    -0.64921184    -0.64524757    -1.07110646
   21 C                    6.0000     0.73375735    -1.20162558     0.45492524
   22 H                    1.0000     1.60459559    -0.71428715     0.01377446
   23 H                    1.0000     0.83104304    -1.11650106     1.53914538
   24 C                    6.0000     0.76826570    -2.66733006     0.05686422
   25 C                    6.0000     1.17834781    -3.03133608    -1.23955635
   26 H                    1.0000     1.47259532    -2.27012658    -1.94775724
   27 C                    6.0000     1.21029126    -4.38642534    -1.61772522
   28 H                    1.0000     1.52586740    -4.66332063    -2.61368391
   29 C                    6.0000     0.83061873    -5.38105542    -0.70091130
   30 H                    1.0000     0.85261427    -6.42310223    -0.99008884
   31 C                    6.0000     0.41985991    -5.02086347     0.59451177
   32 H                    1.0000     0.12339052    -5.78439906     1.30108400
   33 C                    6.0000     0.39031880    -3.66752940     0.97375211
   34 H                    1.0000     0.06643722    -3.39394891     1.96796961
   35 C                    6.0000    -1.82400522    -0.95112571     0.68293062
   36 O                    8.0000    -1.81340037    -1.54408046     1.75601831
   37 N                    7.0000    -2.97660305    -0.66845436     0.09128787
   38 H                    1.0000    -2.97578957    -0.09715117    -0.74234455
   39 H                    1.0000    -3.82843091    -0.96638561     0.53316485

      Atomic Mass 
      ----------- 

      H                  1.007825
      C                 12.000000
      O                 15.994910
      N                 14.003070


 Effective nuclear repulsion energy (a.u.)    1551.9733204718

            Nuclear Dipole moment (a.u.) 
            ----------------------------
        X                 Y               Z
 ---------------- ---------------- ----------------
     0.0000000000    -0.0000000000     0.0000000000



                                Z-matrix (autoz)
                                -------- 

 Units are Angstrom for bonds and degrees for angles

      Type          Name      I     J     K     L     M      Value
      ----------- --------  ----- ----- ----- ----- ----- ----------
    1 Stretch                  1     2                       1.08970
    2 Stretch                  2     3                       1.08836
    3 Stretch                  2     4                       1.08805
    4 Stretch                  2     5                       1.51030
    5 Stretch                  5     6                       1.22372
    6 Stretch                  5     7                       1.33143
    7 Stretch                  7     8                       1.00611
    8 Stretch                  7     9                       1.46795
    9 Stretch                  9    10                       1.09153
   10 Stretch                  9    11                       1.53703
   11 Stretch                  9    15                       1.54988
   12 Stretch                 11    12                       1.09048
   13 Stretch                 11    13                       1.09073
   14 Stretch                 11    14                       1.09067
   15 Stretch                 15    16                       1.23136
   16 Stretch                 15    17                       1.33657
   17 Stretch                 17    18                       1.01476
   18 Stretch                 17    19                       1.46657
   19 Stretch                 19    20                       1.09070
   20 Stretch                 19    21                       1.53835
   21 Stretch                 19    35                       1.54245
   22 Stretch                 21    22                       1.09109
   23 Stretch                 21    23                       1.09190
   24 Stretch                 21    24                       1.51919
   25 Stretch                 24    25                       1.40761
   26 Stretch                 24    33                       1.40852
   27 Stretch                 25    26                       1.08054
   28 Stretch                 25    27                       1.40723
   29 Stretch                 27    28                       1.08083
   30 Stretch                 27    29                       1.40499
   31 Stretch                 29    30                       1.08165
   32 Stretch                 29    31                       1.40591
   33 Stretch                 31    32                       1.08172
   34 Stretch                 31    33                       1.40578
   35 Stretch                 33    34                       1.08084
   36 Stretch                 35    36                       1.22606
   37 Stretch                 35    37                       1.32606
   38 Stretch                 37    38                       1.01061
   39 Stretch                 37    39                       1.00480
   40 Bend                     1     2     3               109.45954
   41 Bend                     1     2     4               109.47152
   42 Bend                     1     2     5               108.87512
   43 Bend                     2     5     6               120.22545
   44 Bend                     2     5     7               116.73103
   45 Bend                     3     2     4               110.09935
   46 Bend                     3     2     5               109.48420
   47 Bend                     4     2     5               109.43067
   48 Bend                     5     7     8               117.87715
   49 Bend                     5     7     9               124.94327
   50 Bend                     6     5     7               123.03975
   51 Bend                     7     9    10               107.89462
   52 Bend                     7     9    11               107.99642
   53 Bend                     7     9    15               113.29666
   54 Bend                     8     7     9               117.17565
   55 Bend                     9    11    12               110.00639
   56 Bend                     9    11    13               110.11674
   57 Bend                     9    11    14               109.49175
   58 Bend                     9    15    16               121.17070
   59 Bend                     9    15    17               117.49450
   60 Bend                    10     9    11               107.57311
   61 Bend                    10     9    15               106.43996
   62 Bend                    11     9    15               113.35724
   63 Bend                    12    11    13               109.55880
   64 Bend                    12    11    14               108.80319
   65 Bend                    13    11    14               108.83612
   66 Bend                    15    17    18               117.32727
   67 Bend                    15    17    19               124.85018
   68 Bend                    16    15    17               121.31223
   69 Bend                    17    19    20               108.13238
   70 Bend                    17    19    21               108.81256
   71 Bend                    17    19    35               111.69171
   72 Bend                    18    17    19               117.81348
   73 Bend                    19    21    22               108.73919
   74 Bend                    19    21    23               109.33930
   75 Bend                    19    21    24               113.99954
   76 Bend                    19    35    36               122.43057
   77 Bend                    19    35    37               117.45294
   78 Bend                    20    19    21               107.24426
   79 Bend                    20    19    35               106.96130
   80 Bend                    21    19    35               113.74872
   81 Bend                    21    24    25               119.83049
   82 Bend                    21    24    33               120.56042
   83 Bend                    22    21    23               107.19023
   84 Bend                    22    21    24               107.86999
   85 Bend                    23    21    24               109.47351
   86 Bend                    24    25    26               120.05286
   87 Bend                    24    25    27               120.20756
   88 Bend                    24    33    31               120.15670
   89 Bend                    24    33    34               119.96391
   90 Bend                    25    24    33               119.60895
   91 Bend                    25    27    28               120.06311
   92 Bend                    25    27    29               120.01350
   93 Bend                    26    25    27               119.73938
   94 Bend                    27    29    30               120.13615
   95 Bend                    27    29    31               119.92352
   96 Bend                    28    27    29               119.92336
   97 Bend                    29    31    32               120.07248
   98 Bend                    29    31    33               120.08953
   99 Bend                    30    29    31               119.94029
  100 Bend                    31    33    34               119.87604
  101 Bend                    32    31    33               119.83782
  102 Bend                    35    37    38               119.19868
  103 Bend                    35    37    39               118.51891
  104 Bend                    36    35    37               120.07352
  105 Bend                    38    37    39               122.07665
  106 Torsion                  1     2     5     6          -0.33214
  107 Torsion                  1     2     5     7        -179.64807
  108 Torsion                  2     5     7     8           0.08554
  109 Torsion                  2     5     7     9        -179.17172
  110 Torsion                  3     2     5     6         119.29965
  111 Torsion                  3     2     5     7         -60.01627
  112 Torsion                  4     2     5     6        -119.94669
  113 Torsion                  4     2     5     7          60.73738
  114 Torsion                  5     7     9    10          43.15199
  115 Torsion                  5     7     9    11         159.15905
  116 Torsion                  5     7     9    15         -74.41801
  117 Torsion                  6     5     7     8        -179.20937
  118 Torsion                  6     5     7     9           1.53338
  119 Torsion                  7     9    11    12         -56.65357
  120 Torsion                  7     9    11    13          64.19573
  121 Torsion                  7     9    11    14        -176.17479
  122 Torsion                  7     9    15    16        -121.71459
  123 Torsion                  7     9    15    17          56.57945
  124 Torsion                  8     7     9    10        -136.10999
  125 Torsion                  8     7     9    11         -20.10293
  126 Torsion                  8     7     9    15         106.32001
  127 Torsion                  9    15    17    18           1.42583
  128 Torsion                  9    15    17    19        -179.69724
  129 Torsion                 10     9    11    12          59.56326
  130 Torsion                 10     9    11    13        -179.58745
  131 Torsion                 10     9    11    14         -59.95796
  132 Torsion                 10     9    15    16         119.86996
  133 Torsion                 10     9    15    17         -61.83600
  134 Torsion                 11     9    15    16           1.81486
  135 Torsion                 11     9    15    17        -179.89110
  136 Torsion                 12    11     9    15         176.95892
  137 Torsion                 13    11     9    15         -62.19179
  138 Torsion                 14    11     9    15          57.43770
  139 Torsion                 15    17    19    20          42.03179
  140 Torsion                 15    17    19    21         158.20608
  141 Torsion                 15    17    19    35         -75.39584
  142 Torsion                 16    15    17    18         179.71731
  143 Torsion                 16    15    17    19          -1.40575
  144 Torsion                 17    19    21    22         -48.13525
  145 Torsion                 17    19    21    23          68.59654
  146 Torsion                 17    19    21    24        -168.51554
  147 Torsion                 17    19    35    36        -101.80846
  148 Torsion                 17    19    35    37          75.80640
  149 Torsion                 18    17    19    20        -139.09626
  150 Torsion                 18    17    19    21         -22.92197
  151 Torsion                 18    17    19    35         103.47611
  152 Torsion                 19    21    24    25          81.90963
  153 Torsion                 19    21    24    33         -97.95568
  154 Torsion                 19    35    37    38          -3.95260
  155 Torsion                 19    35    37    39        -178.85009
  156 Torsion                 20    19    21    22          68.60816
  157 Torsion                 20    19    21    23        -174.66005
  158 Torsion                 20    19    21    24         -51.77213
  159 Torsion                 20    19    35    36         140.06095
  160 Torsion                 20    19    35    37         -42.32419
  161 Torsion                 21    19    35    36          21.84532
  162 Torsion                 21    19    35    37        -160.53983
  163 Torsion                 21    24    25    26           0.31393
  164 Torsion                 21    24    25    27        -179.85007
  165 Torsion                 21    24    33    31         179.72044
  166 Torsion                 21    24    33    34           0.38663
  167 Torsion                 22    21    19    35        -173.33903
  168 Torsion                 22    21    24    25         -38.95642
  169 Torsion                 22    21    24    33         141.17827
  170 Torsion                 23    21    19    35         -56.60724
  171 Torsion                 23    21    24    25        -155.27567
  172 Torsion                 23    21    24    33          24.85902
  173 Torsion                 24    21    19    35          66.28068
  174 Torsion                 24    25    27    28        -179.98014
  175 Torsion                 24    25    27    29           0.07875
  176 Torsion                 24    33    31    29           0.17885
  177 Torsion                 24    33    31    32        -179.66859
  178 Torsion                 25    24    33    31          -0.14516
  179 Torsion                 25    24    33    34        -179.47897
  180 Torsion                 25    27    29    30         179.88312
  181 Torsion                 25    27    29    31          -0.04555
  182 Torsion                 26    25    24    33        -179.81947
  183 Torsion                 26    25    27    28          -0.14362
  184 Torsion                 26    25    27    29         179.91527
  185 Torsion                 27    25    24    33           0.01653
  186 Torsion                 27    29    31    32         179.76408
  187 Torsion                 27    29    31    33          -0.08301
  188 Torsion                 28    27    29    30          -0.05807
  189 Torsion                 28    27    29    31        -179.98674
  190 Torsion                 29    31    33    34         179.51325
  191 Torsion                 30    29    31    32          -0.16473
  192 Torsion                 30    29    31    33         179.98818
  193 Torsion                 32    31    33    34          -0.33420
  194 Torsion                 36    35    37    38         173.72111
  195 Torsion                 36    35    37    39          -1.17639


            XYZ format geometry
            -------------------
    39
 geometry
 H                     3.85927240     3.39649532     0.81524436
 C                     3.15087900     3.78568642     0.08438249
 H                     3.39784283     3.39787908    -0.90209627
 H                     3.19436641     4.87285843     0.08040017
 C                     1.75953740     3.33991142     0.46708891
 O                     1.58612599     2.64722872     1.46087117
 N                     0.76622931     3.72593581    -0.33106032
 H                     0.99860443     4.28499599    -1.13462085
 C                    -0.65203353     3.41083772    -0.12098005
 H                    -0.87351951     3.55164079     0.93853137
 C                    -1.48725694     4.43222710    -0.90940481
 H                    -1.23073364     5.44489318    -0.59658343
 H                    -1.30236611     4.32250955    -1.97873892
 H                    -2.54714009     4.26242559    -0.71605501
 C                    -1.00853657     1.93924893    -0.45182897
 O                    -1.86020284     1.66448505    -1.29765896
 N                    -0.33247028     0.98133240     0.18984018
 H                     0.35871986     1.27601986     0.87186399
 C                    -0.53311564    -0.45862239    -0.00278548
 H                    -0.64921184    -0.64524757    -1.07110646
 C                     0.73375735    -1.20162558     0.45492524
 H                     1.60459559    -0.71428715     0.01377446
 H                     0.83104304    -1.11650106     1.53914538
 C                     0.76826570    -2.66733006     0.05686422
 C                     1.17834781    -3.03133608    -1.23955635
 H                     1.47259532    -2.27012658    -1.94775724
 C                     1.21029126    -4.38642534    -1.61772522
 H                     1.52586740    -4.66332063    -2.61368391
 C                     0.83061873    -5.38105542    -0.70091130
 H                     0.85261427    -6.42310223    -0.99008884
 C                     0.41985991    -5.02086347     0.59451177
 H                     0.12339052    -5.78439906     1.30108400
 C                     0.39031880    -3.66752940     0.97375211
 H                     0.06643722    -3.39394891     1.96796961
 C                    -1.82400522    -0.95112571     0.68293062
 O                    -1.81340037    -1.54408046     1.75601831
 N                    -2.97660305    -0.66845436     0.09128787
 H                    -2.97578957    -0.09715117    -0.74234455
 H                    -3.82843091    -0.96638561     0.53316485

 ==============================================================================
                                internuclear distances
 ------------------------------------------------------------------------------
       center one      |      center two      | atomic units |  angstroms
 ------------------------------------------------------------------------------
    2 C                |   1 H                |     2.05924  |     1.08970
    3 H                |   2 C                |     2.05670  |     1.08836
    4 H                |   2 C                |     2.05611  |     1.08805
    5 C                |   2 C                |     2.85406  |     1.51030
    6 O                |   5 C                |     2.31249  |     1.22372
    7 N                |   5 C                |     2.51605  |     1.33143
    8 H                |   7 N                |     1.90127  |     1.00611
    9 C                |   7 N                |     2.77403  |     1.46795
   10 H                |   9 C                |     2.06270  |     1.09153
   11 C                |   9 C                |     2.90456  |     1.53703
   12 H                |  11 C                |     2.06071  |     1.09048
   13 H                |  11 C                |     2.06119  |     1.09073
   14 H                |  11 C                |     2.06107  |     1.09067
   15 C                |   9 C                |     2.92885  |     1.54988
   16 O                |  15 C                |     2.32694  |     1.23136
   17 N                |  15 C                |     2.52574  |     1.33657
   18 H                |  17 N                |     1.91762  |     1.01476
   19 C                |  17 N                |     2.77142  |     1.46657
   20 H                |  19 C                |     2.06112  |     1.09070
   21 C                |  19 C                |     2.90706  |     1.53835
   22 H                |  21 C                |     2.06186  |     1.09109
   23 H                |  21 C                |     2.06339  |     1.09190
   24 C                |  21 C                |     2.87085  |     1.51919
   25 C                |  24 C                |     2.66000  |     1.40761
   26 H                |  25 C                |     2.04193  |     1.08054
   27 C                |  25 C                |     2.65928  |     1.40723
   28 H                |  27 C                |     2.04247  |     1.08083
   29 C                |  27 C                |     2.65504  |     1.40499
   30 H                |  29 C                |     2.04402  |     1.08165
   31 C                |  29 C                |     2.65678  |     1.40591
   32 H                |  31 C                |     2.04416  |     1.08172
   33 C                |  24 C                |     2.66172  |     1.40852
   33 C                |  31 C                |     2.65653  |     1.40578
   34 H                |  33 C                |     2.04249  |     1.08084
   35 C                |  19 C                |     2.91481  |     1.54245
   36 O                |  35 C                |     2.31692  |     1.22606
   37 N                |  35 C                |     2.50588  |     1.32606
   38 H                |  37 N                |     1.90977  |     1.01061
   39 H                |  37 N                |     1.89880  |     1.00480
 ------------------------------------------------------------------------------
                         number of included internuclear distances:         39
 ==============================================================================



 ==============================================================================
                                 internuclear angles
 ------------------------------------------------------------------------------
        center 1       |       center 2       |       center 3       |  degrees
 ------------------------------------------------------------------------------
    1 H                |   2 C                |   3 H                |   109.46
    1 H                |   2 C                |   4 H                |   109.47
    1 H                |   2 C                |   5 C                |   108.88
    3 H                |   2 C                |   4 H                |   110.10
    3 H                |   2 C                |   5 C                |   109.48
    4 H                |   2 C                |   5 C                |   109.43
    2 C                |   5 C                |   6 O                |   120.23
    2 C                |   5 C                |   7 N                |   116.73
    6 O                |   5 C                |   7 N                |   123.04
    5 C                |   7 N                |   8 H                |   117.88
    5 C                |   7 N                |   9 C                |   124.94
    8 H                |   7 N                |   9 C                |   117.18
    7 N                |   9 C                |  10 H                |   107.89
    7 N                |   9 C                |  11 C                |   108.00
    7 N                |   9 C                |  15 C                |   113.30
   10 H                |   9 C                |  11 C                |   107.57
   10 H                |   9 C                |  15 C                |   106.44
   11 C                |   9 C                |  15 C                |   113.36
    9 C                |  11 C                |  12 H                |   110.01
    9 C                |  11 C                |  13 H                |   110.12
    9 C                |  11 C                |  14 H                |   109.49
   12 H                |  11 C                |  13 H                |   109.56
   12 H                |  11 C                |  14 H                |   108.80
   13 H                |  11 C                |  14 H                |   108.84
    9 C                |  15 C                |  16 O                |   121.17
    9 C                |  15 C                |  17 N                |   117.49
   16 O                |  15 C                |  17 N                |   121.31
   15 C                |  17 N                |  18 H                |   117.33
   15 C                |  17 N                |  19 C                |   124.85
   18 H                |  17 N                |  19 C                |   117.81
   17 N                |  19 C                |  20 H                |   108.13
   17 N                |  19 C                |  21 C                |   108.81
   17 N                |  19 C                |  35 C                |   111.69
   20 H                |  19 C                |  21 C                |   107.24
   20 H                |  19 C                |  35 C                |   106.96
   21 C                |  19 C                |  35 C                |   113.75
   19 C                |  21 C                |  22 H                |   108.74
   19 C                |  21 C                |  23 H                |   109.34
   19 C                |  21 C                |  24 C                |   114.00
   22 H                |  21 C                |  23 H                |   107.19
   22 H                |  21 C                |  24 C                |   107.87
   23 H                |  21 C                |  24 C                |   109.47
   21 C                |  24 C                |  25 C                |   119.83
   21 C                |  24 C                |  33 C                |   120.56
   25 C                |  24 C                |  33 C                |   119.61
   24 C                |  25 C                |  26 H                |   120.05
   24 C                |  25 C                |  27 C                |   120.21
   26 H                |  25 C                |  27 C                |   119.74
   25 C                |  27 C                |  28 H                |   120.06
   25 C                |  27 C                |  29 C                |   120.01
   28 H                |  27 C                |  29 C                |   119.92
   27 C                |  29 C                |  30 H                |   120.14
   27 C                |  29 C                |  31 C                |   119.92
   30 H                |  29 C                |  31 C                |   119.94
   29 C                |  31 C                |  32 H                |   120.07
   29 C                |  31 C                |  33 C                |   120.09
   32 H                |  31 C                |  33 C                |   119.84
   24 C                |  33 C                |  31 C                |   120.16
   24 C                |  33 C                |  34 H                |   119.96
   31 C                |  33 C                |  34 H                |   119.88
   19 C                |  35 C                |  36 O                |   122.43
   19 C                |  35 C                |  37 N                |   117.45
   36 O                |  35 C                |  37 N                |   120.07
   35 C                |  37 N                |  38 H                |   119.20
   35 C                |  37 N                |  39 H                |   118.52
   38 H                |  37 N                |  39 H                |   122.08
 ------------------------------------------------------------------------------
                            number of included internuclear angles:         66
 ==============================================================================



  library name resolved from: environment
  library file name is: </opt/rit/el9/20230413/app/linux-rhel9-x86_64_v3/gcc-11.2.1/nwchem-7.2.0-oxtctbuhfuzyfaoziquq6bki22grib3g/share/nwchem/libraries/>
  


 Summary of "ao basis" -> "" (cartesian)
 ------------------------------------------------------------------------------
       Tag                 Description            Shells   Functions and Types
 ---------------- ------------------------------  ------  ---------------------
 *                        aug-cc-pvdz                 on all atoms 


                      Basis "ao basis" -> "ao basis" (cartesian)
                      -----
  H (Hydrogen)
  ------------
            Exponent  Coefficients 
       -------------- ---------------------------------------------------------
  1 S  1.30100000E+01  0.019685
  1 S  1.96200000E+00  0.137977
  1 S  4.44600000E-01  0.478148

  2 S  1.22000000E-01  1.000000

  3 S  2.97400000E-02  1.000000

  4 P  7.27000000E-01  1.000000

  5 P  1.41000000E-01  1.000000

  C (Carbon)
  ----------
            Exponent  Coefficients 
       -------------- ---------------------------------------------------------
  1 S  6.66500000E+03  0.000692
  1 S  1.00000000E+03  0.005329
  1 S  2.28000000E+02  0.027077
  1 S  6.47100000E+01  0.101718
  1 S  2.10600000E+01  0.274740
  1 S  7.49500000E+00  0.448564
  1 S  2.79700000E+00  0.285074
  1 S  5.21500000E-01  0.015204

  2 S  6.66500000E+03 -0.000146
  2 S  1.00000000E+03 -0.001154
  2 S  2.28000000E+02 -0.005725
  2 S  6.47100000E+01 -0.023312
  2 S  2.10600000E+01 -0.063955
  2 S  7.49500000E+00 -0.149981
  2 S  2.79700000E+00 -0.127262
  2 S  5.21500000E-01  0.544529

  3 S  1.59600000E-01  1.000000

  4 S  4.69000000E-02  1.000000

  5 P  9.43900000E+00  0.038109
  5 P  2.00200000E+00  0.209480
  5 P  5.45600000E-01  0.508557

  6 P  1.51700000E-01  1.000000

  7 P  4.04100000E-02  1.000000

  8 D  5.50000000E-01  1.000000

  9 D  1.51000000E-01  1.000000

  O (Oxygen)
  ----------
            Exponent  Coefficients 
       -------------- ---------------------------------------------------------
  1 S  1.17200000E+04  0.000710
  1 S  1.75900000E+03  0.005470
  1 S  4.00800000E+02  0.027837
  1 S  1.13700000E+02  0.104800
  1 S  3.70300000E+01  0.283062
  1 S  1.32700000E+01  0.448719
  1 S  5.02500000E+00  0.270952
  1 S  1.01300000E+00  0.015458

  2 S  1.17200000E+04 -0.000160
  2 S  1.75900000E+03 -0.001263
  2 S  4.00800000E+02 -0.006267
  2 S  1.13700000E+02 -0.025716
  2 S  3.70300000E+01 -0.070924
  2 S  1.32700000E+01 -0.165411
  2 S  5.02500000E+00 -0.116955
  2 S  1.01300000E+00  0.557368

  3 S  3.02300000E-01  1.000000

  4 S  7.89600000E-02  1.000000

  5 P  1.77000000E+01  0.043018
  5 P  3.85400000E+00  0.228913
  5 P  1.04600000E+00  0.508728

  6 P  2.75300000E-01  1.000000

  7 P  6.85600000E-02  1.000000

  8 D  1.18500000E+00  1.000000

  9 D  3.32000000E-01  1.000000

  N (Nitrogen)
  ------------
            Exponent  Coefficients 
       -------------- ---------------------------------------------------------
  1 S  9.04600000E+03  0.000700
  1 S  1.35700000E+03  0.005389
  1 S  3.09300000E+02  0.027406
  1 S  8.77300000E+01  0.103207
  1 S  2.85600000E+01  0.278723
  1 S  1.02100000E+01  0.448540
  1 S  3.83800000E+00  0.278238
  1 S  7.46600000E-01  0.015440

  2 S  9.04600000E+03 -0.000153
  2 S  1.35700000E+03 -0.001208
  2 S  3.09300000E+02 -0.005992
  2 S  8.77300000E+01 -0.024544
  2 S  2.85600000E+01 -0.067459
  2 S  1.02100000E+01 -0.158078
  2 S  3.83800000E+00 -0.121831
  2 S  7.46600000E-01  0.549003

  3 S  2.24800000E-01  1.000000

  4 S  6.12400000E-02  1.000000

  5 P  1.35500000E+01  0.039919
  5 P  2.91700000E+00  0.217169
  5 P  7.97300000E-01  0.510319

  6 P  2.18500000E-01  1.000000

  7 P  5.61100000E-02  1.000000

  8 D  8.17000000E-01  1.000000

  9 D  2.30000000E-01  1.000000



 Summary of "ao basis" -> "ao basis" (cartesian)
 ------------------------------------------------------------------------------
       Tag                 Description            Shells   Functions and Types
 ---------------- ------------------------------  ------  ---------------------
 H                        aug-cc-pvdz                5        9   3s2p
 C                        aug-cc-pvdz                9       25   4s3p2d
 O                        aug-cc-pvdz                9       25   4s3p2d
 N                        aug-cc-pvdz                9       25   4s3p2d


                                 NWChem SCF Module
                                 -----------------



  ao basis        = "ao basis"
  functions       =   671
  atoms           =    39
  closed shells   =    74
  open shells     =     0
  charge          =   0.00
  wavefunction    = RHF 
  input vectors   = atomic
  output vectors  = ./ALA_PHE_2.movecs
  use symmetry    = F
  symmetry adapt  = F


 Summary of "ao basis" -> "ao basis" (cartesian)
 ------------------------------------------------------------------------------
       Tag                 Description            Shells   Functions and Types
 ---------------- ------------------------------  ------  ---------------------
 H                        aug-cc-pvdz                5        9   3s2p
 C                        aug-cc-pvdz                9       25   4s3p2d
 O                        aug-cc-pvdz                9       25   4s3p2d
 N                        aug-cc-pvdz                9       25   4s3p2d



 Forming initial guess at       1.2s


 !! The overlap matrix has  11 vectors deemed linearly dependent with
    eigenvalues:
 1.42D-06 1.77D-06 2.19D-06 2.66D-06 3.34D-06 3.98D-06 4.50D-06 5.38D-06
 6.99D-06 7.12D-06 8.08D-06


      Superposition of Atomic Density Guess
      -------------------------------------

 Sum of atomic energies:        -924.03424378

      Non-variational initial energy
      ------------------------------

 Total energy =    -937.473508
 1-e energy   =   -4336.632924
 2-e energy   =    1847.186096
 HOMO         =      -0.289597
 LUMO         =      -0.023022


 Starting SCF solution at     280.2s



 ----------------------------------------------
         Quadratically convergent ROHF

 Convergence threshold     :          1.000E-04
 Maximum no. of iterations :           30
 Final Fock-matrix accuracy:          1.000E-10
 ----------------------------------------------


              iter       energy          gnorm     gmax       time
             ----- ------------------- --------- --------- --------
                 1     -928.9426375138  2.47D+00  1.83D-01    562.4
                 2     -929.2799111837  9.02D-01  4.09D-02   1149.8
                 3     -929.3499198889  6.22D-02  4.81D-03   2081.9
                 4     -929.3505041726  1.90D-03  1.07D-04   3586.2
                 5     -929.3505046471  5.23D-06  6.88D-07   5676.9


       Final RHF  results 
       ------------------ 

         Total SCF energy =   -929.350504647075
      One-electron energy =  -4351.560349415496
      Two-electron energy =   1870.236524296578
 Nuclear repulsion energy =   1551.973320471842

        Time for solution =   5403.8s


             Final eigenvalues
             -----------------

              1      
    1  -20.5481
    2  -20.5388
    3  -20.5129
    4  -15.6226
    5  -15.5969
    6  -15.5767
    7  -11.3779
    8  -11.3683
    9  -11.3458
   10  -11.3130
   11  -11.2928
   12  -11.2601
   13  -11.2502
   14  -11.2448
   15  -11.2413
   16  -11.2389
   17  -11.2374
   18  -11.2363
   19  -11.2351
   20  -11.2306
   21   -1.4142
   22   -1.3964
   23   -1.3735
   24   -1.2702
   25   -1.2444
   26   -1.2054
   27   -1.1442
   28   -1.0797
   29   -1.0597
   30   -1.0096
   31   -1.0045
   32   -0.9946
   33   -0.9123
   34   -0.8892
   35   -0.8329
   36   -0.8206
   37   -0.8131
   38   -0.7840
   39   -0.7767
   40   -0.7328
   41   -0.7284
   42   -0.7026
   43   -0.6903
   44   -0.6850
   45   -0.6767
   46   -0.6639
   47   -0.6356
   48   -0.6282
   49   -0.6216
   50   -0.6141
   51   -0.6054
   52   -0.5935
   53   -0.5878
   54   -0.5780
   55   -0.5656
   56   -0.5623
   57   -0.5560
   58   -0.5491
   59   -0.5462
   60   -0.5412
   61   -0.5371
   62   -0.5249
   63   -0.5118
   64   -0.4805
   65   -0.4804
   66   -0.4777
   67   -0.4599
   68   -0.4435
   69   -0.4336
   70   -0.4088
   71   -0.3976
   72   -0.3864
   73   -0.3250
   74   -0.3185
   75    0.0206
   76    0.0340
   77    0.0383
   78    0.0414
   79    0.0448
   80    0.0492
   81    0.0529
   82    0.0571
   83    0.0601
   84    0.0652

                       ROHF Final Molecular Orbital Analysis
                       -------------------------------------

 Vector   21  Occ=2.000000D+00  E=-1.414167D+00
              MO Center=  1.3D+00,  2.9D+00,  8.5D-01, r^2= 1.7D+00
   Bfn.  Coefficient  Atom+Function         Bfn.  Coefficient  Atom+Function  
  ----- ------------  ---------------      ----- ------------  ---------------
    80      0.341672   6 O  s                79      0.337495   6 O  s         
    54      0.237277   5 C  s                12      0.188317   2 C  s         

 Vector   22  Occ=2.000000D+00  E=-1.396379D+00
              MO Center= -1.3D+00,  1.7D+00, -7.1D-01, r^2= 2.1D+00
   Bfn.  Coefficient  Atom+Function         Bfn.  Coefficient  Atom+Function  
  ----- ------------  ---------------      ----- ------------  ---------------
   250      0.358046  16 O  s               249      0.337906  16 O  s         
   224      0.230320  15 C  s         

 Vector   23  Occ=2.000000D+00  E=-1.373467D+00
              MO Center= -1.9D+00, -1.2D+00,  1.2D+00, r^2= 1.3D+00
   Bfn.  Coefficient  Atom+Function         Bfn.  Coefficient  Atom+Function  
  ----- ------------  ---------------      ----- ------------  ---------------
   606      0.378994  36 O  s               605      0.348145  36 O  s         
   580      0.242926  35 C  s         

 Vector   24  Occ=2.000000D+00  E=-1.270174D+00
              MO Center=  7.5D-01,  3.5D+00, -5.1D-02, r^2= 1.9D+00
   Bfn.  Coefficient  Atom+Function         Bfn.  Coefficient  Atom+Function  
  ----- ------------  ---------------      ----- ------------  ---------------
   105      0.408659   7 N  s               104      0.340647   7 N  s         
    80     -0.216790   6 O  s                79     -0.182035   6 O  s         
   128      0.157152   8 H  s                59     -0.155791   5 C  pz        

 Vector   25  Occ=2.000000D+00  E=-1.244450D+00
              MO Center= -5.6D-01,  9.8D-01, -2.3D-03, r^2= 2.2D+00
   Bfn.  Coefficient  Atom+Function         Bfn.  Coefficient  Atom+Function  
  ----- ------------  ---------------      ----- ------------  ---------------
   275      0.429045  17 N  s               274      0.338175  17 N  s         
   250     -0.203602  16 O  s               309     -0.188557  19 C  s         
   249     -0.165660  16 O  s         

 Vector   26  Occ=2.000000D+00  E=-1.205403D+00
              MO Center= -2.6D+00, -7.3D-01,  3.4D-01, r^2= 1.5D+00
   Bfn.  Coefficient  Atom+Function         Bfn.  Coefficient  Atom+Function  
  ----- ------------  ---------------      ----- ------------  ---------------
   631      0.400692  37 N  s               630      0.368078  37 N  s         
   606     -0.209426  36 O  s               605     -0.177287  36 O  s         
   654      0.164761  38 H  s               663      0.157887  39 H  s         
   585     -0.154509  35 C  pz        

 Vector   27  Occ=2.000000D+00  E=-1.144161D+00
              MO Center=  7.7D-01, -3.6D+00, -2.6D-01, r^2= 2.9D+00
   Bfn.  Coefficient  Atom+Function         Bfn.  Coefficient  Atom+Function  
  ----- ------------  ---------------      ----- ------------  ---------------
   385      0.204451  24 C  s               410      0.177909  25 C  s         
   318     -0.174725  19 C  py              546      0.168692  33 C  s         
   387     -0.163845  24 C  s               444      0.158484  27 C  s         
   512      0.153204  31 C  s               478      0.151894  29 C  s         

 Vector   28  Occ=2.000000D+00  E=-1.079664D+00
              MO Center=  1.1D-01,  2.1D+00, -1.6D-01, r^2= 9.9D+00
   Bfn.  Coefficient  Atom+Function         Bfn.  Coefficient  Atom+Function  
  ----- ------------  ---------------      ----- ------------  ---------------
   138      0.214784   9 C  s               172      0.160820  11 C  s         

 Vector   29  Occ=2.000000D+00  E=-1.059689D+00
              MO Center=  3.8D-01, -5.4D-01, -9.8D-02, r^2= 1.3D+01
   Bfn.  Coefficient  Atom+Function         Bfn.  Coefficient  Atom+Function  
  ----- ------------  ---------------      ----- ------------  ---------------
   342      0.201259  21 C  s               145      0.174645   9 C  py        
   225      0.156082  15 C  s         

 Vector   30  Occ=2.000000D+00  E=-1.009564D+00
              MO Center=  1.9D+00,  3.6D+00, -6.6D-02, r^2= 5.9D+00
   Bfn.  Coefficient  Atom+Function         Bfn.  Coefficient  Atom+Function  
  ----- ------------  ---------------      ----- ------------  ---------------
    11      0.314466   2 C  s                13      0.170665   2 C  s         
    57      0.169812   5 C  px              172      0.157382  11 C  s         
    55      0.154590   5 C  s                56     -0.154723   5 C  s         
   144     -0.153558   9 C  px        

 Vector   31  Occ=2.000000D+00  E=-1.004482D+00
              MO Center=  8.0D-01, -4.0D+00, -3.2D-01, r^2= 2.9D+00
   Bfn.  Coefficient  Atom+Function         Bfn.  Coefficient  Atom+Function  
  ----- ------------  ---------------      ----- ------------  ---------------
   412      0.369340  25 C  s               548     -0.337065  33 C  s         
   410     -0.216333  25 C  s               512      0.215983  31 C  s         
   546      0.212932  33 C  s               444     -0.209076  27 C  s         
   396      0.187124  24 C  pz              435     -0.160471  26 H  s         

 Vector   32  Occ=2.000000D+00  E=-9.946125D-01
              MO Center=  4.8D-02, -1.8D+00, -2.2D-01, r^2= 1.0D+01
   Bfn.  Coefficient  Atom+Function         Bfn.  Coefficient  Atom+Function  
  ----- ------------  ---------------      ----- ------------  ---------------
   308      0.200698  19 C  s               480     -0.196568  29 C  s         
   478      0.182726  29 C  s               385     -0.177079  24 C  s         
   387      0.177344  24 C  s               145      0.152972   9 C  py        

 Vector   33  Occ=2.000000D+00  E=-9.123156D-01
              MO Center= -1.8D-01,  8.0D-01, -2.5D-01, r^2= 1.4D+01
   Bfn.  Coefficient  Atom+Function         Bfn.  Coefficient  Atom+Function  
  ----- ------------  ---------------      ----- ------------  ---------------
   314      0.230605  19 C  px              145     -0.227662   9 C  py        
   139      0.217517   9 C  s               172     -0.191107  11 C  s         
   342      0.190585  21 C  s               480     -0.187134  29 C  s         
   349     -0.161263  21 C  py        

 Vector   34  Occ=2.000000D+00  E=-8.892359D-01
              MO Center= -6.4D-01,  6.5D-01, -6.0D-02, r^2= 1.1D+01
   Bfn.  Coefficient  Atom+Function         Bfn.  Coefficient  Atom+Function  
  ----- ------------  ---------------      ----- ------------  ---------------
   314     -0.313044  19 C  px              309      0.306750  19 C  s         
   139      0.236373   9 C  s               586     -0.204768  35 C  px        
   145     -0.165623   9 C  py              480      0.159278  29 C  s         
   172     -0.156618  11 C  s               349      0.154570  21 C  py        

 Vector   35  Occ=2.000000D+00  E=-8.328735D-01
              MO Center=  5.5D-01,  2.8D+00, -8.8D-02, r^2= 6.6D+00
   Bfn.  Coefficient  Atom+Function         Bfn.  Coefficient  Atom+Function  
  ----- ------------  ---------------      ----- ------------  ---------------
   139      0.222139   9 C  s               309      0.217414  19 C  s         
   109      0.215240   7 N  pz               54      0.201595   5 C  s         
   128     -0.200698   8 H  s               107      0.199134   7 N  px        
    80     -0.154082   6 O  s               105     -0.152447   7 N  s         

 Vector   36  Occ=2.000000D+00  E=-8.206422D-01
              MO Center=  7.9D-01, -3.9D+00, -3.1D-01, r^2= 4.0D+00
   Bfn.  Coefficient  Atom+Function         Bfn.  Coefficient  Atom+Function  
  ----- ------------  ---------------      ----- ------------  ---------------
   412      0.486755  25 C  s               548     -0.472345  33 C  s         
   514      0.455972  31 C  s               446     -0.445685  27 C  s         
   435     -0.241446  26 H  s               571      0.202320  34 H  s         
   537     -0.191997  32 H  s               390      0.189533  24 C  pz        
   469      0.189435  28 H  s               483     -0.178335  29 C  pz        

 Vector   37  Occ=2.000000D+00  E=-8.130834D-01
              MO Center= -8.1D-02,  1.9D-01, -1.1D-01, r^2= 1.3D+01
   Bfn.  Coefficient  Atom+Function         Bfn.  Coefficient  Atom+Function  
  ----- ------------  ---------------      ----- ------------  ---------------
   480     -0.253832  29 C  s               309      0.250532  19 C  s         
   128      0.185170   8 H  s               109     -0.176407   7 N  pz        
   387     -0.154469  24 C  s         

 Vector   38  Occ=2.000000D+00  E=-7.840139D-01
              MO Center=  2.1D-01, -1.2D+00, -1.9D-01, r^2= 1.2D+01
   Bfn.  Coefficient  Atom+Function         Bfn.  Coefficient  Atom+Function  
  ----- ------------  ---------------      ----- ------------  ---------------
   480      0.341858  29 C  s               387      0.332221  24 C  s         
   514     -0.231883  31 C  s               446     -0.213433  27 C  s         
   314      0.171580  19 C  px              298     -0.164470  18 H  s         
   224      0.151727  15 C  s               250     -0.152341  16 O  s         
   503     -0.151661  30 H  s               412     -0.150737  25 C  s         

 Vector   39  Occ=2.000000D+00  E=-7.766721D-01
              MO Center= -1.3D+00, -5.8D-01,  1.9D-01, r^2= 6.6D+00
   Bfn.  Coefficient  Atom+Function         Bfn.  Coefficient  Atom+Function  
  ----- ------------  ---------------      ----- ------------  ---------------
   633     -0.226990  37 N  px              225      0.218568  15 C  s         
   580     -0.184603  35 C  s               298     -0.171348  18 H  s         
   654      0.166832  38 H  s               586      0.163601  35 C  px        
   606      0.158594  36 O  s               480     -0.157169  29 C  s         
   581     -0.152169  35 C  s         

 Vector   40  Occ=2.000000D+00  E=-7.328451D-01
              MO Center= -2.9D-01,  2.0D+00, -2.1D-01, r^2= 7.5D+00
   Bfn.  Coefficient  Atom+Function         Bfn.  Coefficient  Atom+Function  
  ----- ------------  ---------------      ----- ------------  ---------------
   145      0.358150   9 C  py              225      0.339997  15 C  s         
   139     -0.309633   9 C  s               228     -0.246025  15 C  py        
   144      0.211306   9 C  px              142      0.170653   9 C  py        
   253     -0.162261  16 O  py              107     -0.161024   7 N  px        
   109      0.157155   7 N  pz              231      0.153546  15 C  py        

 Vector   41  Occ=2.000000D+00  E=-7.284190D-01
              MO Center= -2.0D+00, -3.2D-01,  1.0D-01, r^2= 4.9D+00
   Bfn.  Coefficient  Atom+Function         Bfn.  Coefficient  Atom+Function  
  ----- ------------  ---------------      ----- ------------  ---------------
   635      0.286981  37 N  pz              654     -0.285761  38 H  s         
   663      0.192447  39 H  s               634     -0.189097  37 N  py        
   583     -0.175488  35 C  px              315      0.155195  19 C  py        
   655     -0.154803  38 H  s         

 Vector   42  Occ=2.000000D+00  E=-7.025631D-01
              MO Center=  1.1D+00,  2.7D+00,  2.7D-01, r^2= 7.0D+00
   Bfn.  Coefficient  Atom+Function         Bfn.  Coefficient  Atom+Function  
  ----- ------------  ---------------      ----- ------------  ---------------
    57     -0.213630   5 C  px               17      0.197932   2 C  px        
    82     -0.186997   6 O  px               14      0.171426   2 C  px        
    80      0.156810   6 O  s         

 Vector   43  Occ=2.000000D+00  E=-6.902625D-01
              MO Center=  2.5D-01,  3.0D+00,  2.9D-01, r^2= 5.2D+00
   Bfn.  Coefficient  Atom+Function         Bfn.  Coefficient  Atom+Function  
  ----- ------------  ---------------      ----- ------------  ---------------
    84      0.216961   6 O  pz              144     -0.201134   9 C  px        
    80      0.192721   6 O  s               162      0.190653  10 H  s         
   143      0.183854   9 C  pz              107      0.165360   7 N  px        
   141     -0.157683   9 C  px               58      0.154750   5 C  py        
   108      0.154336   7 N  py               56     -0.151629   5 C  s         

 Vector   44  Occ=2.000000D+00  E=-6.850292D-01
              MO Center=  6.6D-01, -3.5D+00, -3.6D-01, r^2= 7.8D+00
   Bfn.  Coefficient  Atom+Function         Bfn.  Coefficient  Atom+Function  
  ----- ------------  ---------------      ----- ------------  ---------------
   482     -0.214455  29 C  py              502      0.208691  30 H  s         
   309      0.203262  19 C  s               411     -0.175242  25 C  s         
   414      0.168205  25 C  py              479      0.168764  29 C  s         
   570      0.165438  34 H  s               434      0.164520  26 H  s         
   551      0.153134  33 C  pz        

 Vector   45  Occ=2.000000D+00  E=-6.766660D-01
              MO Center= -1.2D+00, -7.7D-01,  4.3D-01, r^2= 7.0D+00
   Bfn.  Coefficient  Atom+Function         Bfn.  Coefficient  Atom+Function  
  ----- ------------  ---------------      ----- ------------  ---------------
   633      0.244410  37 N  px              663     -0.220937  39 H  s         
   583     -0.215608  35 C  px              309     -0.185895  19 C  s         
   313     -0.183584  19 C  pz              333      0.173495  20 H  s         
   606      0.171399  36 O  s         

 Vector   46  Occ=2.000000D+00  E=-6.638636D-01
              MO Center= -7.2D-01,  4.5D-01, -3.0D-01, r^2= 8.0D+00
   Bfn.  Coefficient  Atom+Function         Bfn.  Coefficient  Atom+Function  
  ----- ------------  ---------------      ----- ------------  ---------------
   278      0.225764  17 N  py              315     -0.213408  19 C  py        
   250      0.207837  16 O  s               312     -0.197190  19 C  py        
   254     -0.174301  16 O  pz              309      0.169909  19 C  s         
   252     -0.163486  16 O  px              227      0.153208  15 C  px        
   387      0.153045  24 C  s         

 Vector   47  Occ=2.000000D+00  E=-6.355968D-01
              MO Center=  1.9D+00,  3.3D+00,  9.9D-02, r^2= 5.4D+00
   Bfn.  Coefficient  Atom+Function         Bfn.  Coefficient  Atom+Function  
  ----- ------------  ---------------      ----- ------------  ---------------
   139      0.334327   9 C  s                15     -0.249499   2 C  py        
    44     -0.219913   4 H  s                35      0.216560   3 H  s         
    83     -0.178189   6 O  py              225     -0.177931  15 C  s         
    16     -0.175157   2 C  pz               58     -0.152079   5 C  py        

 Vector   48  Occ=2.000000D+00  E=-6.282453D-01
              MO Center=  7.1D-01, -3.6D+00, -3.7D-01, r^2= 7.4D+00
   Bfn.  Coefficient  Atom+Function         Bfn.  Coefficient  Atom+Function  
  ----- ------------  ---------------      ----- ------------  ---------------
   479     -0.228354  29 C  s               468      0.224960  28 H  s         
   469      0.222108  28 H  s               536      0.221874  32 H  s         
   537      0.216783  32 H  s               392      0.208616  24 C  py        
   387      0.201733  24 C  s               435     -0.180020  26 H  s         
   434     -0.178294  26 H  s               418      0.168200  25 C  pz        

 Vector   49  Occ=2.000000D+00  E=-6.216341D-01
              MO Center=  3.4D-01, -3.0D+00,  5.7D-02, r^2= 7.0D+00
   Bfn.  Coefficient  Atom+Function         Bfn.  Coefficient  Atom+Function  
  ----- ------------  ---------------      ----- ------------  ---------------
   448      0.216417  27 C  py              550      0.213205  33 C  py        
   516     -0.200145  31 C  py              483      0.198460  29 C  pz        
   390      0.191332  24 C  pz              548      0.186697  33 C  s         
   414     -0.171564  25 C  py              412     -0.162479  25 C  s         

 Vector   50  Occ=2.000000D+00  E=-6.141233D-01
              MO Center= -9.4D-01,  2.0D+00, -5.0D-01, r^2= 7.0D+00
   Bfn.  Coefficient  Atom+Function         Bfn.  Coefficient  Atom+Function  
  ----- ------------  ---------------      ----- ------------  ---------------
   252      0.236700  16 O  px              254      0.227195  16 O  pz        
   145      0.208331   9 C  py              139     -0.202645   9 C  s         
   229     -0.165531  15 C  pz              227     -0.164550  15 C  px        
   298      0.159058  18 H  s               250     -0.157216  16 O  s         
   299      0.153956  18 H  s               196      0.152448  12 H  s         

 Vector   51  Occ=2.000000D+00  E=-6.054144D-01
              MO Center=  7.6D-01,  2.6D+00,  4.3D-01, r^2= 7.8D+00
   Bfn.  Coefficient  Atom+Function         Bfn.  Coefficient  Atom+Function  
  ----- ------------  ---------------      ----- ------------  ---------------
    84      0.260216   6 O  pz               14     -0.205066   2 C  px        
    59     -0.199307   5 C  pz              309     -0.174388  19 C  s         
    83     -0.171926   6 O  py               80      0.166489   6 O  s         
    57      0.163406   5 C  px               58      0.159463   5 C  py        
   128     -0.158853   8 H  s         

 Vector   52  Occ=2.000000D+00  E=-5.935256D-01
              MO Center= -1.9D-01,  2.0D-01,  6.3D-01, r^2= 1.3D+01
   Bfn.  Coefficient  Atom+Function         Bfn.  Coefficient  Atom+Function  
  ----- ------------  ---------------      ----- ------------  ---------------
   610      0.276484  36 O  pz              548     -0.213882  33 C  s         
   412      0.212288  25 C  s               585     -0.183435  35 C  pz        
    13     -0.182093   2 C  s               606      0.175416  36 O  s         
     2      0.172707   1 H  s               581     -0.172297  35 C  s         
   309      0.170940  19 C  s               333     -0.170792  20 H  s         

 Vector   53  Occ=2.000000D+00  E=-5.877886D-01
              MO Center=  1.6D+00,  2.7D+00,  1.3D-01, r^2= 1.3D+01
   Bfn.  Coefficient  Atom+Function         Bfn.  Coefficient  Atom+Function  
  ----- ------------  ---------------      ----- ------------  ---------------
     1      0.294089   1 H  s                16      0.269521   2 C  pz        
     2      0.259934   1 H  s               175     -0.184217  11 C  px        
   214      0.167921  14 H  s                13     -0.166873   2 C  s         
    35     -0.153322   3 H  s         

 Vector   54  Occ=2.000000D+00  E=-5.780364D-01
              MO Center=  5.5D-01, -3.4D+00, -2.9D-01, r^2= 8.7D+00
   Bfn.  Coefficient  Atom+Function         Bfn.  Coefficient  Atom+Function  
  ----- ------------  ---------------      ----- ------------  ---------------
   412      0.327195  25 C  s               548     -0.269147  33 C  s         
   445      0.261555  27 C  s               513     -0.257637  31 C  s         
   435     -0.211408  26 H  s               449      0.195715  27 C  pz        
   536      0.194423  32 H  s               551      0.193027  33 C  pz        
   434     -0.185710  26 H  s               393     -0.182946  24 C  pz        

 Vector   55  Occ=2.000000D+00  E=-5.655936D-01
              MO Center= -1.0D-01,  8.2D-01, -2.8D-01, r^2= 1.9D+01
   Bfn.  Coefficient  Atom+Function         Bfn.  Coefficient  Atom+Function  
  ----- ------------  ---------------      ----- ------------  ---------------
   176      0.235351  11 C  py              196      0.214724  12 H  s         
   309     -0.211213  19 C  s               197      0.188155  12 H  s         
   480     -0.170153  29 C  s               482     -0.167696  29 C  py        
   349      0.162583  21 C  py              389     -0.161766  24 C  py        
   503      0.161466  30 H  s                13      0.156403   2 C  s         

 Vector   56  Occ=2.000000D+00  E=-5.622805D-01
              MO Center= -7.4D-01,  1.4D+00, -4.8D-01, r^2= 1.3D+01
   Bfn.  Coefficient  Atom+Function         Bfn.  Coefficient  Atom+Function  
  ----- ------------  ---------------      ----- ------------  ---------------
   215      0.261430  14 H  s               139      0.217512   9 C  s         
   177      0.188068  11 C  pz              214      0.187746  14 H  s         
   225     -0.183562  15 C  s               205     -0.182187  13 H  s         
   174     -0.157278  11 C  s               175     -0.155337  11 C  px        
   231     -0.152211  15 C  py        

 Vector   57  Occ=2.000000D+00  E=-5.560361D-01
              MO Center=  2.3D-01, -2.5D-01,  1.1D-01, r^2= 1.7D+01
   Bfn.  Coefficient  Atom+Function         Bfn.  Coefficient  Atom+Function  
  ----- ------------  ---------------      ----- ------------  ---------------
   480      0.198635  29 C  s               571      0.178091  34 H  s         
   503     -0.156829  30 H  s         

 Vector   58  Occ=2.000000D+00  E=-5.490902D-01
              MO Center= -3.0D-01,  2.6D+00, -2.8D-01, r^2= 1.0D+01
   Bfn.  Coefficient  Atom+Function         Bfn.  Coefficient  Atom+Function  
  ----- ------------  ---------------      ----- ------------  ---------------
   175      0.237657  11 C  px              215     -0.236847  14 H  s         
   214     -0.225806  14 H  s                12     -0.200539   2 C  s         
    56      0.188852   5 C  s                55      0.179005   5 C  s         
   107      0.176956   7 N  px              254     -0.168416  16 O  pz        
     1      0.158789   1 H  s               141     -0.156991   9 C  px        

 Vector   59  Occ=2.000000D+00  E=-5.462306D-01
              MO Center=  3.1D-01,  5.2D-01,  3.9D-02, r^2= 1.2D+01
   Bfn.  Coefficient  Atom+Function         Bfn.  Coefficient  Atom+Function  
  ----- ------------  ---------------      ----- ------------  ---------------
   343      0.187249  21 C  s               345     -0.184833  21 C  px        
   348     -0.172104  21 C  px              387      0.169939  24 C  s         
   366     -0.163086  22 H  s                83      0.151410   6 O  py        

 Vector   60  Occ=2.000000D+00  E=-5.412148D-01
              MO Center= -1.7D-01,  1.2D+00,  7.0D-02, r^2= 1.2D+01
   Bfn.  Coefficient  Atom+Function         Bfn.  Coefficient  Atom+Function  
  ----- ------------  ---------------      ----- ------------  ---------------
   345      0.194936  21 C  px              231      0.173157  15 C  py        
   139     -0.171729   9 C  s               176      0.165908  11 C  py        

 Vector   61  Occ=2.000000D+00  E=-5.370504D-01
              MO Center= -6.7D-01,  2.0D-01,  1.7D-01, r^2= 1.1D+01
   Bfn.  Coefficient  Atom+Function         Bfn.  Coefficient  Atom+Function  
  ----- ------------  ---------------      ----- ------------  ---------------
   584      0.187358  35 C  py              367      0.156419  22 H  s         
   609      0.154501  36 O  py              610      0.151183  36 O  pz        

 Vector   62  Occ=2.000000D+00  E=-5.248791D-01
              MO Center= -7.6D-01,  3.1D+00, -4.4D-01, r^2= 6.5D+00
   Bfn.  Coefficient  Atom+Function         Bfn.  Coefficient  Atom+Function  
  ----- ------------  ---------------      ----- ------------  ---------------
   174      0.302274  11 C  s               143      0.295609   9 C  pz        
   177     -0.277214  11 C  pz              162      0.257251  10 H  s         
   205      0.241193  13 H  s               173     -0.224550  11 C  s         
   179      0.221632  11 C  py              197     -0.215557  12 H  s         
   178     -0.182202  11 C  px              206      0.177208  13 H  s         

 Vector   63  Occ=2.000000D+00  E=-5.117892D-01
              MO Center=  1.3D-01, -1.4D+00,  2.0D-01, r^2= 7.4D+00
   Bfn.  Coefficient  Atom+Function         Bfn.  Coefficient  Atom+Function  
  ----- ------------  ---------------      ----- ------------  ---------------
   376      0.266821  23 H  s               347      0.264432  21 C  pz        
   309      0.255866  19 C  s               348      0.255160  21 C  px        
   375      0.241563  23 H  s               349     -0.230044  21 C  py        
   332      0.220147  20 H  s               343     -0.220049  21 C  s         
   313     -0.214175  19 C  pz              315     -0.201475  19 C  py        

 Vector   64  Occ=2.000000D+00  E=-4.805417D-01
              MO Center=  5.8D-01, -3.3D+00, -2.4D-01, r^2= 6.7D+00
   Bfn.  Coefficient  Atom+Function         Bfn.  Coefficient  Atom+Function  
  ----- ------------  ---------------      ----- ------------  ---------------
   346      0.216940  21 C  py              503     -0.217648  30 H  s         
   389     -0.213833  24 C  py              516     -0.203146  31 C  py        
   550      0.200384  33 C  py              448     -0.193669  27 C  py        
   412     -0.187944  25 C  s               480      0.173877  29 C  s         
   414      0.169893  25 C  py              502     -0.164225  30 H  s         

 Vector   65  Occ=2.000000D+00  E=-4.803768D-01
              MO Center=  7.5D-01, -3.7D+00, -1.5D-01, r^2= 4.6D+00
   Bfn.  Coefficient  Atom+Function         Bfn.  Coefficient  Atom+Function  
  ----- ------------  ---------------      ----- ------------  ---------------
   435      0.256232  26 H  s               537      0.235206  32 H  s         
   412     -0.228814  25 C  s               446      0.221604  27 C  s         
   548      0.219039  33 C  s               514     -0.188675  31 C  s         
   551     -0.187612  33 C  pz              483     -0.185689  29 C  pz        
   486     -0.185256  29 C  pz              393      0.177018  24 C  pz        

 Vector   66  Occ=2.000000D+00  E=-4.776686D-01
              MO Center=  6.8D-01, -3.3D+00, -2.0D-01, r^2= 5.5D+00
   Bfn.  Coefficient  Atom+Function         Bfn.  Coefficient  Atom+Function  
  ----- ------------  ---------------      ----- ------------  ---------------
   514      0.266811  31 C  s               571      0.259671  34 H  s         
   412      0.251519  25 C  s               548     -0.251781  33 C  s         
   390     -0.203705  24 C  pz              393     -0.190498  24 C  pz        
   469      0.187019  28 H  s               446     -0.180224  27 C  s         
   481     -0.177716  29 C  px              413     -0.173626  25 C  px        

 Vector   67  Occ=2.000000D+00  E=-4.598535D-01
              MO Center= -1.0D-01,  2.2D+00, -9.8D-02, r^2= 6.2D+00
   Bfn.  Coefficient  Atom+Function         Bfn.  Coefficient  Atom+Function  
  ----- ------------  ---------------      ----- ------------  ---------------
   253      0.377670  16 O  py              256      0.305963  16 O  py        
    83     -0.218555   6 O  py               82      0.217358   6 O  px        
    13      0.201679   2 C  s               139     -0.195251   9 C  s         
    85      0.172391   6 O  px              174     -0.172648  11 C  s         
   109      0.169682   7 N  pz               86     -0.168835   6 O  py        

 Vector   68  Occ=2.000000D+00  E=-4.434839D-01
              MO Center=  1.4D+00,  2.8D+00,  8.1D-01, r^2= 3.6D+00
   Bfn.  Coefficient  Atom+Function         Bfn.  Coefficient  Atom+Function  
  ----- ------------  ---------------      ----- ------------  ---------------
    82      0.490348   6 O  px               13      0.447548   2 C  s         
    85      0.398077   6 O  px               56     -0.314689   5 C  s         
    63     -0.274700   5 C  px              225     -0.212811  15 C  s         
   105      0.198427   7 N  s                17      0.197208   2 C  px        
   144     -0.173090   9 C  px               14      0.170045   2 C  px        

 Vector   69  Occ=2.000000D+00  E=-4.336276D-01
              MO Center= -1.3D+00, -1.6D-01,  6.1D-01, r^2= 5.8D+00
   Bfn.  Coefficient  Atom+Function         Bfn.  Coefficient  Atom+Function  
  ----- ------------  ---------------      ----- ------------  ---------------
   608      0.426870  36 O  px              611      0.339476  36 O  px        
   279     -0.196128  17 N  pz              252     -0.188888  16 O  px        
   254      0.184459  16 O  pz              282     -0.183103  17 N  pz        
   277      0.175946  17 N  px              280      0.173332  17 N  px        
    13     -0.165454   2 C  s               367     -0.157708  22 H  s         

 Vector   70  Occ=2.000000D+00  E=-4.088046D-01
              MO Center= -1.7D-01,  2.5D+00, -1.6D-01, r^2= 5.4D+00
   Bfn.  Coefficient  Atom+Function         Bfn.  Coefficient  Atom+Function  
  ----- ------------  ---------------      ----- ------------  ---------------
   253     -0.315860  16 O  py              108      0.302785   7 N  py        
   111      0.281231   7 N  py              256     -0.250667  16 O  py        
   145     -0.229393   9 C  py               83     -0.191406   6 O  py        
   109      0.190635   7 N  pz              142     -0.171741   9 C  py        
   112      0.165894   7 N  pz              228      0.161949  15 C  py        

 Vector   71  Occ=2.000000D+00  E=-3.976006D-01
              MO Center= -2.3D+00, -8.6D-01,  7.1D-01, r^2= 3.1D+00
   Bfn.  Coefficient  Atom+Function         Bfn.  Coefficient  Atom+Function  
  ----- ------------  ---------------      ----- ------------  ---------------
   634      0.368745  37 N  py              609     -0.333089  36 O  py        
   637      0.320292  37 N  py              612     -0.263484  36 O  py        
   635      0.200536  37 N  pz              284      0.183769  17 N  py        
   638      0.172633  37 N  pz              610     -0.161042  36 O  pz        

 Vector   72  Occ=2.000000D+00  E=-3.863555D-01
              MO Center= -1.2D+00, -3.4D-02,  3.5D-01, r^2= 4.6D+00
   Bfn.  Coefficient  Atom+Function         Bfn.  Coefficient  Atom+Function  
  ----- ------------  ---------------      ----- ------------  ---------------
   608      0.317443  36 O  px              611      0.257115  36 O  px        
   279      0.247864  17 N  pz              277     -0.244651  17 N  px        
   309      0.230596  19 C  s               280     -0.225696  17 N  px        
   282      0.224792  17 N  pz              581     -0.217557  35 C  s         
   367     -0.215922  22 H  s                56      0.177918   5 C  s         

 Vector   73  Occ=2.000000D+00  E=-3.249625D-01
              MO Center=  7.9D-01, -4.0D+00, -3.1D-01, r^2= 3.3D+00
   Bfn.  Coefficient  Atom+Function         Bfn.  Coefficient  Atom+Function  
  ----- ------------  ---------------      ----- ------------  ---------------
   413      0.293241  25 C  px              515     -0.294054  31 C  px        
   416      0.218240  25 C  px              518     -0.217226  31 C  px        
   549     -0.211881  33 C  px              447      0.207795  27 C  px        
   450      0.153342  27 C  px              552     -0.151195  33 C  px        

 Vector   74  Occ=2.000000D+00  E=-3.185192D-01
              MO Center=  7.5D-01, -3.9D+00, -2.8D-01, r^2= 3.8D+00
   Bfn.  Coefficient  Atom+Function         Bfn.  Coefficient  Atom+Function  
  ----- ------------  ---------------      ----- ------------  ---------------
   309      0.306291  19 C  s               388      0.288846  24 C  px        
   481     -0.282039  29 C  px              391      0.239501  24 C  px        
   549      0.222051  33 C  px              484     -0.214856  29 C  px        
   447     -0.210020  27 C  px              318     -0.179733  19 C  py        
   315     -0.174934  19 C  py              552      0.170737  33 C  px        

 Vector   75  Occ=0.000000D+00  E= 2.062043D-02
              MO Center=  2.2D+00,  5.1D+00, -1.6D+00, r^2= 2.0D+01
   Bfn.  Coefficient  Atom+Function         Bfn.  Coefficient  Atom+Function  
  ----- ------------  ---------------      ----- ------------  ---------------
   226      2.732628  15 C  s                63      2.575628   5 C  px        
   234      2.542554  15 C  py              106     -2.204398   7 N  s         
   147      1.956779   9 C  px              140      1.862729   9 C  s         
    12      1.658956   2 C  s                46     -1.592534   4 H  s         
    37     -1.548527   3 H  s               198     -1.525398  12 H  s         

 Vector   76  Occ=0.000000D+00  E= 3.395923D-02
              MO Center=  1.3D+00,  2.6D+00, -1.6D+00, r^2= 3.8D+01
   Bfn.  Coefficient  Atom+Function         Bfn.  Coefficient  Atom+Function  
  ----- ------------  ---------------      ----- ------------  ---------------
   412      4.613285  25 C  s               395      3.666377  24 C  py        
   317     -3.296627  19 C  px              318      3.287595  19 C  py        
   234      3.245884  15 C  py              396      3.163039  24 C  pz        
   548     -3.151279  33 C  s               436      2.914664  26 H  s         
   198     -2.728826  12 H  s                63     -2.468542   5 C  px        

 Vector   77  Occ=0.000000D+00  E= 3.827382D-02
              MO Center= -3.2D-01,  1.3D+00, -1.3D+00, r^2= 5.0D+01
   Bfn.  Coefficient  Atom+Function         Bfn.  Coefficient  Atom+Function  
  ----- ------------  ---------------      ----- ------------  ---------------
    63      3.517588   5 C  px              234      2.986632  15 C  py        
   147      2.871522   9 C  px              582     -2.735466  35 C  s         
   318      2.563728  19 C  py              395      2.422941  24 C  py        
   412      2.124108  25 C  s               548     -2.119420  33 C  s         
   632      2.094512  37 N  s               396      2.050676  24 C  pz        

 Vector   78  Occ=0.000000D+00  E= 4.141680D-02
              MO Center=  1.2D+00,  1.1D+00, -5.5D-01, r^2= 5.1D+01
   Bfn.  Coefficient  Atom+Function         Bfn.  Coefficient  Atom+Function  
  ----- ------------  ---------------      ----- ------------  ---------------
   395     -2.540484  24 C  py               63      2.498845   5 C  px        
   149      2.276466   9 C  pz                3     -2.144537   1 H  s         
   207      2.131415  13 H  s               412      2.125603  25 C  s         
   130      2.091793   8 H  s               164     -2.018589  10 H  s         
   147      1.848641   9 C  px              318     -1.816486  19 C  py        

 Vector   79  Occ=0.000000D+00  E= 4.477987D-02
              MO Center= -2.3D-02, -1.6D+00, -7.6D-01, r^2= 5.7D+01
   Bfn.  Coefficient  Atom+Function         Bfn.  Coefficient  Atom+Function  
  ----- ------------  ---------------      ----- ------------  ---------------
   480      3.284058  29 C  s               504      2.965117  30 H  s         
   556      2.615524  33 C  py              420      2.583780  25 C  py        
   317     -2.257405  19 C  px              488      1.915599  29 C  py        
   352      1.870705  21 C  py              446      1.862747  27 C  s         
   106      1.822770   7 N  s               164     -1.791670  10 H  s         

 Vector   80  Occ=0.000000D+00  E= 4.921655D-02
              MO Center= -4.9D-01, -2.3D+00, -4.7D-01, r^2= 5.3D+01
   Bfn.  Coefficient  Atom+Function         Bfn.  Coefficient  Atom+Function  
  ----- ------------  ---------------      ----- ------------  ---------------
   446      3.668250  27 C  s               470      3.436619  28 H  s         
   538     -3.079254  32 H  s               396      3.042615  24 C  pz        
   455      3.023826  27 C  pz              412      2.674811  25 C  s         
   514     -2.323400  31 C  s               632     -2.238118  37 N  s         
   198      2.130690  12 H  s               523      2.065575  31 C  pz        

 Vector   81  Occ=0.000000D+00  E= 5.290340D-02
              MO Center= -2.2D-01, -1.3D-01,  3.3D-02, r^2= 5.4D+01
   Bfn.  Coefficient  Atom+Function         Bfn.  Coefficient  Atom+Function  
  ----- ------------  ---------------      ----- ------------  ---------------
    46      2.812697   4 H  s               589      2.662525  35 C  px        
   446      2.618469  27 C  s               470      2.565884  28 H  s         
   538     -2.506977  32 H  s               514     -2.438459  31 C  s         
   368     -2.298085  22 H  s               317      2.251388  19 C  px        
   632      2.166288  37 N  s               395     -2.111156  24 C  py        

 Vector   82  Occ=0.000000D+00  E= 5.708094D-02
              MO Center=  5.4D-01,  2.3D+00, -7.7D-02, r^2= 4.8D+01
   Bfn.  Coefficient  Atom+Function         Bfn.  Coefficient  Atom+Function  
  ----- ------------  ---------------      ----- ------------  ---------------
    56      6.828182   5 C  s               480      4.125521  29 C  s         
   164     -3.875919  10 H  s                 3      3.334736   1 H  s         
   514     -3.215806  31 C  s               106     -2.963649   7 N  s         
   207      2.963944  13 H  s               234     -2.854084  15 C  py        
   395     -2.768981  24 C  py              436     -2.730374  26 H  s         

 Vector   83  Occ=0.000000D+00  E= 6.014736D-02
              MO Center=  9.3D-01, -7.4D-01, -2.7D-01, r^2= 5.3D+01
   Bfn.  Coefficient  Atom+Function         Bfn.  Coefficient  Atom+Function  
  ----- ------------  ---------------      ----- ------------  ---------------
   480      7.998926  29 C  s               504      5.086930  30 H  s         
   395     -4.368479  24 C  py              488      4.366941  29 C  py        
    13     -4.112229   2 C  s               226      3.941634  15 C  s         
   420      3.505337  25 C  py               37      3.467361   3 H  s         
   412     -3.430921  25 C  s               164      2.391920  10 H  s         

 Vector   84  Occ=0.000000D+00  E= 6.515426D-02
              MO Center=  5.0D-01,  1.6D+00,  2.1D-01, r^2= 4.8D+01
   Bfn.  Coefficient  Atom+Function         Bfn.  Coefficient  Atom+Function  
  ----- ------------  ---------------      ----- ------------  ---------------
   514      5.493246  31 C  s               164     -4.442199  10 H  s         
   387     -4.218080  24 C  s               538      3.824778  32 H  s         
   480     -3.756951  29 C  s               436      3.378605  26 H  s         
   149      3.048178   9 C  pz              198      3.031340  12 H  s         
   395      3.041533  24 C  py              412      2.909105  25 C  s         

 Vector   85  Occ=0.000000D+00  E= 6.761858D-02
              MO Center= -4.3D-01,  2.9D-01, -7.9D-01, r^2= 4.7D+01
[...]
   589      5.902195  35 C  px              317     -5.843704  19 C  px        

 Vector  192  Occ=0.000000D+00  E= 4.428109D-01
              MO Center= -3.7D-01,  1.0D+00,  1.2D-01, r^2= 2.2D+01
   Bfn.  Coefficient  Atom+Function         Bfn.  Coefficient  Atom+Function  
  ----- ------------  ---------------      ----- ------------  ---------------
   106     11.394157   7 N  s               396     11.365515  24 C  pz        
   548     -9.140241  33 C  s               163     -8.463976  10 H  s         
   412      8.234986  25 C  s               353     -7.747840  21 C  pz        
   514      7.392291  31 C  s               387     -7.177308  24 C  s         
   318     -6.810138  19 C  py              173      6.603099  11 C  s         

 Vector  193  Occ=0.000000D+00  E= 4.467435D-01
              MO Center=  6.8D-01,  1.0D+00, -2.1D-01, r^2= 2.7D+01
   Bfn.  Coefficient  Atom+Function         Bfn.  Coefficient  Atom+Function  
  ----- ------------  ---------------      ----- ------------  ---------------
    56    -16.758996   5 C  s                13     15.745287   2 C  s         
    12     11.065097   2 C  s                36     -8.704635   3 H  s         
   582      7.764306  35 C  s               480      7.246766  29 C  s         
   234      7.138767  15 C  py              174      7.077159  11 C  s         
    45     -6.901971   4 H  s               319     -6.701488  19 C  pz        

 Vector  194  Occ=0.000000D+00  E= 4.484507D-01
              MO Center=  2.0D-01, -1.6D+00,  8.6D-02, r^2= 2.6D+01
   Bfn.  Coefficient  Atom+Function         Bfn.  Coefficient  Atom+Function  
  ----- ------------  ---------------      ----- ------------  ---------------
   412     20.896491  25 C  s               548    -15.865181  33 C  s         
    56     13.479444   5 C  s               514     12.611548  31 C  s         
    13    -11.726717   2 C  s               396      9.280398  24 C  pz        
   632     -8.742052  37 N  s               352      8.410881  21 C  py        
   276     -7.613588  17 N  s               317     -7.431667  19 C  px        

 Vector  195  Occ=0.000000D+00  E= 4.525766D-01
              MO Center= -2.8D-03, -5.2D-03, -3.6D-01, r^2= 2.5D+01
   Bfn.  Coefficient  Atom+Function         Bfn.  Coefficient  Atom+Function  
  ----- ------------  ---------------      ----- ------------  ---------------
   226     17.860687  15 C  s                13    -13.807619   2 C  s         
   140     12.430074   9 C  s               174    -10.000924  11 C  s         
   548     -9.926190  33 C  s                63      8.698330   5 C  px        
   387     -8.604228  24 C  s               106     -8.473431   7 N  s         
    56      8.205714   5 C  s               318     -7.001141  19 C  py        

 Vector  196  Occ=0.000000D+00  E= 4.550856D-01
              MO Center= -9.8D-02, -4.1D-01,  8.9D-02, r^2= 2.6D+01
   Bfn.  Coefficient  Atom+Function         Bfn.  Coefficient  Atom+Function  
  ----- ------------  ---------------      ----- ------------  ---------------
   276     16.174125  17 N  s               548    -13.350647  33 C  s         
   412     13.038798  25 C  s               446    -12.939440  27 C  s         
   174    -12.843520  11 C  s               234     12.156390  15 C  py        
   319    -12.129290  19 C  pz              582     -9.576398  35 C  s         
   632      9.581648  37 N  s               300      8.388029  18 H  s         

 Vector  197  Occ=0.000000D+00  E= 4.593113D-01
              MO Center= -5.5D-01,  6.8D-01, -8.7D-02, r^2= 2.4D+01
   Bfn.  Coefficient  Atom+Function         Bfn.  Coefficient  Atom+Function  
  ----- ------------  ---------------      ----- ------------  ---------------
    56     27.683183   5 C  s               174     22.765335  11 C  s         
   234    -16.282559  15 C  py              318    -16.154815  19 C  py        
   226    -15.922697  15 C  s               319     14.316290  19 C  pz        
   148    -11.953849   9 C  py              412    -11.775763  25 C  s         
   140    -11.575593   9 C  s               582    -10.798370  35 C  s         

 Vector  198  Occ=0.000000D+00  E= 4.637496D-01
              MO Center=  2.4D-01, -1.4D+00, -3.9D-02, r^2= 2.6D+01
   Bfn.  Coefficient  Atom+Function         Bfn.  Coefficient  Atom+Function  
  ----- ------------  ---------------      ----- ------------  ---------------
   276     13.831482  17 N  s               318    -12.129756  19 C  py        
   582     -8.911178  35 C  s                56      8.669722   5 C  s         
   226     -8.325009  15 C  s               514     -7.224222  31 C  s         
   113     -6.575196   7 N  px              446      6.203423  27 C  s         
   317      5.313384  19 C  px              233     -5.234141  15 C  px        

 Vector  199  Occ=0.000000D+00  E= 4.703310D-01
              MO Center=  4.3D-01,  1.8D+00, -5.4D-03, r^2= 2.4D+01
   Bfn.  Coefficient  Atom+Function         Bfn.  Coefficient  Atom+Function  
  ----- ------------  ---------------      ----- ------------  ---------------
   174     19.402108  11 C  s               148    -13.489463   9 C  py        
    56     11.576784   5 C  s               226     -9.611173  15 C  s         
   140     -7.902291   9 C  s               412     -7.280082  25 C  s         
   276      6.704686  17 N  s               582     -6.595623  35 C  s         
   163      5.953201  10 H  s               197     -5.132477  12 H  s         

 Vector  200  Occ=0.000000D+00  E= 4.720266D-01
              MO Center=  3.5D-01,  9.3D-01, -1.7D-01, r^2= 2.7D+01
   Bfn.  Coefficient  Atom+Function         Bfn.  Coefficient  Atom+Function  
  ----- ------------  ---------------      ----- ------------  ---------------
    56     18.088561   5 C  s               174    -16.166692  11 C  s         
    13    -13.363985   2 C  s               412     13.425605  25 C  s         
   396     10.293766  24 C  pz              387      8.940212  24 C  s         
    12     -8.721412   2 C  s               548     -8.522016  33 C  s         
   582     -7.245849  35 C  s               421     -6.367003  25 C  pz        

 Vector  201  Occ=0.000000D+00  E= 4.736562D-01
              MO Center= -5.7D-02, -1.2D-01,  1.1D-01, r^2= 2.2D+01
   Bfn.  Coefficient  Atom+Function         Bfn.  Coefficient  Atom+Function  
  ----- ------------  ---------------      ----- ------------  ---------------
    13     27.600960   2 C  s                56    -20.572985   5 C  s         
   395     17.501601  24 C  py              632    -14.610640  37 N  s         
    63    -13.749069   5 C  px              174    -11.749485  11 C  s         
   147    -11.500920   9 C  px              548      9.570050  33 C  s         
   106      8.966729   7 N  s               344      7.596359  21 C  s         

 Vector  202  Occ=0.000000D+00  E= 4.774647D-01
              MO Center= -2.0D-01,  4.5D-01, -2.3D-01, r^2= 3.0D+01
   Bfn.  Coefficient  Atom+Function         Bfn.  Coefficient  Atom+Function  
  ----- ------------  ---------------      ----- ------------  ---------------
    13     17.438111   2 C  s                63     -9.646066   5 C  px        
   318     -6.954752  19 C  py              319      6.968945  19 C  pz        
    56     -6.887153   5 C  s               147     -6.450358   9 C  px        
   300     -6.228365  18 H  s               446      5.750017  27 C  s         
   582      5.683629  35 C  s               276      5.487907  17 N  s         

 Vector  203  Occ=0.000000D+00  E= 4.861431D-01
              MO Center= -4.1D-01,  6.0D-01, -4.5D-01, r^2= 2.5D+01
   Bfn.  Coefficient  Atom+Function         Bfn.  Coefficient  Atom+Function  
  ----- ------------  ---------------      ----- ------------  ---------------
   234    -12.787547  15 C  py              174     11.976222  11 C  s         
   226    -11.605612  15 C  s                12     10.322195   2 C  s         
    13      7.984830   2 C  s               140     -7.870781   9 C  s         
    56      7.804268   5 C  s               317     -6.548024  19 C  px        
   514     -6.195195  31 C  s               106      5.787368   7 N  s         

 Vector  204  Occ=0.000000D+00  E= 4.873484D-01
              MO Center= -3.4D-01, -8.6D-03, -2.4D-01, r^2= 2.5D+01
   Bfn.  Coefficient  Atom+Function         Bfn.  Coefficient  Atom+Function  
  ----- ------------  ---------------      ----- ------------  ---------------
   548    -12.961025  33 C  s               412     12.833397  25 C  s         
   514     12.106734  31 C  s               174     10.717779  11 C  s         
    13    -10.044087   2 C  s               446     -9.745456  27 C  s         
   226     -9.426381  15 C  s               106      8.673920   7 N  s         
   632     -8.276253  37 N  s               396      6.756557  24 C  pz        

 Vector  205  Occ=0.000000D+00  E= 4.902296D-01
              MO Center=  6.6D-01,  3.9D-01, -1.1D-01, r^2= 2.2D+01
   Bfn.  Coefficient  Atom+Function         Bfn.  Coefficient  Atom+Function  
  ----- ------------  ---------------      ----- ------------  ---------------
    13     20.083895   2 C  s                56    -17.143202   5 C  s         
    63    -10.138611   5 C  px              387     -9.774405  24 C  s         
   226     -8.133371  15 C  s               140     -7.153748   9 C  s         
   582      6.779014  35 C  s               106      6.597235   7 N  s         
   395     -6.476161  24 C  py              514      5.496911  31 C  s         

 Vector  206  Occ=0.000000D+00  E= 4.934473D-01
              MO Center=  1.6D-01,  6.5D-01, -1.5D-01, r^2= 2.1D+01
   Bfn.  Coefficient  Atom+Function         Bfn.  Coefficient  Atom+Function  
  ----- ------------  ---------------      ----- ------------  ---------------
   174     16.928418  11 C  s                13    -12.517619   2 C  s         
   147      8.663190   9 C  px              395     -8.408156  24 C  py        
    63      7.506056   5 C  px              548     -7.030040  33 C  s         
   226     -6.697239  15 C  s               148     -6.440110   9 C  py        
   352      5.786309  21 C  py              396      5.632366  24 C  pz        

 Vector  207  Occ=0.000000D+00  E= 4.956677D-01
              MO Center=  1.4D-01,  6.6D-01, -2.0D-01, r^2= 2.5D+01
   Bfn.  Coefficient  Atom+Function         Bfn.  Coefficient  Atom+Function  
  ----- ------------  ---------------      ----- ------------  ---------------
    13     37.328626   2 C  s                56    -31.871662   5 C  s         
   174    -25.604505  11 C  s                63    -18.104068   5 C  px        
   147    -14.885418   9 C  px              582     11.727129  35 C  s         
    12     10.744867   2 C  s               106     10.665750   7 N  s         
   412     -9.421941  25 C  s               148      9.268865   9 C  py        

 Vector  208  Occ=0.000000D+00  E= 5.007843D-01
              MO Center=  8.9D-01, -4.0D-01,  1.2D-01, r^2= 2.5D+01
   Bfn.  Coefficient  Atom+Function         Bfn.  Coefficient  Atom+Function  
  ----- ------------  ---------------      ----- ------------  ---------------
   548     24.310901  33 C  s               412    -20.968841  25 C  s         
   396    -18.637096  24 C  pz              514    -12.970631  31 C  s         
   632     10.809692  37 N  s               446      9.426411  27 C  s         
    56      9.151744   5 C  s               368     -8.063734  22 H  s         
   106     -7.274284   7 N  s               351      6.540501  21 C  px        


 center of mass
 --------------
 x =  -0.03298273 y =  -0.05910764 z =   0.03126828

 moments of inertia (a.u.)
 ------------------
       10376.566644944796           0.000000000000          -0.000000000002
           0.000000000000        3231.406660713048           0.000000000003
          -0.000000000002           0.000000000003       11906.990517526441

  Mulliken analysis of the total density
  --------------------------------------

    Atom       Charge   Shell Charges
 -----------   ------   -------------------------------------------------------
    1 H    1     0.94   0.76  0.20  0.01  0.03 -0.06
    2 C    6     6.56   2.01  0.66  0.32  0.31  2.07  1.04 -0.03  0.06  0.13
    3 H    1     0.81   0.76  0.07  0.01  0.03 -0.06
    4 H    1     0.80   0.76  0.05  0.01  0.03 -0.06
    5 C    6     4.93   2.01  0.68  0.07 -0.14  1.89  0.34 -0.16  0.24  0.00
    6 O    8     8.77   2.01  0.82  1.00  0.15  2.80  1.86  0.14  0.02 -0.01
    7 N    7     7.60   2.01  0.72  0.81 -0.08  2.45  1.44  0.15  0.05  0.04
    8 H    1     0.97   0.77  0.21 -0.02  0.05 -0.04
    9 C    6     6.69   2.01  0.66  0.10 -0.03  1.99  1.69 -0.09  0.14  0.23
   10 H    1     1.01   0.78  0.17  0.01  0.03  0.01
   11 C    6     5.65   2.01  0.66  0.17  0.24  2.04  0.50 -0.03  0.07 -0.00
   12 H    1     0.97   0.77  0.24  0.01  0.03 -0.08
   13 H    1     0.91   0.77  0.16  0.02  0.03 -0.07
   14 H    1     0.98   0.77  0.26  0.00  0.03 -0.08
   15 C    6     4.51   2.01  0.68 -0.07  0.02  1.88  0.07  0.10  0.23 -0.41
   16 O    8     8.82   2.01  0.82  1.02  0.16  2.79  1.86  0.15  0.01 -0.01
   17 N    7     7.61   2.01  0.72  0.92 -0.14  2.45  1.45  0.10  0.05  0.05
   18 H    1     0.93   0.73  0.29 -0.03  0.06 -0.12
   19 C    6     6.61   2.01  0.66  0.12  0.03  2.00  1.32  0.25  0.14  0.09
   20 H    1     1.09   0.79  0.27 -0.04  0.03  0.04
   21 C    6     5.40   2.01  0.66 -0.09 -0.04  2.04  0.78 -0.03  0.09 -0.02
   22 H    1     1.11   0.78  0.40 -0.03  0.03 -0.07
   23 H    1     1.17   0.78  0.42 -0.01  0.03 -0.05
   24 C    6     6.20   2.01  0.66  0.23 -0.31  1.99  0.79  0.38  0.12  0.32
   25 C    6     5.08   2.01  0.66  0.19 -0.63  2.00  0.76  0.19  0.09 -0.20
   26 H    1     1.70   0.79  0.86  0.01  0.03  0.01
   27 C    6     5.47   2.01  0.66  0.21 -0.30  2.00  0.78  0.28  0.09 -0.25
   28 H    1     1.55   0.78  0.72 -0.00  0.03  0.02
   29 C    6     5.40   2.01  0.66  0.12 -0.38  2.00  0.81  0.29  0.09 -0.20
   30 H    1     1.54   0.78  0.72 -0.00  0.03  0.02
   31 C    6     5.31   2.01  0.66  0.14 -0.34  2.00  0.75  0.25  0.09 -0.25
   32 H    1     1.53   0.78  0.71 -0.00  0.03  0.02
   33 C    6     5.25   2.01  0.66  0.19 -0.41  2.00  0.76  0.18  0.09 -0.23
   34 H    1     1.66   0.78  0.82  0.02  0.03  0.01
   35 C    6     4.46   2.01  0.68 -0.03  0.11  1.89 -0.19 -0.03  0.24 -0.21
   36 O    8     8.81   2.01  0.82  1.03  0.15  2.79  1.85  0.15  0.01 -0.00
   37 N    7     7.33   2.01  0.72  0.86 -0.11  2.46  1.25  0.10  0.04 -0.01
   38 H    1     0.90   0.74  0.18 -0.01  0.06 -0.06
   39 H    1     1.00   0.76  0.22 -0.00  0.05 -0.03

       Multipole analysis of the density wrt the origin
       ------------------------------------------------

     L   x y z        total         open         nuclear
     -   - - -        -----         ----         -------
     0   0 0 0      0.000000      0.000000    148.000000

     1   1 0 0      0.822734      0.000000      0.000000
     1   0 1 0      2.130017      0.000000     -0.000000
     1   0 0 1     -1.405580      0.000000      0.000000

     2   2 0 0    -85.616618      0.000000   1333.558073
     2   1 1 0      4.489077      0.000000      7.589033
     2   1 0 1     -4.071092      0.000000     -2.626824
     2   0 2 0    -71.993479      0.000000   5228.016527
     2   0 1 1     -1.283876      0.000000    -14.236720
     2   0 0 2    -95.589871      0.000000    479.865644


 Task  times  cpu:     5685.4s     wall:     5877.2s


                                NWChem Input Module
                                -------------------


 Summary of allocated global arrays
-----------------------------------
  No active global arrays


MA_summarize_allocated_blocks: starting scan ...
MA_summarize_allocated_blocks: scan completed: 0 heap blocks, 0 stack blocks
MA usage statistics:

	allocation statistics:
					      heap	     stack
					      ----	     -----
	current number of blocks	         0	         0
	maximum number of blocks	        16	        14
	current total bytes		         0	         0
	maximum total bytes		    142960	  30457976
	maximum total K-bytes		       143	     30458
	maximum total M-bytes		         1	        31


                                     CITATION
                                     --------
                Please cite the following reference when publishing
                           results obtained with NWChem:

          E. Apra, E. J. Bylaska, W. A. de Jong, N. Govind, K. Kowalski,
       T. P. Straatsma, M. Valiev, H. J. J. van Dam, Y. Alexeev, J. Anchell,
       V. Anisimov, F. W. Aquino, R. Atta-Fynn, J. Autschbach, N. P. Bauman,
     J. C. Becca, D. E. Bernholdt, K. Bhaskaran-Nair, S. Bogatko, P. Borowski,
         J. Boschen, J. Brabec, A. Bruner, E. Cauet, Y. Chen, G. N. Chuev,
      C. J. Cramer, J. Daily, M. J. O. Deegan, T. H. Dunning Jr., M. Dupuis,
   K. G. Dyall, G. I. Fann, S. A. Fischer, A. Fonari, H. Fruchtl, L. Gagliardi,
      J. Garza, N. Gawande, S. Ghosh, K. Glaesemann, A. W. Gotz, J. Hammond,
       V. Helms, E. D. Hermes, K. Hirao, S. Hirata, M. Jacquelin, L. Jensen,
   B. G. Johnson, H. Jonsson, R. A. Kendall, M. Klemm, R. Kobayashi, V. Konkov,
      S. Krishnamoorthy, M. Krishnan, Z. Lin, R. D. Lins, R. J. Littlefield,
      A. J. Logsdail, K. Lopata, W. Ma, A. V. Marenich, J. Martin del Campo,
   D. Mejia-Rodriguez, J. E. Moore, J. M. Mullin, T. Nakajima, D. R. Nascimento,
    J. A. Nichols, P. J. Nichols, J. Nieplocha, A. Otero-de-la-Roza, B. Palmer,
    A. Panyala, T. Pirojsirikul, B. Peng, R. Peverati, J. Pittner, L. Pollack,
   R. M. Richard, P. Sadayappan, G. C. Schatz, W. A. Shelton, D. W. Silverstein,
   D. M. A. Smith, T. A. Soares, D. Song, M. Swart, H. L. Taylor, G. S. Thomas,
            V. Tipparaju, D. G. Truhlar, K. Tsemekhman, T. Van Voorhis,
      A. Vazquez-Mayagoitia, P. Verma, O. Villa, A. Vishnu, K. D. Vogiatzis,
        D. Wang, J. H. Weare, M. J. Williamson, T. L. Windus, K. Wolinski,
        A. T. Wong, Q. Wu, C. Yang, Q. Yu, M. Zacharias, Z. Zhang, Y. Zhao,
                                and R. J. Harrison
                        "NWChem: Past, present, and future
                         J. Chem. Phys. 152, 184102 (2020)
                               doi:10.1063/5.0004997

                                      AUTHORS
                                      -------
  E. Apra, E. J. Bylaska, N. Govind, K. Kowalski, M. Valiev, D. Mejia-Rodriguez,
       A. Kunitsa, N. P. Bauman, A. Panyala, W. A. de Jong, T. P. Straatsma,
   H. J. J. van Dam, D. Wang, T. L. Windus, J. Hammond, J. Autschbach, A. Woods,
    K. Bhaskaran-Nair, J. Brabec, K. Lopata, S. A. Fischer, S. Krishnamoorthy,
     M. Jacquelin, W. Ma, M. Klemm, O. Villa, Y. Chen, V. Anisimov, F. Aquino,
     S. Hirata, M. T. Hackler, E. Hermes, L. Jensen, J. E. Moore, J. C. Becca,
      V. Konjkov, T. Risthaus, M. Malagoli, A. Marenich, A. Otero-de-la-Roza,
        J. Mullin, P. Nichols, R. Peverati, J. Pittner, Y. Zhao, P.-D. Fan,
        A. Fonari, M. J. Williamson, R. J. Harrison, J. R. Rehr, M. Dupuis,
     D. Silverstein, D. M. A. Smith, J. Nieplocha, V. Tipparaju, M. Krishnan,
     B. E. Van Kuiken, A. Vazquez-Mayagoitia, M. Swart, Q. Wu, T. Van Voorhis,
     A. A. Auer, M. Nooijen, L. D. Crosby, E. Brown, G. Cisneros, G. I. Fann,
   H. Fruchtl, J. Garza, K. Hirao, R. A. Kendall, J. A. Nichols, K. Tsemekhman,
    K. Wolinski, J. Anchell, D. E. Bernholdt, P. Borowski, T. Clark, D. Clerc,
   H. Dachsel, M. J. O. Deegan, K. Dyall, D. Elwood, E. Glendening, M. Gutowski,
   A. C. Hess, J. Jaffe, B. G. Johnson, J. Ju, R. Kobayashi, R. Kutteh, Z. Lin,
   R. Littlefield, X. Long, B. Meng, T. Nakajima, S. Niu, L. Pollack, M. Rosing,
   K. Glaesemann, G. Sandrone, M. Stave, H. Taylor, G. Thomas, J. H. van Lenthe,
                               A. T. Wong, Z. Zhang.

 Total times  cpu:     5685.4s     wall:     5877.7s
