export TMOUT=5400
export TMPDIR=/tmp
export PTMPDIR=/tmp/ptmp
 argument  1 = ALA_SER_1.nw
                                         
                                         


             Northwest Computational Chemistry Package (NWChem) 7.2.0
             --------------------------------------------------------


                    Environmental Molecular Sciences Laboratory
                       Pacific Northwest National Laboratory
                                Richland, WA 99352

                              Copyright (c) 1994-2022
                       Pacific Northwest National Laboratory
                            Battelle Memorial Institute

             NWChem is an open-source computational chemistry package
                        distributed under the terms of the
                      Educational Community License (ECL) 2.0
             A copy of the license is included with this distribution
                              in the LICENSE.TXT file

                                  ACKNOWLEDGMENT
                                  --------------

            This software and its documentation were developed at the
            EMSL at Pacific Northwest National Laboratory, a multiprogram
            national laboratory, operated for the U.S. Department of Energy
            by Battelle under Contract Number DE-AC05-76RL01830. Support
            for this work was provided by the Department of Energy Office
            of Biological and Environmental Research, Office of Basic
            Energy Sciences, and the Office of Advanced Scientific Computing.


           Job information
           ---------------

    hostname        = nova18-41
    program         = /opt/rit/el9/20230413/app/linux-rhel9-x86_64_v3/gcc-11.2.1/nwchem-7.2.0-oxtctbuhfuzyfaoziquq6bki22grib3g/bin/nwchem
    date            = Mon Jun 30 10:24:31 2025

    compiled        = Wed_May_17_23:46:39_2023
    source          = /tmp/root/spack-stage/spack-stage-nwchem-7.2.0-oxtctbuhfuzyfaoziquq6bki22grib3g/spack-src
    nwchem branch   = 7.2.0
    nwchem revision = d0d141fd
    ga revision     = 5.8.0
    use scalapack   = T
    input           = ALA_SER_1.nw
    prefix          = ALA_SER_1.
    data base       = ./ALA_SER_1.db
    status          = startup
    nproc           =        8
    time left       =     -1s



           Memory information
           ------------------

    heap     =   26214398 doubles =    200.0 Mbytes
    stack    =   26214395 doubles =    200.0 Mbytes
    global   =   52428800 doubles =    400.0 Mbytes (distinct from heap & stack)
    total    =  104857593 doubles =    800.0 Mbytes
    verify   = yes
    hardfail = no 


           Directory information
           ---------------------

  0 permanent = .
  0 scratch   = .




                                NWChem Input Module
                                -------------------



 Scaling coordinates for geometry "geometry" by  1.889725989
 (inverse scale =  0.529177249)

 C1  symmetry detected

          ------
          auto-z
          ------
  no constraints, skipping    0.0000000000000000     
  no constraints, skipping    0.0000000000000000     


                             Geometry "geometry" -> ""
                             -------------------------

 Output coordinates in angstroms (scale by  1.889725989 to convert to a.u.)

  No.       Tag          Charge          X              Y              Z
 ---- ---------------- ---------- -------------- -------------- --------------
    1 H                    1.0000    -2.70580851     3.59823502     0.14096162
    2 C                    6.0000    -2.69719060     2.51025177     0.17743341
    3 H                    1.0000    -3.50608521     2.12012907    -0.43981028
    4 H                    1.0000    -2.82849321     2.16985653     1.20275273
    5 C                    6.0000    -1.38188449     1.99929404    -0.35954706
    6 O                    8.0000    -1.35990386     1.24678673    -1.32447845
    7 N                    7.0000    -0.28025518     2.38365863     0.28419647
    8 H                    1.0000    -0.38146332     3.00276641     1.07141020
    9 C                    6.0000     1.08199718     2.04407987    -0.14900878
   10 H                    1.0000     1.20834106     2.38608101    -1.17712669
   11 C                    6.0000     2.06373795     2.82194042     0.73750349
   12 H                    1.0000     1.97117416     2.49821340     1.77556937
   13 H                    1.0000     3.08510742     2.63483690     0.39906193
   14 H                    1.0000     1.86419319     3.89159131     0.66791281
   15 C                    6.0000     1.40702782     0.53112001    -0.14665240
   16 O                    8.0000     2.40215610     0.11947839    -0.73502804
   17 N                    7.0000     0.57675469    -0.29902999     0.49186660
   18 H                    1.0000    -0.23406830     0.09255956     0.94620315
   19 C                    6.0000     0.65761243    -1.76636435     0.45315104
   20 H                    1.0000     1.70750854    -2.06061863     0.45683511
   21 C                    6.0000     0.00111330    -2.32640342     1.72022686
   22 H                    1.0000     0.08261696    -3.41463177     1.73210989
   23 H                    1.0000     0.52147240    -1.93040548     2.59374334
   24 O                    8.0000    -1.36245045    -1.94641850     1.78088463
   25 H                    1.0000    -1.86498866    -2.55909572     1.23312650
   26 C                    6.0000     0.01903810    -2.39515285    -0.79899945
   27 O                    8.0000    -0.05352492    -3.61337718    -0.90352735
   28 N                    7.0000    -0.50072298    -1.61736604    -1.74218665
   29 H                    1.0000    -0.91040239    -2.05313517    -2.55056283
   30 H                    1.0000    -0.49846497    -0.61156915    -1.63677075

      Atomic Mass 
      ----------- 

      H                  1.007825
      C                 12.000000
      O                 15.994910
      N                 14.003070


 Effective nuclear repulsion energy (a.u.)    1100.5569334602

            Nuclear Dipole moment (a.u.) 
            ----------------------------
        X                 Y               Z
 ---------------- ---------------- ----------------
     0.0000000000     0.0000000000     0.0000000000



                                Z-matrix (autoz)
                                -------- 

 Units are Angstrom for bonds and degrees for angles

      Type          Name      I     J     K     L     M      Value
      ----------- --------  ----- ----- ----- ----- ----- ----------
    1 Stretch                  1     2                       1.08863
    2 Stretch                  2     3                       1.08972
    3 Stretch                  2     4                       1.08830
    4 Stretch                  2     5                       1.50979
    5 Stretch                  5     6                       1.22386
    6 Stretch                  5     7                       1.33256
    7 Stretch                  7     8                       1.00660
    8 Stretch                  7     9                       1.46926
    9 Stretch                  9    10                       1.09085
   10 Stretch                  9    11                       1.53453
   11 Stretch                  9    15                       1.54748
   12 Stretch                 11    12                       1.09131
   13 Stretch                 11    13                       1.09213
   14 Stretch                 11    14                       1.09033
   15 Stretch                 15    16                       1.22716
   16 Stretch                 15    17                       1.33649
   17 Stretch                 17    18                       1.00856
   18 Stretch                 17    19                       1.47007
   19 Stretch                 19    20                       1.09036
   20 Stretch                 19    21                       1.53301
   21 Stretch                 19    26                       1.53982
   22 Stretch                 21    22                       1.09134
   23 Stretch                 21    23                       1.09115
   24 Stretch                 21    24                       1.41682
   25 Stretch                 24    25                       0.96331
   26 Stretch                 26    27                       1.22485
   27 Stretch                 26    28                       1.32842
   28 Stretch                 28    29                       1.00559
   29 Stretch                 28    30                       1.01131
   30 Bend                     1     2     3               109.44712
   31 Bend                     1     2     4               110.07204
   32 Bend                     1     2     5               109.46377
   33 Bend                     2     5     6               120.27512
   34 Bend                     2     5     7               116.79338
   35 Bend                     3     2     4               109.39705
   36 Bend                     3     2     5               108.90866
   37 Bend                     4     2     5               109.53239
   38 Bend                     5     7     8               118.16960
   39 Bend                     5     7     9               123.87550
   40 Bend                     6     5     7               122.91422
   41 Bend                     7     9    10               108.22902
   42 Bend                     7     9    11               107.79908
   43 Bend                     7     9    15               114.85100
   44 Bend                     8     7     9               117.77234
   45 Bend                     9    11    12               110.17517
   46 Bend                     9    11    13               109.41726
   47 Bend                     9    11    14               110.08008
   48 Bend                     9    15    16               119.83836
   49 Bend                     9    15    17               118.52417
   50 Bend                    10     9    11               108.14747
   51 Bend                    10     9    15               106.47711
   52 Bend                    11     9    15               111.12115
   53 Bend                    12    11    13               108.86119
   54 Bend                    12    11    14               109.64584
   55 Bend                    13    11    14               108.62956
   56 Bend                    15    17    18               118.26086
   57 Bend                    15    17    19               124.97603
   58 Bend                    16    15    17               121.63329
   59 Bend                    17    19    20               108.79842
   60 Bend                    17    19    21               108.62171
   61 Bend                    17    19    26               113.96627
   62 Bend                    18    17    19               116.33540
   63 Bend                    19    21    22               109.95584
   64 Bend                    19    21    23               108.95754
   65 Bend                    19    21    24               110.46005
   66 Bend                    19    26    27               120.00715
   67 Bend                    19    26    28               120.03533
   68 Bend                    20    19    21               108.11765
   69 Bend                    20    19    26               106.96961
   70 Bend                    21    19    26               110.20274
   71 Bend                    21    24    25               107.88765
   72 Bend                    22    21    23               108.51480
   73 Bend                    22    21    24               109.80621
   74 Bend                    23    21    24               109.10845
   75 Bend                    26    28    29               118.45319
   76 Bend                    26    28    30               120.49234
   77 Bend                    27    26    28               119.90464
   78 Bend                    29    28    30               121.04364
   79 Torsion                  1     2     5     6        -121.07069
   80 Torsion                  1     2     5     7          60.39778
   81 Torsion                  2     5     7     8          -1.32867
   82 Torsion                  2     5     7     9        -176.30020
   83 Torsion                  3     2     5     6          -1.44597
   84 Torsion                  3     2     5     7        -179.97751
   85 Torsion                  4     2     5     6         118.15867
   86 Torsion                  4     2     5     7         -60.37286
   87 Torsion                  5     7     9    10          55.77933
   88 Torsion                  5     7     9    11         172.53209
   89 Torsion                  5     7     9    15         -63.01231
   90 Torsion                  6     5     7     8        -179.81798
   91 Torsion                  6     5     7     9           5.21048
   92 Torsion                  7     9    11    12          63.70061
   93 Torsion                  7     9    11    13        -176.64954
   94 Torsion                  7     9    11    14         -57.34243
   95 Torsion                  7     9    15    16         165.38924
   96 Torsion                  7     9    15    17         -13.87929
   97 Torsion                  8     7     9    10        -119.21074
   98 Torsion                  8     7     9    11          -2.45798
   99 Torsion                  8     7     9    15         121.99762
  100 Torsion                  9    15    17    18           0.22580
  101 Torsion                  9    15    17    19         172.42558
  102 Torsion                 10     9    11    12        -179.49354
  103 Torsion                 10     9    11    13         -59.84369
  104 Torsion                 10     9    11    14          59.46341
  105 Torsion                 10     9    15    16          45.62121
  106 Torsion                 10     9    15    17        -133.64732
  107 Torsion                 11     9    15    16         -71.92417
  108 Torsion                 11     9    15    17         108.80730
  109 Torsion                 12    11     9    15         -62.96850
  110 Torsion                 13    11     9    15          56.68135
  111 Torsion                 14    11     9    15         175.98845
  112 Torsion                 15    17    19    20          37.70990
  113 Torsion                 15    17    19    21         155.18344
  114 Torsion                 15    17    19    26         -81.54617
  115 Torsion                 16    15    17    18        -179.02898
  116 Torsion                 16    15    17    19          -6.82920
  117 Torsion                 17    19    21    22        -177.86925
  118 Torsion                 17    19    21    23         -59.05750
  119 Torsion                 17    19    21    24          60.78340
  120 Torsion                 17    19    26    27        -175.24800
  121 Torsion                 17    19    26    28           2.10515
  122 Torsion                 18    17    19    20        -149.95537
  123 Torsion                 18    17    19    21         -32.48183
  124 Torsion                 18    17    19    26          90.78856
  125 Torsion                 19    21    24    25          82.16193
  126 Torsion                 19    26    28    29         179.90514
  127 Torsion                 19    26    28    30          -1.27976
  128 Torsion                 20    19    21    22         -59.96272
  129 Torsion                 20    19    21    23          58.84903
  130 Torsion                 20    19    21    24         178.68993
  131 Torsion                 20    19    26    27          64.46427
  132 Torsion                 20    19    26    28        -118.18257
  133 Torsion                 21    19    26    27         -52.84089
  134 Torsion                 21    19    26    28         124.51226
  135 Torsion                 22    21    19    26          56.62853
  136 Torsion                 22    21    24    25         -39.27410
  137 Torsion                 23    21    19    26         175.44028
  138 Torsion                 23    21    24    25        -158.08809
  139 Torsion                 24    21    19    26         -64.71882
  140 Torsion                 27    26    28    29          -2.73898
  141 Torsion                 27    26    28    30         176.07612


            XYZ format geometry
            -------------------
    30
 geometry
 H                    -2.70580851     3.59823502     0.14096162
 C                    -2.69719060     2.51025177     0.17743341
 H                    -3.50608521     2.12012907    -0.43981028
 H                    -2.82849321     2.16985653     1.20275273
 C                    -1.38188449     1.99929404    -0.35954706
 O                    -1.35990386     1.24678673    -1.32447845
 N                    -0.28025518     2.38365863     0.28419647
 H                    -0.38146332     3.00276641     1.07141020
 C                     1.08199718     2.04407987    -0.14900878
 H                     1.20834106     2.38608101    -1.17712669
 C                     2.06373795     2.82194042     0.73750349
 H                     1.97117416     2.49821340     1.77556937
 H                     3.08510742     2.63483690     0.39906193
 H                     1.86419319     3.89159131     0.66791281
 C                     1.40702782     0.53112001    -0.14665240
 O                     2.40215610     0.11947839    -0.73502804
 N                     0.57675469    -0.29902999     0.49186660
 H                    -0.23406830     0.09255956     0.94620315
 C                     0.65761243    -1.76636435     0.45315104
 H                     1.70750854    -2.06061863     0.45683511
 C                     0.00111330    -2.32640342     1.72022686
 H                     0.08261696    -3.41463177     1.73210989
 H                     0.52147240    -1.93040548     2.59374334
 O                    -1.36245045    -1.94641850     1.78088463
 H                    -1.86498866    -2.55909572     1.23312650
 C                     0.01903810    -2.39515285    -0.79899945
 O                    -0.05352492    -3.61337718    -0.90352735
 N                    -0.50072298    -1.61736604    -1.74218665
 H                    -0.91040239    -2.05313517    -2.55056283
 H                    -0.49846497    -0.61156915    -1.63677075

 ==============================================================================
                                internuclear distances
 ------------------------------------------------------------------------------
       center one      |      center two      | atomic units |  angstroms
 ------------------------------------------------------------------------------
    2 C                |   1 H                |     2.05721  |     1.08863
    3 H                |   2 C                |     2.05928  |     1.08972
    4 H                |   2 C                |     2.05658  |     1.08830
    5 C                |   2 C                |     2.85308  |     1.50979
    6 O                |   5 C                |     2.31277  |     1.22386
    7 N                |   5 C                |     2.51818  |     1.33256
    8 H                |   7 N                |     1.90220  |     1.00660
    9 C                |   7 N                |     2.77649  |     1.46926
   10 H                |   9 C                |     2.06141  |     1.09085
   11 C                |   9 C                |     2.89984  |     1.53453
   12 H                |  11 C                |     2.06227  |     1.09131
   13 H                |  11 C                |     2.06382  |     1.09213
   14 H                |  11 C                |     2.06042  |     1.09033
   15 C                |   9 C                |     2.92432  |     1.54748
   16 O                |  15 C                |     2.31899  |     1.22716
   17 N                |  15 C                |     2.52560  |     1.33649
   18 H                |  17 N                |     1.90591  |     1.00856
   19 C                |  17 N                |     2.77803  |     1.47007
   20 H                |  19 C                |     2.06048  |     1.09036
   21 C                |  19 C                |     2.89697  |     1.53301
   22 H                |  21 C                |     2.06234  |     1.09134
   23 H                |  21 C                |     2.06198  |     1.09115
   24 O                |  21 C                |     2.67740  |     1.41682
   25 H                |  24 O                |     1.82038  |     0.96331
   26 C                |  19 C                |     2.90983  |     1.53982
   27 O                |  26 C                |     2.31463  |     1.22485
   28 N                |  26 C                |     2.51035  |     1.32842
   29 H                |  28 N                |     1.90028  |     1.00559
   30 H                |  28 N                |     1.91110  |     1.01131
 ------------------------------------------------------------------------------
                         number of included internuclear distances:         29
 ==============================================================================



 ==============================================================================
                                 internuclear angles
 ------------------------------------------------------------------------------
        center 1       |       center 2       |       center 3       |  degrees
 ------------------------------------------------------------------------------
    1 H                |   2 C                |   3 H                |   109.45
    1 H                |   2 C                |   4 H                |   110.07
    1 H                |   2 C                |   5 C                |   109.46
    3 H                |   2 C                |   4 H                |   109.40
    3 H                |   2 C                |   5 C                |   108.91
    4 H                |   2 C                |   5 C                |   109.53
    2 C                |   5 C                |   6 O                |   120.28
    2 C                |   5 C                |   7 N                |   116.79
    6 O                |   5 C                |   7 N                |   122.91
    5 C                |   7 N                |   8 H                |   118.17
    5 C                |   7 N                |   9 C                |   123.88
    8 H                |   7 N                |   9 C                |   117.77
    7 N                |   9 C                |  10 H                |   108.23
    7 N                |   9 C                |  11 C                |   107.80
    7 N                |   9 C                |  15 C                |   114.85
   10 H                |   9 C                |  11 C                |   108.15
   10 H                |   9 C                |  15 C                |   106.48
   11 C                |   9 C                |  15 C                |   111.12
    9 C                |  11 C                |  12 H                |   110.18
    9 C                |  11 C                |  13 H                |   109.42
    9 C                |  11 C                |  14 H                |   110.08
   12 H                |  11 C                |  13 H                |   108.86
   12 H                |  11 C                |  14 H                |   109.65
   13 H                |  11 C                |  14 H                |   108.63
    9 C                |  15 C                |  16 O                |   119.84
    9 C                |  15 C                |  17 N                |   118.52
   16 O                |  15 C                |  17 N                |   121.63
   15 C                |  17 N                |  18 H                |   118.26
   15 C                |  17 N                |  19 C                |   124.98
   18 H                |  17 N                |  19 C                |   116.34
   17 N                |  19 C                |  20 H                |   108.80
   17 N                |  19 C                |  21 C                |   108.62
   17 N                |  19 C                |  26 C                |   113.97
   20 H                |  19 C                |  21 C                |   108.12
   20 H                |  19 C                |  26 C                |   106.97
   21 C                |  19 C                |  26 C                |   110.20
   19 C                |  21 C                |  22 H                |   109.96
   19 C                |  21 C                |  23 H                |   108.96
   19 C                |  21 C                |  24 O                |   110.46
   22 H                |  21 C                |  23 H                |   108.51
   22 H                |  21 C                |  24 O                |   109.81
   23 H                |  21 C                |  24 O                |   109.11
   21 C                |  24 O                |  25 H                |   107.89
   19 C                |  26 C                |  27 O                |   120.01
   19 C                |  26 C                |  28 N                |   120.04
   27 O                |  26 C                |  28 N                |   119.90
   26 C                |  28 N                |  29 H                |   118.45
   26 C                |  28 N                |  30 H                |   120.49
   29 H                |  28 N                |  30 H                |   121.04
 ------------------------------------------------------------------------------
                            number of included internuclear angles:         49
 ==============================================================================



  library name resolved from: environment
  library file name is: </opt/rit/el9/20230413/app/linux-rhel9-x86_64_v3/gcc-11.2.1/nwchem-7.2.0-oxtctbuhfuzyfaoziquq6bki22grib3g/share/nwchem/libraries/>
  


 Summary of "ao basis" -> "" (cartesian)
 ------------------------------------------------------------------------------
       Tag                 Description            Shells   Functions and Types
 ---------------- ------------------------------  ------  ---------------------
 *                        aug-cc-pvdz                 on all atoms 


                      Basis "ao basis" -> "ao basis" (cartesian)
                      -----
  H (Hydrogen)
  ------------
            Exponent  Coefficients 
       -------------- ---------------------------------------------------------
  1 S  1.30100000E+01  0.019685
  1 S  1.96200000E+00  0.137977
  1 S  4.44600000E-01  0.478148

  2 S  1.22000000E-01  1.000000

  3 S  2.97400000E-02  1.000000

  4 P  7.27000000E-01  1.000000

  5 P  1.41000000E-01  1.000000

  C (Carbon)
  ----------
            Exponent  Coefficients 
       -------------- ---------------------------------------------------------
  1 S  6.66500000E+03  0.000692
  1 S  1.00000000E+03  0.005329
  1 S  2.28000000E+02  0.027077
  1 S  6.47100000E+01  0.101718
  1 S  2.10600000E+01  0.274740
  1 S  7.49500000E+00  0.448564
  1 S  2.79700000E+00  0.285074
  1 S  5.21500000E-01  0.015204

  2 S  6.66500000E+03 -0.000146
  2 S  1.00000000E+03 -0.001154
  2 S  2.28000000E+02 -0.005725
  2 S  6.47100000E+01 -0.023312
  2 S  2.10600000E+01 -0.063955
  2 S  7.49500000E+00 -0.149981
  2 S  2.79700000E+00 -0.127262
  2 S  5.21500000E-01  0.544529

  3 S  1.59600000E-01  1.000000

  4 S  4.69000000E-02  1.000000

  5 P  9.43900000E+00  0.038109
  5 P  2.00200000E+00  0.209480
  5 P  5.45600000E-01  0.508557

  6 P  1.51700000E-01  1.000000

  7 P  4.04100000E-02  1.000000

  8 D  5.50000000E-01  1.000000

  9 D  1.51000000E-01  1.000000

  O (Oxygen)
  ----------
            Exponent  Coefficients 
       -------------- ---------------------------------------------------------
  1 S  1.17200000E+04  0.000710
  1 S  1.75900000E+03  0.005470
  1 S  4.00800000E+02  0.027837
  1 S  1.13700000E+02  0.104800
  1 S  3.70300000E+01  0.283062
  1 S  1.32700000E+01  0.448719
  1 S  5.02500000E+00  0.270952
  1 S  1.01300000E+00  0.015458

  2 S  1.17200000E+04 -0.000160
  2 S  1.75900000E+03 -0.001263
  2 S  4.00800000E+02 -0.006267
  2 S  1.13700000E+02 -0.025716
  2 S  3.70300000E+01 -0.070924
  2 S  1.32700000E+01 -0.165411
  2 S  5.02500000E+00 -0.116955
  2 S  1.01300000E+00  0.557368

  3 S  3.02300000E-01  1.000000

  4 S  7.89600000E-02  1.000000

  5 P  1.77000000E+01  0.043018
  5 P  3.85400000E+00  0.228913
  5 P  1.04600000E+00  0.508728

  6 P  2.75300000E-01  1.000000

  7 P  6.85600000E-02  1.000000

  8 D  1.18500000E+00  1.000000

  9 D  3.32000000E-01  1.000000

  N (Nitrogen)
  ------------
            Exponent  Coefficients 
       -------------- ---------------------------------------------------------
  1 S  9.04600000E+03  0.000700
  1 S  1.35700000E+03  0.005389
  1 S  3.09300000E+02  0.027406
  1 S  8.77300000E+01  0.103207
  1 S  2.85600000E+01  0.278723
  1 S  1.02100000E+01  0.448540
  1 S  3.83800000E+00  0.278238
  1 S  7.46600000E-01  0.015440

  2 S  9.04600000E+03 -0.000153
  2 S  1.35700000E+03 -0.001208
  2 S  3.09300000E+02 -0.005992
  2 S  8.77300000E+01 -0.024544
  2 S  2.85600000E+01 -0.067459
  2 S  1.02100000E+01 -0.158078
  2 S  3.83800000E+00 -0.121831
  2 S  7.46600000E-01  0.549003

  3 S  2.24800000E-01  1.000000

  4 S  6.12400000E-02  1.000000

  5 P  1.35500000E+01  0.039919
  5 P  2.91700000E+00  0.217169
  5 P  7.97300000E-01  0.510319

  6 P  2.18500000E-01  1.000000

  7 P  5.61100000E-02  1.000000

  8 D  8.17000000E-01  1.000000

  9 D  2.30000000E-01  1.000000



 Summary of "ao basis" -> "ao basis" (cartesian)
 ------------------------------------------------------------------------------
       Tag                 Description            Shells   Functions and Types
 ---------------- ------------------------------  ------  ---------------------
 H                        aug-cc-pvdz                5        9   3s2p
 C                        aug-cc-pvdz                9       25   4s3p2d
 O                        aug-cc-pvdz                9       25   4s3p2d
 N                        aug-cc-pvdz                9       25   4s3p2d


                                 NWChem SCF Module
                                 -----------------



  ao basis        = "ao basis"
  functions       =   510
  atoms           =    30
  closed shells   =    58
  open shells     =     0
  charge          =   0.00
  wavefunction    = RHF 
  input vectors   = atomic
  output vectors  = ./ALA_SER_1.movecs
  use symmetry    = F
  symmetry adapt  = F


 Summary of "ao basis" -> "ao basis" (cartesian)
 ------------------------------------------------------------------------------
       Tag                 Description            Shells   Functions and Types
 ---------------- ------------------------------  ------  ---------------------
 H                        aug-cc-pvdz                5        9   3s2p
 C                        aug-cc-pvdz                9       25   4s3p2d
 O                        aug-cc-pvdz                9       25   4s3p2d
 N                        aug-cc-pvdz                9       25   4s3p2d



 Forming initial guess at       1.5s


 !! The overlap matrix has   3 vectors deemed linearly dependent with
    eigenvalues:
 4.52D-06 4.99D-06 8.45D-06


      Superposition of Atomic Density Guess
      -------------------------------------

 Sum of atomic energies:        -770.80158829

      Non-variational initial energy
      ------------------------------

 Total energy =    -780.111599
 1-e energy   =   -3235.751088
 2-e energy   =    1355.082555
 HOMO         =      -0.310763
 LUMO         =       0.013369


 Starting SCF solution at     178.0s



 ----------------------------------------------
         Quadratically convergent ROHF

 Convergence threshold     :          1.000E-04
 Maximum no. of iterations :           30
 Final Fock-matrix accuracy:          1.000E-10
 ----------------------------------------------


              iter       energy          gnorm     gmax       time
             ----- ------------------- --------- --------- --------
                 1     -774.2793834676  2.46D+00  1.69D-01    348.7
                 2     -774.5974199553  8.03D-01  3.79D-02    707.0
                 3     -774.6537408354  6.61D-02  4.53D-03   1249.4
                 4     -774.6543759375  4.17D-03  4.78D-04   1972.9
                 5     -774.6543793694  8.40D-06  6.12D-07   3268.8


       Final RHF  results 
       ------------------ 

         Total SCF energy =   -774.654379369366
      One-electron energy =  -3246.229726535185
      Two-electron energy =   1371.018413705609
 Nuclear repulsion energy =   1100.556933460211

        Time for solution =   3097.3s


             Final eigenvalues
             -----------------

              1      
    1  -20.5827
    2  -20.5515
    3  -20.5317
    4  -20.5132
    5  -15.6259
    6  -15.6037
    7  -15.5749
    8  -11.3803
    9  -11.3666
   10  -11.3481
   11  -11.3143
   12  -11.2990
   13  -11.2947
   14  -11.2622
   15  -11.2595
   16   -1.4157
   17   -1.3935
   18   -1.3839
   19   -1.3731
   20   -1.2752
   21   -1.2468
   22   -1.1995
   23   -1.0820
   24   -1.0354
   25   -1.0130
   26   -0.9138
   27   -0.8879
   28   -0.8357
   29   -0.8109
   30   -0.7859
   31   -0.7448
   32   -0.7289
   33   -0.7165
   34   -0.6962
   35   -0.6908
   36   -0.6664
   37   -0.6535
   38   -0.6367
   39   -0.6215
   40   -0.6142
   41   -0.6049
   42   -0.5991
   43   -0.5905
   44   -0.5846
   45   -0.5664
   46   -0.5601
   47   -0.5553
   48   -0.5459
   49   -0.5384
   50   -0.5150
   51   -0.5059
   52   -0.4640
   53   -0.4539
   54   -0.4506
   55   -0.4373
   56   -0.4112
   57   -0.3961
   58   -0.3869
   59    0.0182
   60    0.0343
   61    0.0356
   62    0.0436
   63    0.0512
   64    0.0545
   65    0.0581
   66    0.0600
   67    0.0656
   68    0.0730

                       ROHF Final Molecular Orbital Analysis
                       -------------------------------------

 Vector   16  Occ=2.000000D+00  E=-1.415742D+00
              MO Center= -1.1D+00,  1.5D+00, -8.2D-01, r^2= 1.4D+00
   Bfn.  Coefficient  Atom+Function         Bfn.  Coefficient  Atom+Function  
  ----- ------------  ---------------      ----- ------------  ---------------
    79      0.340060   6 O  s                80      0.341043   6 O  s         
    54      0.241220   5 C  s                12      0.181281   2 C  s         
   225      0.152040  15 C  s         

 Vector   17  Occ=2.000000D+00  E=-1.393453D+00
              MO Center=  1.1D+00, -4.1D-01, -1.3D-01, r^2= 4.5D+00
   Bfn.  Coefficient  Atom+Function         Bfn.  Coefficient  Atom+Function  
  ----- ------------  ---------------      ----- ------------  ---------------
   250      0.306108  16 O  s               249      0.287887  16 O  s         
   224      0.208867  15 C  s               386      0.171368  24 O  s         
   385      0.157641  24 O  s         

 Vector   18  Occ=2.000000D+00  E=-1.383885D+00
              MO Center= -2.3D-01, -1.6D+00,  7.4D-01, r^2= 5.2D+00
   Bfn.  Coefficient  Atom+Function         Bfn.  Coefficient  Atom+Function  
  ----- ------------  ---------------      ----- ------------  ---------------
   386      0.342116  24 O  s               385      0.314776  24 O  s         
   250     -0.198209  16 O  s               249     -0.185122  16 O  s         
   409      0.153269  25 H  s         

 Vector   19  Occ=2.000000D+00  E=-1.373086D+00
              MO Center= -3.4D-01, -2.8D+00, -3.2D-01, r^2= 2.5D+00
   Bfn.  Coefficient  Atom+Function         Bfn.  Coefficient  Atom+Function  
  ----- ------------  ---------------      ----- ------------  ---------------
   445      0.341654  27 O  s               444      0.312645  27 O  s         
   386     -0.219317  24 O  s               419      0.213480  26 C  s         
   385     -0.203715  24 O  s         

 Vector   20  Occ=2.000000D+00  E=-1.275222D+00
              MO Center= -2.5D-01,  2.0D+00, -1.0D-02, r^2= 2.2D+00
   Bfn.  Coefficient  Atom+Function         Bfn.  Coefficient  Atom+Function  
  ----- ------------  ---------------      ----- ------------  ---------------
   105      0.390280   7 N  s               104      0.330544   7 N  s         
    80     -0.214918   6 O  s                79     -0.180902   6 O  s         
   139     -0.176347   9 C  s               128      0.152399   8 H  s         

 Vector   21  Occ=2.000000D+00  E=-1.246788D+00
              MO Center=  6.3D-01, -2.9D-01,  1.8D-01, r^2= 2.8D+00
   Bfn.  Coefficient  Atom+Function         Bfn.  Coefficient  Atom+Function  
  ----- ------------  ---------------      ----- ------------  ---------------
   275      0.348792  17 N  s               274      0.324105  17 N  s         
   309     -0.209825  19 C  s               250     -0.197458  16 O  s         
   249     -0.161246  16 O  s         

 Vector   22  Occ=2.000000D+00  E=-1.199490D+00
              MO Center= -3.1D-01, -1.8D+00, -1.4D+00, r^2= 1.8D+00
   Bfn.  Coefficient  Atom+Function         Bfn.  Coefficient  Atom+Function  
  ----- ------------  ---------------      ----- ------------  ---------------
   470      0.385681  28 N  s               469      0.365990  28 N  s         
   309     -0.221445  19 C  s               445     -0.195489  27 O  s         
   423      0.176802  26 C  py              444     -0.165650  27 O  s         
   502      0.159647  30 H  s               493      0.158179  29 H  s         

 Vector   23  Occ=2.000000D+00  E=-1.082020D+00
              MO Center=  4.3D-01,  1.9D+00,  1.8D-01, r^2= 4.9D+00
   Bfn.  Coefficient  Atom+Function         Bfn.  Coefficient  Atom+Function  
  ----- ------------  ---------------      ----- ------------  ---------------
   138      0.235955   9 C  s               172      0.199071  11 C  s         

 Vector   24  Occ=2.000000D+00  E=-1.035443D+00
              MO Center=  2.8D-01, -1.2D+00,  6.6D-01, r^2= 4.9D+00
   Bfn.  Coefficient  Atom+Function         Bfn.  Coefficient  Atom+Function  
  ----- ------------  ---------------      ----- ------------  ---------------
   308      0.260080  19 C  s               342      0.201605  21 C  s         
   145      0.163124   9 C  py        

 Vector   25  Occ=2.000000D+00  E=-1.013005D+00
              MO Center= -1.3D+00,  2.4D+00,  2.2D-01, r^2= 5.2D+00
   Bfn.  Coefficient  Atom+Function         Bfn.  Coefficient  Atom+Function  
  ----- ------------  ---------------      ----- ------------  ---------------
    11      0.311262   2 C  s               172      0.176823  11 C  s         
    55      0.167982   5 C  s                57     -0.163973   5 C  px        

 Vector   26  Occ=2.000000D+00  E=-9.138089D-01
              MO Center=  8.9D-01,  9.0D-01,  6.5D-01, r^2= 7.7D+00
   Bfn.  Coefficient  Atom+Function         Bfn.  Coefficient  Atom+Function  
  ----- ------------  ---------------      ----- ------------  ---------------
   139      0.256607   9 C  s               145     -0.227386   9 C  py        
   172     -0.216023  11 C  s               342      0.181868  21 C  s         
   173     -0.165749  11 C  s               138      0.161572   9 C  s         

 Vector   27  Occ=2.000000D+00  E=-8.879293D-01
              MO Center=  2.5D-01, -9.4D-01,  5.5D-01, r^2= 7.5D+00
   Bfn.  Coefficient  Atom+Function         Bfn.  Coefficient  Atom+Function  
  ----- ------------  ---------------      ----- ------------  ---------------
   309      0.326216  19 C  s               342     -0.210211  21 C  s         
   316     -0.175228  19 C  pz        

 Vector   28  Occ=2.000000D+00  E=-8.356706D-01
              MO Center= -3.5D-01,  1.9D+00,  7.3D-02, r^2= 4.3D+00
   Bfn.  Coefficient  Atom+Function         Bfn.  Coefficient  Atom+Function  
  ----- ------------  ---------------      ----- ------------  ---------------
   107      0.233849   7 N  px              128      0.223645   8 H  s         
    54     -0.208615   5 C  s               105      0.197750   7 N  s         
   109      0.196159   7 N  pz              139     -0.192885   9 C  s         
    60     -0.188797   5 C  px               56      0.169565   5 C  s         
    12     -0.165877   2 C  s                80      0.159469   6 O  s         

 Vector   29  Occ=2.000000D+00  E=-8.108519D-01
              MO Center=  5.0D-01,  2.1D-01,  2.4D-01, r^2= 4.4D+00
   Bfn.  Coefficient  Atom+Function         Bfn.  Coefficient  Atom+Function  
  ----- ------------  ---------------      ----- ------------  ---------------
   277      0.240966  17 N  px              309      0.230833  19 C  s         
   298     -0.214104  18 H  s               225      0.186632  15 C  s         
   275     -0.185593  17 N  s               224      0.174378  15 C  s         
   279     -0.164741  17 N  pz              128      0.162240   8 H  s         
   250     -0.158168  16 O  s               231     -0.154614  15 C  py        

 Vector   30  Occ=2.000000D+00  E=-7.858953D-01
              MO Center= -5.4D-02, -1.5D+00, -6.5D-01, r^2= 4.1D+00
   Bfn.  Coefficient  Atom+Function         Bfn.  Coefficient  Atom+Function  
  ----- ------------  ---------------      ----- ------------  ---------------
   427      0.245832  26 C  pz              474     -0.230179  28 N  pz        
   419     -0.205459  26 C  s               316      0.202290  19 C  pz        
   225      0.194514  15 C  s               315      0.177522  19 C  py        
   493      0.175902  29 H  s               445      0.168946  27 O  s         
   473      0.167025  28 N  py              298     -0.162147  18 H  s         

 Vector   31  Occ=2.000000D+00  E=-7.448285D-01
              MO Center=  4.5D-02, -4.1D-01, -4.2D-01, r^2= 5.6D+00
   Bfn.  Coefficient  Atom+Function         Bfn.  Coefficient  Atom+Function  
  ----- ------------  ---------------      ----- ------------  ---------------
   225      0.293965  15 C  s               473     -0.248517  28 N  py        
   315      0.230908  19 C  py              145      0.211621   9 C  py        
   502     -0.212100  30 H  s               420      0.208019  26 C  s         
   424     -0.175435  26 C  pz              277      0.164900  17 N  px        
    56      0.160992   5 C  s               421     -0.157927  26 C  s         

 Vector   32  Occ=2.000000D+00  E=-7.288565D-01
              MO Center= -1.7D-01,  4.9D-01, -3.0D-01, r^2= 7.4D+00
   Bfn.  Coefficient  Atom+Function         Bfn.  Coefficient  Atom+Function  
  ----- ------------  ---------------      ----- ------------  ---------------
   145      0.294485   9 C  py              225      0.249474  15 C  s         
   473      0.186988  28 N  py              109     -0.181451   7 N  pz        
   144     -0.165817   9 C  px              502      0.162661  30 H  s         
   128     -0.159993   8 H  s               493     -0.159084  29 H  s         
   139     -0.157773   9 C  s               228     -0.157050  15 C  py        

 Vector   33  Occ=2.000000D+00  E=-7.165499D-01
              MO Center= -2.1D-01, -6.5D-01,  5.4D-01, r^2= 7.7D+00
   Bfn.  Coefficient  Atom+Function         Bfn.  Coefficient  Atom+Function  
  ----- ------------  ---------------      ----- ------------  ---------------
   409      0.203351  25 H  s               139     -0.181332   9 C  s         
   388     -0.175436  24 O  px              389     -0.161349  24 O  py        
   315     -0.154016  19 C  py              346     -0.152543  21 C  py        
   284     -0.151119  17 N  py        

 Vector   34  Occ=2.000000D+00  E=-6.961989D-01
              MO Center= -9.1D-01,  8.3D-01, -2.1D-01, r^2= 7.7D+00
   Bfn.  Coefficient  Atom+Function         Bfn.  Coefficient  Atom+Function  
  ----- ------------  ---------------      ----- ------------  ---------------
    57      0.208221   5 C  px               80      0.186226   6 O  s         
    17     -0.171956   2 C  px        

 Vector   35  Occ=2.000000D+00  E=-6.908266D-01
              MO Center= -3.1D-01,  4.2D-01,  1.7D-01, r^2= 8.3D+00
   Bfn.  Coefficient  Atom+Function         Bfn.  Coefficient  Atom+Function  
  ----- ------------  ---------------      ----- ------------  ---------------
    84      0.182202   6 O  pz              143      0.169815   9 C  pz        
   409     -0.167069  25 H  s               162     -0.161758  10 H  s         
   389      0.162130  24 O  py               80     -0.153550   6 O  s         

 Vector   36  Occ=2.000000D+00  E=-6.663758D-01
              MO Center= -1.3D-01, -1.4D+00, -1.8D-01, r^2= 7.3D+00
   Bfn.  Coefficient  Atom+Function         Bfn.  Coefficient  Atom+Function  
  ----- ------------  ---------------      ----- ------------  ---------------
   474      0.207871  28 N  pz              493     -0.208188  29 H  s         
   388     -0.177473  24 O  px              424     -0.168995  26 C  pz        
   448     -0.160311  27 O  py              445      0.157727  27 O  s         
   421     -0.153106  26 C  s         

 Vector   37  Occ=2.000000D+00  E=-6.535207D-01
              MO Center=  5.1D-01, -9.5D-01,  3.1D-01, r^2= 6.7D+00
   Bfn.  Coefficient  Atom+Function         Bfn.  Coefficient  Atom+Function  
  ----- ------------  ---------------      ----- ------------  ---------------
   311      0.191471  19 C  px              390      0.189703  24 O  pz        
   252      0.188305  16 O  px              226      0.172261  15 C  s         
   332      0.171596  20 H  s               250      0.159275  16 O  s         
   347      0.156645  21 C  pz        

 Vector   38  Occ=2.000000D+00  E=-6.367174D-01
              MO Center= -1.5D+00,  1.9D+00,  7.7D-02, r^2= 5.4D+00
   Bfn.  Coefficient  Atom+Function         Bfn.  Coefficient  Atom+Function  
  ----- ------------  ---------------      ----- ------------  ---------------
   139      0.296581   9 C  s                15     -0.240436   2 C  py        
     1     -0.218154   1 H  s                44      0.214213   4 H  s         
    16      0.181526   2 C  pz               83     -0.158171   6 O  py        
    58     -0.151087   5 C  py        

 Vector   39  Occ=2.000000D+00  E=-6.214993D-01
              MO Center=  6.0D-01,  1.8D-01,  1.2D-01, r^2= 8.4D+00
   Bfn.  Coefficient  Atom+Function         Bfn.  Coefficient  Atom+Function  
  ----- ------------  ---------------      ----- ------------  ---------------
   252      0.253758  16 O  px              250      0.201552  16 O  s         
   229      0.166814  15 C  pz              388      0.158494  24 O  px        

 Vector   40  Occ=2.000000D+00  E=-6.142017D-01
              MO Center= -1.0D-01, -9.5D-01,  6.8D-01, r^2= 7.2D+00
   Bfn.  Coefficient  Atom+Function         Bfn.  Coefficient  Atom+Function  
  ----- ------------  ---------------      ----- ------------  ---------------
   389      0.203863  24 O  py              313      0.190917  19 C  pz        
   346      0.174532  21 C  py              390     -0.170868  24 O  pz        
   420      0.156922  26 C  s               367     -0.155789  22 H  s         
   392      0.153828  24 O  py              316      0.153036  19 C  pz        
   345      0.152350  21 C  px        

 Vector   41  Occ=2.000000D+00  E=-6.048608D-01
              MO Center=  1.1D-01, -2.9D-01, -2.1D-01, r^2= 1.0D+01
   Bfn.  Coefficient  Atom+Function         Bfn.  Coefficient  Atom+Function  
  ----- ------------  ---------------      ----- ------------  ---------------
   448      0.262711  27 O  py              423     -0.187635  26 C  py        
   445     -0.174202  27 O  s         

 Vector   42  Occ=2.000000D+00  E=-5.990854D-01
              MO Center=  1.2D-01,  8.8D-01, -2.5D-01, r^2= 8.2D+00
   Bfn.  Coefficient  Atom+Function         Bfn.  Coefficient  Atom+Function  
  ----- ------------  ---------------      ----- ------------  ---------------
    84      0.170022   6 O  pz              254      0.150645  16 O  pz        

 Vector   43  Occ=2.000000D+00  E=-5.904832D-01
              MO Center= -1.0D+00,  2.2D+00,  1.3D-01, r^2= 8.9D+00
   Bfn.  Coefficient  Atom+Function         Bfn.  Coefficient  Atom+Function  
  ----- ------------  ---------------      ----- ------------  ---------------
    35      0.302880   3 H  s                36      0.236715   3 H  s         
    16     -0.220459   2 C  pz              175      0.218329  11 C  px        
   205      0.216745  13 H  s                14     -0.201239   2 C  px        
   206      0.182198  13 H  s                15     -0.154460   2 C  py        

 Vector   44  Occ=2.000000D+00  E=-5.845908D-01
              MO Center=  6.2D-01, -5.4D-01,  1.4D-01, r^2= 7.0D+00
   Bfn.  Coefficient  Atom+Function         Bfn.  Coefficient  Atom+Function  
  ----- ------------  ---------------      ----- ------------  ---------------
   254      0.222207  16 O  pz              227      0.202862  15 C  px        
   279      0.188303  17 N  pz              448     -0.154890  27 O  py        

 Vector   45  Occ=2.000000D+00  E=-5.664340D-01
              MO Center= -3.9D-02, -1.5D+00,  7.8D-02, r^2= 7.8D+00
   Bfn.  Coefficient  Atom+Function         Bfn.  Coefficient  Atom+Function  
  ----- ------------  ---------------      ----- ------------  ---------------
   343      0.266653  21 C  s               448     -0.226377  27 O  py        
   316     -0.214362  19 C  pz              423      0.183363  26 C  py        
   424      0.177069  26 C  pz              388     -0.168034  24 O  px        

 Vector   46  Occ=2.000000D+00  E=-5.601445D-01
              MO Center= -2.3D-01,  2.3D+00,  3.4D-01, r^2= 6.8D+00
   Bfn.  Coefficient  Atom+Function         Bfn.  Coefficient  Atom+Function  
  ----- ------------  ---------------      ----- ------------  ---------------
   196      0.237051  12 H  s               177      0.226996  11 C  pz        
    15     -0.205760   2 C  py                1     -0.200487   1 H  s         
   197      0.194413  12 H  s               108      0.183967   7 N  py        
   206     -0.172708  13 H  s               111      0.166561   7 N  py        
    45      0.153517   4 H  s                44      0.151445   4 H  s         

 Vector   47  Occ=2.000000D+00  E=-5.553352D-01
              MO Center=  6.9D-01,  1.7D+00,  1.8D-01, r^2= 9.0D+00
   Bfn.  Coefficient  Atom+Function         Bfn.  Coefficient  Atom+Function  
  ----- ------------  ---------------      ----- ------------  ---------------
   175      0.270229  11 C  px              205      0.255278  13 H  s         
   215     -0.226807  14 H  s               206      0.224485  13 H  s         
    55     -0.191844   5 C  s               214     -0.180150  14 H  s         
    12      0.170362   2 C  s                35     -0.168427   3 H  s         
   107      0.165590   7 N  px        

 Vector   48  Occ=2.000000D+00  E=-5.459133D-01
              MO Center=  2.9D-01,  7.5D-01,  1.5D-02, r^2= 9.0D+00
   Bfn.  Coefficient  Atom+Function         Bfn.  Coefficient  Atom+Function  
  ----- ------------  ---------------      ----- ------------  ---------------
   176      0.180989  11 C  py              421     -0.161022  26 C  s         
   141     -0.158445   9 C  px        

 Vector   49  Occ=2.000000D+00  E=-5.384495D-01
              MO Center=  3.2D-01, -6.8D-01, -4.4D-02, r^2= 8.9D+00
   Bfn.  Coefficient  Atom+Function         Bfn.  Coefficient  Atom+Function  
  ----- ------------  ---------------      ----- ------------  ---------------
   447      0.209466  27 O  px              422      0.191093  26 C  px        
   343      0.187067  21 C  s               332     -0.169082  20 H  s         
   450      0.160048  27 O  px              311     -0.156424  19 C  px        
   197     -0.154134  12 H  s         

 Vector   50  Occ=2.000000D+00  E=-5.149571D-01
              MO Center=  5.2D-01,  5.3D-01,  7.0D-02, r^2= 8.1D+00
   Bfn.  Coefficient  Atom+Function         Bfn.  Coefficient  Atom+Function  
  ----- ------------  ---------------      ----- ------------  ---------------
   309      0.249055  19 C  s               143      0.233564   9 C  pz        
   343     -0.216013  21 C  s               162     -0.199471  10 H  s         
   177     -0.179316  11 C  pz              254     -0.150415  16 O  pz        

 Vector   51  Occ=2.000000D+00  E=-5.058596D-01
              MO Center= -1.4D-01, -1.8D+00,  1.2D+00, r^2= 5.0D+00
   Bfn.  Coefficient  Atom+Function         Bfn.  Coefficient  Atom+Function  
  ----- ------------  ---------------      ----- ------------  ---------------
   389      0.294769  24 O  py              376     -0.245862  23 H  s         
   366      0.241504  22 H  s               367      0.238322  22 H  s         
   346     -0.235665  21 C  py              392      0.204454  24 O  py        
   375     -0.190374  23 H  s               347     -0.165305  21 C  pz        

 Vector   52  Occ=2.000000D+00  E=-4.640024D-01
              MO Center= -5.1D-01, -1.9D+00,  1.3D+00, r^2= 3.0D+00
   Bfn.  Coefficient  Atom+Function         Bfn.  Coefficient  Atom+Function  
  ----- ------------  ---------------      ----- ------------  ---------------
   390      0.390692  24 O  pz              393      0.312704  24 O  pz        
   389     -0.265406  24 O  py              392     -0.215725  24 O  py        
   347     -0.192421  21 C  pz              311     -0.190218  19 C  px        
   313      0.187475  19 C  pz              350     -0.166769  21 C  pz        

 Vector   53  Occ=2.000000D+00  E=-4.538868D-01
              MO Center=  4.1D-01,  9.8D-01, -4.4D-01, r^2= 5.4D+00
   Bfn.  Coefficient  Atom+Function         Bfn.  Coefficient  Atom+Function  
  ----- ------------  ---------------      ----- ------------  ---------------
   253      0.325441  16 O  py              139     -0.263275   9 C  s         
   256      0.258758  16 O  py              108      0.237314   7 N  py        
    83     -0.231033   6 O  py              111      0.216254   7 N  py        
   109     -0.214199   7 N  pz              112     -0.183404   7 N  pz        
    86     -0.179209   6 O  py              234     -0.179328  15 C  py        

 Vector   54  Occ=2.000000D+00  E=-4.506287D-01
              MO Center= -9.4D-01,  1.2D+00, -8.2D-01, r^2= 4.4D+00
   Bfn.  Coefficient  Atom+Function         Bfn.  Coefficient  Atom+Function  
  ----- ------------  ---------------      ----- ------------  ---------------
    82      0.494238   6 O  px               85      0.393716   6 O  px        
    13     -0.256927   2 C  s               276     -0.185285  17 N  s         
   105     -0.169985   7 N  s                63     -0.168074   5 C  px        
   226      0.167880  15 C  s                56      0.163493   5 C  s         
   254      0.164025  16 O  pz              140      0.154036   9 C  s         

 Vector   55  Occ=2.000000D+00  E=-4.372993D-01
              MO Center=  4.3D-01, -1.2D+00, -5.9D-01, r^2= 7.0D+00
   Bfn.  Coefficient  Atom+Function         Bfn.  Coefficient  Atom+Function  
  ----- ------------  ---------------      ----- ------------  ---------------
   449      0.352473  27 O  pz              333      0.279537  20 H  s         
   452      0.277588  27 O  pz              254     -0.244934  16 O  pz        
    82      0.213481   6 O  px              257     -0.187925  16 O  pz        
    85      0.177759   6 O  px              309     -0.167722  19 C  s         
   277      0.161430  17 N  px               12      0.153047   2 C  s         

 Vector   56  Occ=2.000000D+00  E=-4.112379D-01
              MO Center=  7.6D-01,  8.5D-01, -3.9D-01, r^2= 5.4D+00
   Bfn.  Coefficient  Atom+Function         Bfn.  Coefficient  Atom+Function  
  ----- ------------  ---------------      ----- ------------  ---------------
   253      0.359243  16 O  py              256      0.280959  16 O  py        
   108     -0.259717   7 N  py              111     -0.235904   7 N  py        
   145      0.226406   9 C  py              139     -0.202257   9 C  s         
   142      0.187528   9 C  py              109      0.172242   7 N  pz        
   163      0.172588  10 H  s               106     -0.163992   7 N  s         

 Vector   57  Occ=2.000000D+00  E=-3.961449D-01
              MO Center= -2.7D-01, -2.4D+00, -1.3D+00, r^2= 2.5D+00
   Bfn.  Coefficient  Atom+Function         Bfn.  Coefficient  Atom+Function  
  ----- ------------  ---------------      ----- ------------  ---------------
   447      0.395170  27 O  px              472     -0.367978  28 N  px        
   475     -0.321564  28 N  px              450      0.308694  27 O  px        
   474      0.224312  28 N  pz              477      0.178257  28 N  pz        

 Vector   58  Occ=2.000000D+00  E=-3.868686D-01
              MO Center=  6.3D-01, -1.4D+00, -2.7D-01, r^2= 4.7D+00
   Bfn.  Coefficient  Atom+Function         Bfn.  Coefficient  Atom+Function  
  ----- ------------  ---------------      ----- ------------  ---------------
   449     -0.326128  27 O  pz              279      0.301062  17 N  pz        
   282      0.285421  17 N  pz              452     -0.256107  27 O  pz        
   254     -0.214029  16 O  pz              276      0.203093  17 N  s         
   277      0.184219  17 N  px              280      0.171397  17 N  px        
   257     -0.167137  16 O  pz              313     -0.155953  19 C  pz        

 Vector   59  Occ=0.000000D+00  E= 1.820645D-02
              MO Center= -8.8D-01,  4.2D+00,  1.9D+00, r^2= 1.8D+01
   Bfn.  Coefficient  Atom+Function         Bfn.  Coefficient  Atom+Function  
  ----- ------------  ---------------      ----- ------------  ---------------
   226      2.770195  15 C  s               234      2.675160  15 C  py        
    63     -2.212168   5 C  px              106     -2.089302   7 N  s         
   300      2.098599  18 H  s               216     -1.700342  14 H  s         
    46     -1.594804   4 H  s                 3     -1.486952   1 H  s         
   147     -1.402469   9 C  px              173      1.332931  11 C  s         

 Vector   60  Occ=0.000000D+00  E= 3.427699D-02
              MO Center= -1.9D-02,  2.0D+00,  2.0D+00, r^2= 3.0D+01
   Bfn.  Coefficient  Atom+Function         Bfn.  Coefficient  Atom+Function  
  ----- ------------  ---------------      ----- ------------  ---------------
   234      3.389913  15 C  py              421     -3.171515  26 C  s         
   198      2.961684  12 H  s               377      2.828333  23 H  s         
   147     -2.680234   9 C  px                3     -2.244041   1 H  s         
   319     -2.222589  19 C  pz              300     -2.171553  18 H  s         
   344      2.047592  21 C  s               216     -1.781454  14 H  s         

 Vector   61  Occ=0.000000D+00  E= 3.561278D-02
              MO Center= -1.2D+00,  2.8D+00,  9.1D-01, r^2= 3.3D+01
   Bfn.  Coefficient  Atom+Function         Bfn.  Coefficient  Atom+Function  
  ----- ------------  ---------------      ----- ------------  ---------------
    63      4.090342   5 C  px              106     -3.975392   7 N  s         
   216     -3.004452  14 H  s                46      2.650183   4 H  s         
    56      2.037759   5 C  s               234      2.001380  15 C  py        
   226      1.877657  15 C  s               149      1.805467   9 C  pz        
    12     -1.789976   2 C  s               300     -1.673624  18 H  s         

 Vector   62  Occ=0.000000D+00  E= 4.355202D-02
              MO Center= -4.0D-02,  9.1D-01, -5.6D-02, r^2= 3.7D+01
   Bfn.  Coefficient  Atom+Function         Bfn.  Coefficient  Atom+Function  
  ----- ------------  ---------------      ----- ------------  ---------------
   421      3.692060  26 C  s               130      2.782696   8 H  s         
    37     -2.382092   3 H  s               164     -2.124186  10 H  s         
   106      1.973199   7 N  s               207     -1.739427  13 H  s         
   174      1.682901  11 C  s               284      1.556938  17 N  py        
   149     -1.544267   9 C  pz               56     -1.414446   5 C  s         

 Vector   63  Occ=0.000000D+00  E= 5.120189D-02
              MO Center= -3.8D-01,  4.1D-01,  1.5D+00, r^2= 3.9D+01
   Bfn.  Coefficient  Atom+Function         Bfn.  Coefficient  Atom+Function  
  ----- ------------  ---------------      ----- ------------  ---------------
   234      4.407851  15 C  py                3      3.467680   1 H  s         
   377      3.137476  23 H  s               147     -2.754249   9 C  px        
    56     -2.699568   5 C  s               319     -2.195006  19 C  pz        
   353     -2.134039  21 C  pz              149      2.082636   9 C  pz        
   344      2.062018  21 C  s                13     -2.040871   2 C  s         

 Vector   64  Occ=0.000000D+00  E= 5.453509D-02
              MO Center= -7.8D-01, -1.1D-02,  9.9D-01, r^2= 4.2D+01
   Bfn.  Coefficient  Atom+Function         Bfn.  Coefficient  Atom+Function  
  ----- ------------  ---------------      ----- ------------  ---------------
    56      3.533289   5 C  s               421      2.983988  26 C  s         
   106     -2.872315   7 N  s               174     -2.763721  11 C  s         
   130     -2.652036   8 H  s               368     -2.388907  22 H  s         
    37      2.335480   3 H  s               207      2.308593  13 H  s         
   276     -2.275544  17 N  s               471     -2.267896  28 N  s         

 Vector   65  Occ=0.000000D+00  E= 5.807581D-02
              MO Center= -9.9D-01, -9.4D-02, -9.0D-01, r^2= 3.7D+01
   Bfn.  Coefficient  Atom+Function         Bfn.  Coefficient  Atom+Function  
  ----- ------------  ---------------      ----- ------------  ---------------
   226      3.387220  15 C  s                46      2.999823   4 H  s         
   495     -2.817178  29 H  s               234     -2.718883  15 C  py        
   198     -2.639776  12 H  s               430     -2.382378  26 C  pz        
   471     -2.360919  28 N  s                56      2.328124   5 C  s         
   233     -2.338015  15 C  px              207      2.256486  13 H  s         

 Vector   66  Occ=0.000000D+00  E= 6.002209D-02
              MO Center=  1.1D-01,  2.0D+00, -5.0D-01, r^2= 3.5D+01
   Bfn.  Coefficient  Atom+Function         Bfn.  Coefficient  Atom+Function  
  ----- ------------  ---------------      ----- ------------  ---------------
   164      5.712857  10 H  s                13     -4.504516   2 C  s         
    63     -4.163973   5 C  px              149      3.727566   9 C  pz        
   226      3.331529  15 C  s               216     -2.977035  14 H  s         
    46      2.520995   4 H  s               276     -2.265532  17 N  s         
    37     -2.226094   3 H  s               140      2.228568   9 C  s         

 Vector   67  Occ=0.000000D+00  E= 6.557865D-02
              MO Center=  7.7D-01, -1.8D-01,  6.2D-01, r^2= 3.8D+01
   Bfn.  Coefficient  Atom+Function         Bfn.  Coefficient  Atom+Function  
  ----- ------------  ---------------      ----- ------------  ---------------
   334      4.220207  20 H  s                13     -3.627563   2 C  s         
   276     -3.558593  17 N  s               300     -3.554530  18 H  s         
   207      3.094905  13 H  s               377     -2.944686  23 H  s         
    37     -2.866608   3 H  s                46      2.490067   4 H  s         
   317     -2.321538  19 C  px              113     -2.300349   7 N  px        

 Vector   68  Occ=0.000000D+00  E= 7.295616D-02
              MO Center= -4.4D-01,  1.4D+00,  9.1D-01, r^2= 4.2D+01
   Bfn.  Coefficient  Atom+Function         Bfn.  Coefficient  Atom+Function  
  ----- ------------  ---------------      ----- ------------  ---------------
   216      4.871113  14 H  s                56      4.327243   5 C  s         
     3     -4.090057   1 H  s                63      3.622153   5 C  px        
   147      3.357177   9 C  px               37      3.297523   3 H  s         
   334      2.962652  20 H  s               198     -2.912011  12 H  s         
   207     -2.737651  13 H  s               421      2.744182  26 C  s         

 Vector   69  Occ=0.000000D+00  E= 7.685971D-02
              MO Center= -3.9D-01, -1.1D-01,  4.6D-01, r^2= 4.2D+01
   Bfn.  Coefficient  Atom+Function         Bfn.  Coefficient  Atom+Function  
  ----- ------------  ---------------      ----- ------------  ---------------
   377      4.734028  23 H  s               368     -3.858060  22 H  s         
   216      3.660825  14 H  s               344     -3.419360  21 C  s         
   164     -3.348372  10 H  s               174      3.092155  11 C  s         
    37     -2.854258   3 H  s               130     -2.779618   8 H  s         
   234     -2.761996  15 C  py              495      2.685034  29 H  s         

 Vector   70  Occ=0.000000D+00  E= 8.138704D-02
              MO Center=  4.9D-01, -1.4D+00,  1.3D+00, r^2= 3.6D+01
   Bfn.  Coefficient  Atom+Function         Bfn.  Coefficient  Atom+Function  
  ----- ------------  ---------------      ----- ------------  ---------------
   174      7.524381  11 C  s                56     -6.782580   5 C  s         
   368     -6.331358  22 H  s               300      5.840212  18 H  s         
   344     -5.678195  21 C  s               334      5.141168  20 H  s         
   317     -3.965330  19 C  px              352     -3.842879  21 C  py        
   198     -3.629700  12 H  s               226     -3.630577  15 C  s         

 Vector   71  Occ=0.000000D+00  E= 8.502795D-02
              MO Center=  1.3D+00,  1.6D+00,  1.1D+00, r^2= 3.5D+01
   Bfn.  Coefficient  Atom+Function         Bfn.  Coefficient  Atom+Function  
  ----- ------------  ---------------      ----- ------------  ---------------
   207      6.466363  13 H  s               198     -5.461839  12 H  s         
   130      4.731480   8 H  s               174      4.111656  11 C  s         
   234     -4.117764  15 C  py              334     -3.605062  20 H  s         
   149     -3.156301   9 C  pz               46     -3.078858   4 H  s         
   344     -2.978584  21 C  s                56     -2.920737   5 C  s         

 Vector   72  Occ=0.000000D+00  E= 9.829949D-02
              MO Center= -6.1D-01,  5.9D-01,  1.3D+00, r^2= 2.9D+01
   Bfn.  Coefficient  Atom+Function         Bfn.  Coefficient  Atom+Function  
  ----- ------------  ---------------      ----- ------------  ---------------
   300     12.018785  18 H  s                56     -8.556118   5 C  s         
   276      4.631731  17 N  s               377     -4.558254  23 H  s         
   130     -4.238533   8 H  s               164     -4.128122  10 H  s         
   174      3.861501  11 C  s               368      3.855159  22 H  s         
   226     -2.856826  15 C  s               285     -2.743448  17 N  pz        

 Vector   73  Occ=0.000000D+00  E= 1.034847D-01
              MO Center= -7.4D-01,  2.8D-01, -2.1D+00, r^2= 2.9D+01
   Bfn.  Coefficient  Atom+Function         Bfn.  Coefficient  Atom+Function  
  ----- ------------  ---------------      ----- ------------  ---------------
   504     11.360010  30 H  s               276      5.162943  17 N  s         
    56     -4.528628   5 C  s               164     -4.453349  10 H  s         
   234      4.193110  15 C  py              495     -3.249703  29 H  s         
    63     -3.230090   5 C  px               64      3.131587   5 C  py        
   149     -3.115631   9 C  pz               37     -2.481406   3 H  s         

 Vector   74  Occ=0.000000D+00  E= 1.122062D-01
              MO Center=  3.3D-01, -1.2D-01, -1.6D-01, r^2= 3.0D+01
   Bfn.  Coefficient  Atom+Function         Bfn.  Coefficient  Atom+Function  
  ----- ------------  ---------------      ----- ------------  ---------------
   421     -7.435351  26 C  s               147      6.873104   9 C  px        
   318     -6.196491  19 C  py              344     -5.926752  21 C  s         
    56      5.795826   5 C  s               174     -5.363747  11 C  s         
   300      4.610683  18 H  s                63      4.498554   5 C  px        
   284     -3.981212  17 N  py              504      3.706996  30 H  s         

 Vector   75  Occ=0.000000D+00  E= 1.246108D-01
              MO Center=  2.0D-01,  2.2D-01,  6.2D-01, r^2= 3.0D+01
   Bfn.  Coefficient  Atom+Function         Bfn.  Coefficient  Atom+Function  
  ----- ------------  ---------------      ----- ------------  ---------------
   421     20.896682  26 C  s               344    -11.974447  21 C  s         
   319      8.901544  19 C  pz              300      6.399127  18 H  s         
   430      5.181767  26 C  pz              471     -5.120477  28 N  s         
   174      5.067196  11 C  s               377     -4.978807  23 H  s         
   276     -4.157503  17 N  s               353      3.370741  21 C  pz        

 Vector   76  Occ=0.000000D+00  E= 1.266894D-01
              MO Center= -9.0D-01, -1.4D+00,  4.5D-01, r^2= 3.2D+01
   Bfn.  Coefficient  Atom+Function         Bfn.  Coefficient  Atom+Function  
  ----- ------------  ---------------      ----- ------------  ---------------
   421     28.683035  26 C  s               344    -24.115933  21 C  s         
   319     16.584623  19 C  pz              504     -8.036298  30 H  s         
   353      6.826432  21 C  pz              140     -6.592894   9 C  s         
   174      6.265254  11 C  s               429      6.136338  26 C  py        
    56      5.419182   5 C  s               106     -4.991229   7 N  s         

 Vector   77  Occ=0.000000D+00  E= 1.280036D-01
              MO Center= -3.7D-01,  3.2D+00,  9.2D-01, r^2= 2.7D+01
   Bfn.  Coefficient  Atom+Function         Bfn.  Coefficient  Atom+Function  
  ----- ------------  ---------------      ----- ------------  ---------------
   226     22.120168  15 C  s                56     18.520735   5 C  s         
   174    -17.089096  11 C  s               106    -14.442994   7 N  s         
   140     12.844300   9 C  s               234     12.281926  15 C  py        
    13    -11.338684   2 C  s               148      8.726727   9 C  py        
   421     -7.182684  26 C  s               276     -6.527981  17 N  s         

 Vector   78  Occ=0.000000D+00  E= 1.343806D-01
              MO Center=  1.5D+00,  6.1D-02,  1.6D-01, r^2= 3.2D+01
   Bfn.  Coefficient  Atom+Function         Bfn.  Coefficient  Atom+Function  
  ----- ------------  ---------------      ----- ------------  ---------------
   344     16.352643  21 C  s               226    -12.092490  15 C  s         
    56    -11.982959   5 C  s                13     11.378196   2 C  s         
   174      9.719920  11 C  s               421     -9.402598  26 C  s         
   140     -8.001916   9 C  s               300     -6.518017  18 H  s         
   276      6.453631  17 N  s               284      5.817729  17 N  py        

 Vector   79  Occ=0.000000D+00  E= 1.384380D-01
              MO Center= -9.2D-01, -1.3D-01,  4.5D-02, r^2= 2.9D+01
   Bfn.  Coefficient  Atom+Function         Bfn.  Coefficient  Atom+Function  
  ----- ------------  ---------------      ----- ------------  ---------------
   471      9.022833  28 N  s               226      7.383027  15 C  s         
   421     -7.388065  26 C  s               429     -6.013922  26 C  py        
   140      5.555874   9 C  s                13     -3.944904   2 C  s         
     3     -3.880605   1 H  s                21      3.780120   2 C  py        
    63     -3.583362   5 C  px               65     -3.250190   5 C  pz        

 Vector   80  Occ=0.000000D+00  E= 1.437280D-01
              MO Center= -7.7D-01,  3.8D-01,  1.2D+00, r^2= 3.2D+01
   Bfn.  Coefficient  Atom+Function         Bfn.  Coefficient  Atom+Function  
  ----- ------------  ---------------      ----- ------------  ---------------
    63     14.055946   5 C  px              421    -12.302467  26 C  s         
   147     10.081834   9 C  px               13      9.279018   2 C  s         
   471      6.662618  28 N  s               106     -5.869595   7 N  s         
   504      4.992056  30 H  s               113      4.130285   7 N  px        
   344      4.042494  21 C  s               334     -3.771288  20 H  s         

 Vector   81  Occ=0.000000D+00  E= 1.481030D-01
              MO Center=  9.3D-01,  1.3D-02,  1.5D-01, r^2= 3.1D+01
   Bfn.  Coefficient  Atom+Function         Bfn.  Coefficient  Atom+Function  
  ----- ------------  ---------------      ----- ------------  ---------------
   421      7.412722  26 C  s               106      6.923179   7 N  s         
   226     -4.318407  15 C  s               428     -4.252828  26 C  px        
   504     -4.194135  30 H  s               147      4.064712   9 C  px        
   430     -4.001690  26 C  pz              234     -3.884356  15 C  py        
   198     -3.542040  12 H  s               149     -3.307897   9 C  pz        

 Vector   82  Occ=0.000000D+00  E= 1.486264D-01
              MO Center=  3.0D-01,  1.5D+00, -8.1D-02, r^2= 2.9D+01
   Bfn.  Coefficient  Atom+Function         Bfn.  Coefficient  Atom+Function  
  ----- ------------  ---------------      ----- ------------  ---------------
   234      9.213675  15 C  py              226     -7.979403  15 C  s         
   233      7.375896  15 C  px              140     -6.980352   9 C  s         
   276      6.745722  17 N  s                13      5.308761   2 C  s         
    63      5.126706   5 C  px               64     -4.693181   5 C  py        
    56     -4.635135   5 C  s               284      4.360903  17 N  py        

 Vector   83  Occ=0.000000D+00  E= 1.528340D-01
              MO Center= -4.9D-01,  1.7D+00,  2.5D-01, r^2= 2.0D+01
   Bfn.  Coefficient  Atom+Function         Bfn.  Coefficient  Atom+Function  
  ----- ------------  ---------------      ----- ------------  ---------------
   234      6.212862  15 C  py              318      5.218342  19 C  py        
    64      3.579642   5 C  py              149      3.483333   9 C  pz        
   284     -3.434783  17 N  py              235     -3.170758  15 C  pz        
   113     -2.332503   7 N  px              130     -2.158612   8 H  s         
   181     -2.103774  11 C  px              430      2.112402  26 C  pz        

 Vector   84  Occ=0.000000D+00  E= 1.530428D-01
              MO Center= -1.1D-01,  1.6D+00, -5.0D-01, r^2= 2.2D+01
   Bfn.  Coefficient  Atom+Function         Bfn.  Coefficient  Atom+Function  
  ----- ------------  ---------------      ----- ------------  ---------------
   226      6.497201  15 C  s               234     -6.431517  15 C  py        
   344     -5.674174  21 C  s               164     -4.896752  10 H  s         
   318     -4.915684  19 C  py               13     -4.753577   2 C  s         
   140      4.687818   9 C  s               233     -4.482650  15 C  px        
   504      3.824364  30 H  s               130      3.597901   8 H  s         

 Vector   85  Occ=0.000000D+00  E= 1.591731D-01
              MO Center= -5.9D-01,  9.8D-01, -6.8D-02, r^2= 3.2D+01
   Bfn.  Coefficient  Atom+Function         Bfn.  Coefficient  Atom+Function  
  ----- ------------  ---------------      ----- ------------  ---------------
   174      6.748819  11 C  s               344     -5.766965  21 C  s         
   234     -5.384227  15 C  py              318     -5.079432  19 C  py        
   149     -5.031955   9 C  pz              421      4.815171  26 C  s         
   148     -4.518269   9 C  py              471     -4.524776  28 N  s         
    13      4.463033   2 C  s               226     -3.970400  15 C  s         

 Vector   86  Occ=0.000000D+00  E= 1.617882D-01
              MO Center= -5.1D-01,  1.4D+00,  2.5D-01, r^2= 2.8D+01
   Bfn.  Coefficient  Atom+Function         Bfn.  Coefficient  Atom+Function  
  ----- ------------  ---------------      ----- ------------  ---------------
    63      6.780287   5 C  px              147      5.905785   9 C  px        
    56      4.989705   5 C  s               106     -4.441479   7 N  s         
   174     -4.425891  11 C  s               207      4.164458  13 H  s         
   234     -4.177670  15 C  py               20     -3.928455   2 C  px        
   421     -3.799591  26 C  s               233     -3.647933  15 C  px        

 Vector   87  Occ=0.000000D+00  E= 1.665462D-01
              MO Center= -1.7D+00,  1.2D-01, -6.2D-01, r^2= 2.8D+01
   Bfn.  Coefficient  Atom+Function         Bfn.  Coefficient  Atom+Function  
  ----- ------------  ---------------      ----- ------------  ---------------
   471     11.225850  28 N  s               106     10.548282   7 N  s         
    56     -8.434736   5 C  s                63     -7.303550   5 C  px        
   226     -5.855407  15 C  s               421     -5.379130  26 C  s         
   276      4.980006  17 N  s                12      4.649188   2 C  s         
   430      4.497359  26 C  pz              428      4.273340  26 C  px        

 Vector   88  Occ=0.000000D+00  E= 1.699397D-01
              MO Center=  9.9D-02,  1.5D+00,  8.8D-01, r^2= 3.0D+01
   Bfn.  Coefficient  Atom+Function         Bfn.  Coefficient  Atom+Function  
  ----- ------------  ---------------      ----- ------------  ---------------
    56      9.709339   5 C  s                63      8.316947   5 C  px        
   113      6.729512   7 N  px              130      6.472316   8 H  s         
   174     -6.148999  11 C  s               181      5.431249  11 C  px        
   106     -5.067164   7 N  s                13      4.880239   2 C  s         
    65      4.446133   5 C  pz              353     -3.691269  21 C  pz        

 Vector   89  Occ=0.000000D+00  E= 1.707946D-01
              MO Center=  3.3D-02,  1.0D+00,  5.6D-02, r^2= 3.1D+01
   Bfn.  Coefficient  Atom+Function         Bfn.  Coefficient  Atom+Function  
  ----- ------------  ---------------      ----- ------------  ---------------
    13     10.193246   2 C  s               226     -8.855176  15 C  s         
    63      8.133866   5 C  px              140     -7.508361   9 C  s         
   276      6.319622  17 N  s               471      5.885927  28 N  s         
   164     -5.018845  10 H  s               430      4.866421  26 C  pz        
   113      4.802318   7 N  px              130     -4.541338   8 H  s         

 Vector   90  Occ=0.000000D+00  E= 1.735200D-01
              MO Center=  5.4D-01,  4.6D-02,  6.2D-01, r^2= 2.9D+01
   Bfn.  Coefficient  Atom+Function         Bfn.  Coefficient  Atom+Function  
  ----- ------------  ---------------      ----- ------------  ---------------
   300     10.695961  18 H  s               421     -6.720455  26 C  s         
   148      6.642821   9 C  py              344     -6.592498  21 C  s         
   234     -4.862089  15 C  py              387      4.508945  24 O  s         
   318     -4.414445  19 C  py              226      4.337370  15 C  s         
   351      4.300206  21 C  px              353      4.308550  21 C  pz        

 Vector   91  Occ=0.000000D+00  E= 1.787354D-01
              MO Center=  9.2D-01,  1.3D+00, -5.3D-01, r^2= 2.6D+01
   Bfn.  Coefficient  Atom+Function         Bfn.  Coefficient  Atom+Function  
  ----- ------------  ---------------      ----- ------------  ---------------
   149      7.611646   9 C  pz              234      6.476411  15 C  py        
   148      6.054550   9 C  py              504      6.049402  30 H  s         
   174     -6.004624  11 C  s                13     -5.834616   2 C  s         
    63     -5.623173   5 C  px              318      5.331487  19 C  py        
   181      4.853158  11 C  px              207     -4.705110  13 H  s         

 Vector   92  Occ=0.000000D+00  E= 1.810070D-01
              MO Center=  1.2D-01, -1.1D+00,  3.4D-01, r^2= 2.3D+01
   Bfn.  Coefficient  Atom+Function         Bfn.  Coefficient  Atom+Function  
  ----- ------------  ---------------      ----- ------------  ---------------
   276     10.665471  17 N  s               318     -6.250038  19 C  py        
[...]

 Vector  143  Occ=0.000000D+00  E= 4.198737D-01
              MO Center=  2.9D-01,  4.2D-01, -1.5D-01, r^2= 2.0D+01
   Bfn.  Coefficient  Atom+Function         Bfn.  Coefficient  Atom+Function  
  ----- ------------  ---------------      ----- ------------  ---------------
   421     12.023749  26 C  s               344    -10.462637  21 C  s         
   319      8.106499  19 C  pz              163     -7.407440  10 H  s         
   235     -5.275943  15 C  pz              284      5.109561  17 N  py        
   430      5.066157  26 C  pz              428      4.715122  26 C  px        
   309      4.194100  19 C  s               173      4.087765  11 C  s         

 Vector  144  Occ=0.000000D+00  E= 4.227642D-01
              MO Center=  1.5D-01, -1.5D-01,  3.0D-01, r^2= 2.0D+01
   Bfn.  Coefficient  Atom+Function         Bfn.  Coefficient  Atom+Function  
  ----- ------------  ---------------      ----- ------------  ---------------
    56     10.034877   5 C  s               174     -8.838956  11 C  s         
   344      7.719052  21 C  s               319     -6.015399  19 C  pz        
   147      5.925144   9 C  px              421     -5.835532  26 C  s         
    12      5.091466   2 C  s               173     -4.930967  11 C  s         
   206      4.802212  13 H  s               215      4.675345  14 H  s         

 Vector  145  Occ=0.000000D+00  E= 4.296175D-01
              MO Center= -3.7D-01,  1.5D+00,  3.5D-01, r^2= 1.8D+01
   Bfn.  Coefficient  Atom+Function         Bfn.  Coefficient  Atom+Function  
  ----- ------------  ---------------      ----- ------------  ---------------
   234      9.558814  15 C  py              226     -7.673628  15 C  s         
   174     -7.380343  11 C  s               140     -6.786464   9 C  s         
   317      6.756748  19 C  px              106     -6.365813   7 N  s         
    63      6.058775   5 C  px              149      4.897810   9 C  pz        
   197      4.854387  12 H  s               318      4.503099  19 C  py        

 Vector  146  Occ=0.000000D+00  E= 4.308713D-01
              MO Center= -4.6D-01,  1.3D+00, -2.0D-01, r^2= 1.9D+01
   Bfn.  Coefficient  Atom+Function         Bfn.  Coefficient  Atom+Function  
  ----- ------------  ---------------      ----- ------------  ---------------
    56     11.876087   5 C  s               173     -8.362211  11 C  s         
   174     -7.185709  11 C  s               206      6.660442  13 H  s         
    63      6.386411   5 C  px              215      6.048457  14 H  s         
    65      5.801016   5 C  pz              234     -5.374788  15 C  py        
   421      4.698778  26 C  s                22     -4.541132   2 C  pz        

 Vector  147  Occ=0.000000D+00  E= 4.388470D-01
              MO Center= -2.9D-01,  4.9D-01,  2.6D-01, r^2= 2.0D+01
   Bfn.  Coefficient  Atom+Function         Bfn.  Coefficient  Atom+Function  
  ----- ------------  ---------------      ----- ------------  ---------------
   276     23.889590  17 N  s               421    -21.656784  26 C  s         
    13     18.882206   2 C  s               226    -15.650800  15 C  s         
   140    -11.504500   9 C  s                12      8.317301   2 C  s         
    63      8.173775   5 C  px              285     -7.877983  17 N  pz        
   147      7.513647   9 C  px              471      7.380273  28 N  s         

 Vector  148  Occ=0.000000D+00  E= 4.460908D-01
              MO Center= -8.7D-01,  8.6D-01,  4.7D-01, r^2= 1.9D+01
   Bfn.  Coefficient  Atom+Function         Bfn.  Coefficient  Atom+Function  
  ----- ------------  ---------------      ----- ------------  ---------------
   421     13.075444  26 C  s               284      8.750558  17 N  py        
   140     -8.447570   9 C  s               471     -7.433290  28 N  s         
   226     -6.248926  15 C  s                13      6.025230   2 C  s         
    63      5.429768   5 C  px              106     -4.789767   7 N  s         
   319      4.375672  19 C  pz              235     -4.305051  15 C  pz        

 Vector  149  Occ=0.000000D+00  E= 4.510166D-01
              MO Center=  2.7D-01,  8.0D-01,  1.1D-01, r^2= 1.6D+01
   Bfn.  Coefficient  Atom+Function         Bfn.  Coefficient  Atom+Function  
  ----- ------------  ---------------      ----- ------------  ---------------
    56     17.406962   5 C  s               276    -16.576193  17 N  s         
   113     14.238029   7 N  px              421    -13.433504  26 C  s         
   140     12.435541   9 C  s               284    -11.907279  17 N  py        
   174    -10.843182  11 C  s               226     10.241080  15 C  s         
   234     -8.391474  15 C  py              319     -7.698793  19 C  pz        

 Vector  150  Occ=0.000000D+00  E= 4.531091D-01
              MO Center= -2.4D-01, -7.5D-02, -3.3D-01, r^2= 1.6D+01
   Bfn.  Coefficient  Atom+Function         Bfn.  Coefficient  Atom+Function  
  ----- ------------  ---------------      ----- ------------  ---------------
   471    -19.674911  28 N  s               421     18.906466  26 C  s         
   226    -15.383788  15 C  s                13     14.214856   2 C  s         
   234    -12.545144  15 C  py              113     11.789018   7 N  px        
   106     10.532873   7 N  s                63      9.374932   5 C  px        
   140     -9.292690   9 C  s               147      8.884611   9 C  px        

 Vector  151  Occ=0.000000D+00  E= 4.565101D-01
              MO Center=  1.2D-01,  9.0D-01,  6.7D-01, r^2= 1.8D+01
   Bfn.  Coefficient  Atom+Function         Bfn.  Coefficient  Atom+Function  
  ----- ------------  ---------------      ----- ------------  ---------------
   344     17.353441  21 C  s               234     13.105037  15 C  py        
    56     -8.577190   5 C  s               147     -8.537329   9 C  px        
   226     -7.491816  15 C  s               318      7.014761  19 C  py        
   283      6.396142  17 N  px              376     -6.223768  23 H  s         
   367     -6.025264  22 H  s               343      5.427433  21 C  s         

 Vector  152  Occ=0.000000D+00  E= 4.625232D-01
              MO Center=  1.1D+00,  1.3D+00,  5.5D-01, r^2= 1.7D+01
   Bfn.  Coefficient  Atom+Function         Bfn.  Coefficient  Atom+Function  
  ----- ------------  ---------------      ----- ------------  ---------------
   421     14.963664  26 C  s               174     11.738407  11 C  s         
   197     -9.247707  12 H  s               206     -6.108373  13 H  s         
   234      5.333356  15 C  py               56     -4.985032   5 C  s         
   319      4.976849  19 C  pz              173      4.912380  11 C  s         
   182     -4.928127  11 C  py              471     -4.764064  28 N  s         

 Vector  153  Occ=0.000000D+00  E= 4.667264D-01
              MO Center= -1.2D-02,  4.7D-01,  3.0D-01, r^2= 1.8D+01
   Bfn.  Coefficient  Atom+Function         Bfn.  Coefficient  Atom+Function  
  ----- ------------  ---------------      ----- ------------  ---------------
   174     26.974573  11 C  s               226    -22.580126  15 C  s         
   140    -15.660533   9 C  s                56    -15.464174   5 C  s         
   234    -14.446490  15 C  py               12     13.874365   2 C  s         
    13     13.824837   2 C  s               421     13.547015  26 C  s         
   276     13.192811  17 N  s                45     -9.854798   4 H  s         

 Vector  154  Occ=0.000000D+00  E= 4.733732D-01
              MO Center=  4.4D-01, -3.3D-01, -1.3D-01, r^2= 1.9D+01
   Bfn.  Coefficient  Atom+Function         Bfn.  Coefficient  Atom+Function  
  ----- ------------  ---------------      ----- ------------  ---------------
   174     25.963730  11 C  s                13     17.144380   2 C  s         
    56    -17.183680   5 C  s               226    -15.737364  15 C  s         
   421    -13.048741  26 C  s               234    -12.725401  15 C  py        
   344     11.362205  21 C  s                63      9.882025   5 C  px        
   310     -8.961927  19 C  s               149     -7.466767   9 C  pz        

 Vector  155  Occ=0.000000D+00  E= 4.778854D-01
              MO Center=  3.7D-01, -6.3D-01,  6.1D-01, r^2= 1.8D+01
   Bfn.  Coefficient  Atom+Function         Bfn.  Coefficient  Atom+Function  
  ----- ------------  ---------------      ----- ------------  ---------------
   344     11.101224  21 C  s               106      9.074694   7 N  s         
   226     -7.395496  15 C  s               234     -6.478910  15 C  py        
   235      5.541354  15 C  pz              276     -4.902627  17 N  s         
   376     -4.784543  23 H  s               309      4.702268  19 C  s         
   284      4.660885  17 N  py              149     -4.549608   9 C  pz        

 Vector  156  Occ=0.000000D+00  E= 4.807887D-01
              MO Center= -4.3D-01,  1.1D+00,  2.3D-01, r^2= 1.7D+01
   Bfn.  Coefficient  Atom+Function         Bfn.  Coefficient  Atom+Function  
  ----- ------------  ---------------      ----- ------------  ---------------
    56     22.102589   5 C  s                13    -18.294959   2 C  s         
   174    -17.545798  11 C  s               226     14.780906  15 C  s         
   234     14.106993  15 C  py              173    -11.670339  11 C  s         
   344    -11.625634  21 C  s               421     11.637760  26 C  s         
   149      9.118347   9 C  pz              148      8.564007   9 C  py        

 Vector  157  Occ=0.000000D+00  E= 4.829801D-01
              MO Center=  8.4D-03,  1.1D+00,  3.0D-01, r^2= 1.8D+01
   Bfn.  Coefficient  Atom+Function         Bfn.  Coefficient  Atom+Function  
  ----- ------------  ---------------      ----- ------------  ---------------
   234     10.980062  15 C  py              174     -9.861284  11 C  s         
   344      9.240800  21 C  s               343      8.360390  21 C  s         
    13     -6.906594   2 C  s               367     -6.177997  22 H  s         
   106     -5.596899   7 N  s               376     -5.110856  23 H  s         
   197      4.921260  12 H  s               310      4.461486  19 C  s         

 Vector  158  Occ=0.000000D+00  E= 4.886387D-01
              MO Center=  2.3D-01, -4.4D-01,  7.1D-02, r^2= 1.9D+01
   Bfn.  Coefficient  Atom+Function         Bfn.  Coefficient  Atom+Function  
  ----- ------------  ---------------      ----- ------------  ---------------
   344     24.807009  21 C  s               421    -15.295610  26 C  s         
   376     -9.321024  23 H  s               319     -8.623090  19 C  pz        
   367     -7.819899  22 H  s               147     -7.456965   9 C  px        
   318      7.419745  19 C  py              234      7.355040  15 C  py        
   343      7.287937  21 C  s                56     -7.072964   5 C  s         

 Vector  159  Occ=0.000000D+00  E= 4.941744D-01
              MO Center=  2.1D-01,  3.6D-01, -8.6D-02, r^2= 1.8D+01
   Bfn.  Coefficient  Atom+Function         Bfn.  Coefficient  Atom+Function  
  ----- ------------  ---------------      ----- ------------  ---------------
   421     28.304308  26 C  s               344    -20.039342  21 C  s         
   319     11.534589  19 C  pz              234     10.402754  15 C  py        
   233      7.736564  15 C  px              140     -7.256690   9 C  s         
   173      6.799380  11 C  s               300     -6.613966  18 H  s         
   113      6.050857   7 N  px              147     -5.658361   9 C  px        

 Vector  160  Occ=0.000000D+00  E= 5.037814D-01
              MO Center=  3.9D-01, -4.1D-01,  7.1D-01, r^2= 1.6D+01
   Bfn.  Coefficient  Atom+Function         Bfn.  Coefficient  Atom+Function  
  ----- ------------  ---------------      ----- ------------  ---------------
   234     11.931508  15 C  py              318     11.392431  19 C  py        
   106     -8.770524   7 N  s               471      8.521907  28 N  s         
   148      7.954114   9 C  py              174     -7.774728  11 C  s         
   300      6.126252  18 H  s               140     -5.946537   9 C  s         
   387      5.215146  24 O  s               317      5.057976  19 C  px        


 center of mass
 --------------
 x =   0.02150933 y =  -0.08413108 z =  -0.05537726

 moments of inertia (a.u.)
 ------------------
        4227.465201950327          -0.000000000001           0.000000000001
          -0.000000000001        2325.317730066849          -0.000000000000
           0.000000000001          -0.000000000000        4898.265916448720

  Mulliken analysis of the total density
  --------------------------------------

    Atom       Charge   Shell Charges
 -----------   ------   -------------------------------------------------------
    1 H    1     0.83   0.76  0.10  0.00  0.03 -0.06
    2 C    6     6.33   2.01  0.66  0.27  0.13  2.07  1.03 -0.01  0.06  0.10
    3 H    1     0.96   0.76  0.21  0.01  0.03 -0.06
    4 H    1     0.86   0.76  0.12  0.01  0.03 -0.07
    5 C    6     5.17   2.01  0.68  0.09 -0.02  1.90  0.36 -0.06  0.24 -0.02
    6 O    8     8.77   2.01  0.82  0.99  0.16  2.80  1.85  0.15  0.02 -0.01
    7 N    7     7.53   2.01  0.72  0.81 -0.15  2.45  1.44  0.17  0.05  0.04
    8 H    1     0.97   0.77  0.21 -0.03  0.05 -0.04
    9 C    6     6.40   2.01  0.66  0.12  0.04  1.99  1.32 -0.03  0.14  0.14
   10 H    1     1.11   0.78  0.25  0.02  0.03  0.02
   11 C    6     5.72   2.01  0.66  0.27  0.11  2.04  0.60 -0.04  0.07  0.01
   12 H    1     0.94   0.77  0.18  0.03  0.03 -0.08
   13 H    1     0.94   0.76  0.23 -0.01  0.03 -0.07
   14 H    1     0.98   0.77  0.25  0.01  0.03 -0.08
   15 C    6     4.77   2.01  0.68  0.03 -0.01  1.89  0.09  0.10  0.24 -0.27
   16 O    8     8.84   2.01  0.82  1.04  0.19  2.79  1.84  0.14  0.01 -0.01
   17 N    7     7.53   2.01  0.72  0.77 -0.10  2.45  1.45  0.15  0.05  0.03
   18 H    1     0.91   0.76  0.23 -0.05  0.05 -0.08
   19 C    6     6.19   2.01  0.67 -0.04  0.03  2.00  1.30  0.05  0.13  0.05
   20 H    1     1.02   0.77  0.22 -0.00  0.03  0.01
   21 C    6     5.09   2.01  0.66  0.10 -0.00  1.96  0.33 -0.07  0.13 -0.03
   22 H    1     1.03   0.78  0.27 -0.01  0.03 -0.05
   23 H    1     1.11   0.79  0.33  0.01  0.03 -0.05
   24 O    8     8.61   2.01  0.80  0.95  0.04  2.82  1.90  0.11  0.01 -0.03
   25 H    1     0.85   0.73  0.02 -0.00  0.08  0.03
   26 C    6     4.69   2.01  0.68  0.07  0.02  1.89 -0.14 -0.01  0.24 -0.07
   27 O    8     8.83   2.01  0.82  1.03  0.19  2.79  1.84  0.15  0.01 -0.01
   28 N    7     7.14   2.01  0.72  0.81 -0.22  2.46  1.23  0.10  0.04 -0.02
   29 H    1     1.02   0.76  0.24 -0.00  0.05 -0.03
   30 H    1     0.87   0.73  0.22 -0.02  0.06 -0.13

       Multipole analysis of the density wrt the origin
       ------------------------------------------------

     L   x y z        total         open         nuclear
     -   - - -        -----         ----         -------
     0   0 0 0      0.000000      0.000000    116.000000

     1   1 0 0     -0.981503      0.000000      0.000000
     1   0 1 0      2.658356      0.000000      0.000000
     1   0 0 1      1.610129      0.000000      0.000000

     2   2 0 0    -69.388572      0.000000    844.655224
     2   1 1 0      0.182978      0.000000      1.334039
     2   1 0 1      3.958861      0.000000      8.340186
     2   0 2 0    -65.886024      0.000000   1871.005589
     2   0 1 1      0.146603      0.000000      3.988382
     2   0 0 2    -67.602823      0.000000    466.240906


 Task  times  cpu:     3273.9s     wall:     3336.2s


                                NWChem Input Module
                                -------------------


 Summary of allocated global arrays
-----------------------------------
  No active global arrays


MA_summarize_allocated_blocks: starting scan ...
MA_summarize_allocated_blocks: scan completed: 0 heap blocks, 0 stack blocks
MA usage statistics:

	allocation statistics:
					      heap	     stack
					      ----	     -----
	current number of blocks	         0	         0
	maximum number of blocks	        16	        14
	current total bytes		         0	         0
	maximum total bytes		    107296	  24874808
	maximum total K-bytes		       108	     24875
	maximum total M-bytes		         1	        25


                                     CITATION
                                     --------
                Please cite the following reference when publishing
                           results obtained with NWChem:

          E. Apra, E. J. Bylaska, W. A. de Jong, N. Govind, K. Kowalski,
       T. P. Straatsma, M. Valiev, H. J. J. van Dam, Y. Alexeev, J. Anchell,
       V. Anisimov, F. W. Aquino, R. Atta-Fynn, J. Autschbach, N. P. Bauman,
     J. C. Becca, D. E. Bernholdt, K. Bhaskaran-Nair, S. Bogatko, P. Borowski,
         J. Boschen, J. Brabec, A. Bruner, E. Cauet, Y. Chen, G. N. Chuev,
      C. J. Cramer, J. Daily, M. J. O. Deegan, T. H. Dunning Jr., M. Dupuis,
   K. G. Dyall, G. I. Fann, S. A. Fischer, A. Fonari, H. Fruchtl, L. Gagliardi,
      J. Garza, N. Gawande, S. Ghosh, K. Glaesemann, A. W. Gotz, J. Hammond,
       V. Helms, E. D. Hermes, K. Hirao, S. Hirata, M. Jacquelin, L. Jensen,
   B. G. Johnson, H. Jonsson, R. A. Kendall, M. Klemm, R. Kobayashi, V. Konkov,
      S. Krishnamoorthy, M. Krishnan, Z. Lin, R. D. Lins, R. J. Littlefield,
      A. J. Logsdail, K. Lopata, W. Ma, A. V. Marenich, J. Martin del Campo,
   D. Mejia-Rodriguez, J. E. Moore, J. M. Mullin, T. Nakajima, D. R. Nascimento,
    J. A. Nichols, P. J. Nichols, J. Nieplocha, A. Otero-de-la-Roza, B. Palmer,
    A. Panyala, T. Pirojsirikul, B. Peng, R. Peverati, J. Pittner, L. Pollack,
   R. M. Richard, P. Sadayappan, G. C. Schatz, W. A. Shelton, D. W. Silverstein,
   D. M. A. Smith, T. A. Soares, D. Song, M. Swart, H. L. Taylor, G. S. Thomas,
            V. Tipparaju, D. G. Truhlar, K. Tsemekhman, T. Van Voorhis,
      A. Vazquez-Mayagoitia, P. Verma, O. Villa, A. Vishnu, K. D. Vogiatzis,
        D. Wang, J. H. Weare, M. J. Williamson, T. L. Windus, K. Wolinski,
        A. T. Wong, Q. Wu, C. Yang, Q. Yu, M. Zacharias, Z. Zhang, Y. Zhao,
                                and R. J. Harrison
                        "NWChem: Past, present, and future
                         J. Chem. Phys. 152, 184102 (2020)
                               doi:10.1063/5.0004997

                                      AUTHORS
                                      -------
  E. Apra, E. J. Bylaska, N. Govind, K. Kowalski, M. Valiev, D. Mejia-Rodriguez,
       A. Kunitsa, N. P. Bauman, A. Panyala, W. A. de Jong, T. P. Straatsma,
   H. J. J. van Dam, D. Wang, T. L. Windus, J. Hammond, J. Autschbach, A. Woods,
    K. Bhaskaran-Nair, J. Brabec, K. Lopata, S. A. Fischer, S. Krishnamoorthy,
     M. Jacquelin, W. Ma, M. Klemm, O. Villa, Y. Chen, V. Anisimov, F. Aquino,
     S. Hirata, M. T. Hackler, E. Hermes, L. Jensen, J. E. Moore, J. C. Becca,
      V. Konjkov, T. Risthaus, M. Malagoli, A. Marenich, A. Otero-de-la-Roza,
        J. Mullin, P. Nichols, R. Peverati, J. Pittner, Y. Zhao, P.-D. Fan,
        A. Fonari, M. J. Williamson, R. J. Harrison, J. R. Rehr, M. Dupuis,
     D. Silverstein, D. M. A. Smith, J. Nieplocha, V. Tipparaju, M. Krishnan,
     B. E. Van Kuiken, A. Vazquez-Mayagoitia, M. Swart, Q. Wu, T. Van Voorhis,
     A. A. Auer, M. Nooijen, L. D. Crosby, E. Brown, G. Cisneros, G. I. Fann,
   H. Fruchtl, J. Garza, K. Hirao, R. A. Kendall, J. A. Nichols, K. Tsemekhman,
    K. Wolinski, J. Anchell, D. E. Bernholdt, P. Borowski, T. Clark, D. Clerc,
   H. Dachsel, M. J. O. Deegan, K. Dyall, D. Elwood, E. Glendening, M. Gutowski,
   A. C. Hess, J. Jaffe, B. G. Johnson, J. Ju, R. Kobayashi, R. Kutteh, Z. Lin,
   R. Littlefield, X. Long, B. Meng, T. Nakajima, S. Niu, L. Pollack, M. Rosing,
   K. Glaesemann, G. Sandrone, M. Stave, H. Taylor, G. Thomas, J. H. van Lenthe,
                               A. T. Wong, Z. Zhang.

 Total times  cpu:     3273.9s     wall:     3336.7s
