export TMOUT=5400
export TMPDIR=/tmp
export PTMPDIR=/tmp/ptmp
 argument  1 = ALA_CYS_3.nw
                                         
                                         


             Northwest Computational Chemistry Package (NWChem) 7.2.0
             --------------------------------------------------------


                    Environmental Molecular Sciences Laboratory
                       Pacific Northwest National Laboratory
                                Richland, WA 99352

                              Copyright (c) 1994-2022
                       Pacific Northwest National Laboratory
                            Battelle Memorial Institute

             NWChem is an open-source computational chemistry package
                        distributed under the terms of the
                      Educational Community License (ECL) 2.0
             A copy of the license is included with this distribution
                              in the LICENSE.TXT file

                                  ACKNOWLEDGMENT
                                  --------------

            This software and its documentation were developed at the
            EMSL at Pacific Northwest National Laboratory, a multiprogram
            national laboratory, operated for the U.S. Department of Energy
            by Battelle under Contract Number DE-AC05-76RL01830. Support
            for this work was provided by the Department of Energy Office
            of Biological and Environmental Research, Office of Basic
            Energy Sciences, and the Office of Advanced Scientific Computing.


           Job information
           ---------------

    hostname        = nova18-61
    program         = /opt/rit/el9/20230413/app/linux-rhel9-x86_64_v3/gcc-11.2.1/nwchem-7.2.0-oxtctbuhfuzyfaoziquq6bki22grib3g/bin/nwchem
    date            = Thu Jun 26 09:36:42 2025

    compiled        = Wed_May_17_23:46:39_2023
    source          = /tmp/root/spack-stage/spack-stage-nwchem-7.2.0-oxtctbuhfuzyfaoziquq6bki22grib3g/spack-src
    nwchem branch   = 7.2.0
    nwchem revision = d0d141fd
    ga revision     = 5.8.0
    use scalapack   = T
    input           = ALA_CYS_3.nw
    prefix          = ALA_CYS_3.
    data base       = ./ALA_CYS_3.db
    status          = startup
    nproc           =        8
    time left       =     -1s



           Memory information
           ------------------

    heap     =   26214394 doubles =    200.0 Mbytes
    stack    =   26214399 doubles =    200.0 Mbytes
    global   =   52428800 doubles =    400.0 Mbytes (distinct from heap & stack)
    total    =  104857593 doubles =    800.0 Mbytes
    verify   = yes
    hardfail = no 


           Directory information
           ---------------------

  0 permanent = .
  0 scratch   = .




                                NWChem Input Module
                                -------------------



 Scaling coordinates for geometry "geometry" by  1.889725989
 (inverse scale =  0.529177249)

 C1  symmetry detected

          ------
          auto-z
          ------
  no constraints, skipping    0.0000000000000000     
  no constraints, skipping    0.0000000000000000     


                             Geometry "geometry" -> ""
                             -------------------------

 Output coordinates in angstroms (scale by  1.889725989 to convert to a.u.)

  No.       Tag          Charge          X              Y              Z
 ---- ---------------- ---------- -------------- -------------- --------------
    1 H                    1.0000     0.19161306     5.16143672     0.00019478
    2 C                    6.0000     0.86092795     4.34829061    -0.27428105
    3 H                    1.0000     1.84735624     4.52807049     0.15165018
    4 H                    1.0000     0.93944906     4.28057309    -1.35879697
    5 C                    6.0000     0.32214777     3.04641125     0.26740434
    6 O                    8.0000     0.99090391     2.37441990     1.04487386
    7 N                    7.0000    -0.88996176     2.67758774    -0.14543182
    8 H                    1.0000    -1.36698996     3.25229471    -0.81970179
    9 C                    6.0000    -1.50480368     1.40904560     0.24348498
   10 H                    1.0000    -1.56055697     1.37636567     1.33279421
   11 C                    6.0000    -2.93370087     1.35512848    -0.31130214
   12 H                    1.0000    -3.51315682     2.19654509     0.07007154
   13 H                    1.0000    -2.91228674     1.39422662    -1.40140432
   14 H                    1.0000    -3.41203897     0.42620770    -0.00015450
   15 C                    6.0000    -0.65208351     0.21722587    -0.23577804
   16 O                    8.0000    -0.35900865     0.09968791    -1.42288838
   17 N                    7.0000    -0.25612108    -0.65665148     0.69650631
   18 H                    1.0000    -0.54289245    -0.48515598     1.64634497
   19 C                    6.0000     0.68724330    -1.76569176     0.47532697
   20 H                    1.0000     0.87304673    -2.21435505     1.45022817
   21 C                    6.0000     0.04278085    -2.86683548    -0.38608794
   22 H                    1.0000    -0.09951193    -2.50254479    -1.40593453
   23 H                    1.0000     0.71684979    -3.72559404    -0.42473777
   24 S                   16.0000    -1.55266250    -3.39370245     0.31085447
   25 H                    1.0000    -2.25684068    -2.34898318    -0.13544111
   26 C                    6.0000     2.08963021    -1.35146898    -0.03191700
   27 O                    8.0000     2.86034456    -2.19351016    -0.47717990
   28 N                    7.0000     2.47320146    -0.08142611     0.04485669
   29 H                    1.0000     3.38708270     0.15944929    -0.29933237
   30 H                    1.0000     1.85087618     0.62671712     0.40948446

      Atomic Mass 
      ----------- 

      H                  1.007825
      C                 12.000000
      O                 15.994910
      N                 14.003070
      S                 31.972070


 Effective nuclear repulsion energy (a.u.)    1192.0541301733

            Nuclear Dipole moment (a.u.) 
            ----------------------------
        X                 Y               Z
 ---------------- ---------------- ----------------
     0.0000000000    -0.0000000000    -0.0000000000



                                Z-matrix (autoz)
                                -------- 

 Units are Angstrom for bonds and degrees for angles

      Type          Name      I     J     K     L     M      Value
      ----------- --------  ----- ----- ----- ----- ----- ----------
    1 Stretch                  1     2                       1.08836
    2 Stretch                  2     3                       1.08939
    3 Stretch                  2     4                       1.08946
    4 Stretch                  2     5                       1.50950
    5 Stretch                  5     6                       1.22608
    6 Stretch                  5     7                       1.33254
    7 Stretch                  7     8                       1.00622
    8 Stretch                  7     9                       1.46236
    9 Stretch                  9    10                       1.09122
   10 Stretch                  9    11                       1.53377
   11 Stretch                  9    15                       1.54184
   12 Stretch                 11    12                       1.09050
   13 Stretch                 11    13                       1.09101
   14 Stretch                 11    14                       1.09019
   15 Stretch                 15    16                       1.22839
   16 Stretch                 15    17                       1.33776
   17 Stretch                 17    18                       1.00690
   18 Stretch                 17    19                       1.47269
   19 Stretch                 19    20                       1.08915
   20 Stretch                 19    21                       1.53944
   21 Stretch                 19    26                       1.54776
   22 Stretch                 21    22                       1.09226
   23 Stretch                 21    23                       1.09240
   24 Stretch                 21    24                       1.81900
   25 Stretch                 24    25                       1.33659
   26 Stretch                 26    27                       1.22527
   27 Stretch                 26    28                       1.32892
   28 Stretch                 28    29                       1.00582
   29 Stretch                 28    30                       1.01080
   30 Bend                     1     2     3               109.56959
   31 Bend                     1     2     4               109.98720
   32 Bend                     1     2     5               109.53405
   33 Bend                     2     5     6               120.36887
   34 Bend                     2     5     7               116.88513
   35 Bend                     3     2     4               109.52399
   36 Bend                     3     2     5               108.97866
   37 Bend                     4     2     5               109.22864
   38 Bend                     5     7     8               118.73445
   39 Bend                     5     7     9               122.69383
   40 Bend                     6     5     7               122.74506
   41 Bend                     7     9    10               108.23684
   42 Bend                     7     9    11               109.02579
   43 Bend                     7     9    15               110.81434
   44 Bend                     8     7     9               118.31672
   45 Bend                     9    11    12               109.96280
   46 Bend                     9    11    13               109.99070
   47 Bend                     9    11    14               109.60190
   48 Bend                     9    15    16               120.41817
   49 Bend                     9    15    17               116.87337
   50 Bend                    10     9    11               108.20565
   51 Bend                    10     9    15               108.38503
   52 Bend                    11     9    15               112.06337
   53 Bend                    12    11    13               109.40292
   54 Bend                    12    11    14               108.93459
   55 Bend                    13    11    14               108.92413
   56 Bend                    15    17    18               117.50641
   57 Bend                    15    17    19               125.23077
   58 Bend                    16    15    17               122.70799
   59 Bend                    17    19    20               106.56262
   60 Bend                    17    19    21               110.76497
   61 Bend                    17    19    26               115.34598
   62 Bend                    18    17    19               116.89639
   63 Bend                    19    21    22               109.78176
   64 Bend                    19    21    23               108.89179
   65 Bend                    19    21    24               111.09833
   66 Bend                    19    26    27               120.33859
   67 Bend                    19    26    28               119.89156
   68 Bend                    20    19    21               106.11866
   69 Bend                    20    19    26               104.41973
   70 Bend                    21    19    26               112.79027
   71 Bend                    21    24    25                96.18651
   72 Bend                    22    21    23               108.03138
   73 Bend                    22    21    24               109.88195
   74 Bend                    23    21    24               109.09146
   75 Bend                    26    28    29               118.12226
   76 Bend                    26    28    30               120.84218
   77 Bend                    27    26    28               119.75019
   78 Bend                    29    28    30               121.00208
   79 Torsion                  1     2     5     6        -120.76756
   80 Torsion                  1     2     5     7          59.57537
   81 Torsion                  2     5     7     8           2.64914
   82 Torsion                  2     5     7     9         176.74580
   83 Torsion                  3     2     5     6          -0.90945
   84 Torsion                  3     2     5     7         179.43348
   85 Torsion                  4     2     5     6         118.71084
   86 Torsion                  4     2     5     7         -60.94624
   87 Torsion                  5     7     9    10          58.00193
   88 Torsion                  5     7     9    11         175.49106
   89 Torsion                  5     7     9    15         -60.71778
   90 Torsion                  6     5     7     8        -176.99909
   91 Torsion                  6     5     7     9          -2.90243
   92 Torsion                  7     9    11    12         -58.50570
   93 Torsion                  7     9    11    13          62.04147
   94 Torsion                  7     9    11    14        -178.22993
   95 Torsion                  7     9    15    16         -55.70064
   96 Torsion                  7     9    15    17         124.05673
   97 Torsion                  8     7     9    10        -127.87798
   98 Torsion                  8     7     9    11         -10.38885
   99 Torsion                  8     7     9    15         113.40231
  100 Torsion                  9    15    17    18           0.35954
  101 Torsion                  9    15    17    19        -172.45218
  102 Torsion                 10     9    11    12          59.00316
  103 Torsion                 10     9    11    13         179.55033
  104 Torsion                 10     9    11    14         -60.72108
  105 Torsion                 10     9    15    16        -174.33068
  106 Torsion                 10     9    15    17           5.42669
  107 Torsion                 11     9    15    16          66.33133
  108 Torsion                 11     9    15    17        -113.91130
  109 Torsion                 12    11     9    15         178.44644
  110 Torsion                 13    11     9    15         -61.00639
  111 Torsion                 14    11     9    15          58.72220
  112 Torsion                 15    17    19    20         174.20208
  113 Torsion                 15    17    19    21         -70.80340
  114 Torsion                 15    17    19    26          58.83923
  115 Torsion                 16    15    17    18        -179.88912
  116 Torsion                 16    15    17    19           7.29917
  117 Torsion                 17    19    21    22          69.06586
  118 Torsion                 17    19    21    23        -172.85044
  119 Torsion                 17    19    21    24         -52.67977
  120 Torsion                 17    19    26    27        -166.62038
  121 Torsion                 17    19    26    28          14.99634
  122 Torsion                 18    17    19    20           1.35093
  123 Torsion                 18    17    19    21         116.34545
  124 Torsion                 18    17    19    26        -114.01192
  125 Torsion                 19    21    24    25          78.14899
  126 Torsion                 19    26    28    29        -179.51677
  127 Torsion                 19    26    28    30          -1.60059
  128 Torsion                 20    19    21    22        -175.66216
  129 Torsion                 20    19    21    23         -57.57847
  130 Torsion                 20    19    21    24          62.59221
  131 Torsion                 20    19    26    27          76.79748
  132 Torsion                 20    19    26    28        -101.58581
  133 Torsion                 21    19    26    27         -37.97186
  134 Torsion                 21    19    26    28         143.64485
  135 Torsion                 22    21    19    26         -61.92223
  136 Torsion                 22    21    24    25         -43.53817
  137 Torsion                 23    21    19    26          56.16147
  138 Torsion                 23    21    24    25        -161.79883
  139 Torsion                 24    21    19    26         176.33214
  140 Torsion                 27    26    28    29           2.09037
  141 Torsion                 27    26    28    30        -179.99345


            XYZ format geometry
            -------------------
    30
 geometry
 H                     0.19161306     5.16143672     0.00019478
 C                     0.86092795     4.34829061    -0.27428105
 H                     1.84735624     4.52807049     0.15165018
 H                     0.93944906     4.28057309    -1.35879697
 C                     0.32214777     3.04641125     0.26740434
 O                     0.99090391     2.37441990     1.04487386
 N                    -0.88996176     2.67758774    -0.14543182
 H                    -1.36698996     3.25229471    -0.81970179
 C                    -1.50480368     1.40904560     0.24348498
 H                    -1.56055697     1.37636567     1.33279421
 C                    -2.93370087     1.35512848    -0.31130214
 H                    -3.51315682     2.19654509     0.07007154
 H                    -2.91228674     1.39422662    -1.40140432
 H                    -3.41203897     0.42620770    -0.00015450
 C                    -0.65208351     0.21722587    -0.23577804
 O                    -0.35900865     0.09968791    -1.42288838
 N                    -0.25612108    -0.65665148     0.69650631
 H                    -0.54289245    -0.48515598     1.64634497
 C                     0.68724330    -1.76569176     0.47532697
 H                     0.87304673    -2.21435505     1.45022817
 C                     0.04278085    -2.86683548    -0.38608794
 H                    -0.09951193    -2.50254479    -1.40593453
 H                     0.71684979    -3.72559404    -0.42473777
 S                    -1.55266250    -3.39370245     0.31085447
 H                    -2.25684068    -2.34898318    -0.13544111
 C                     2.08963021    -1.35146898    -0.03191700
 O                     2.86034456    -2.19351016    -0.47717990
 N                     2.47320146    -0.08142611     0.04485669
 H                     3.38708270     0.15944929    -0.29933237
 H                     1.85087618     0.62671712     0.40948446

 ==============================================================================
                                internuclear distances
 ------------------------------------------------------------------------------
       center one      |      center two      | atomic units |  angstroms
 ------------------------------------------------------------------------------
    2 C                |   1 H                |     2.05670  |     1.08836
    3 H                |   2 C                |     2.05866  |     1.08939
    4 H                |   2 C                |     2.05878  |     1.08946
    5 C                |   2 C                |     2.85255  |     1.50950
    6 O                |   5 C                |     2.31695  |     1.22608
    7 N                |   5 C                |     2.51814  |     1.33254
    8 H                |   7 N                |     1.90149  |     1.00622
    9 C                |   7 N                |     2.76345  |     1.46236
   10 H                |   9 C                |     2.06212  |     1.09122
   11 C                |   9 C                |     2.89840  |     1.53377
   12 H                |  11 C                |     2.06075  |     1.09050
   13 H                |  11 C                |     2.06172  |     1.09101
   14 H                |  11 C                |     2.06016  |     1.09019
   15 C                |   9 C                |     2.91365  |     1.54184
   16 O                |  15 C                |     2.32132  |     1.22839
   17 N                |  15 C                |     2.52800  |     1.33776
   18 H                |  17 N                |     1.90276  |     1.00690
   19 C                |  17 N                |     2.78299  |     1.47269
   20 H                |  19 C                |     2.05820  |     1.08915
   21 C                |  19 C                |     2.90913  |     1.53944
   22 H                |  21 C                |     2.06408  |     1.09226
   23 H                |  21 C                |     2.06433  |     1.09240
   24 S                |  21 C                |     3.43741  |     1.81900
   25 H                |  24 S                |     2.52580  |     1.33659
   26 C                |  19 C                |     2.92485  |     1.54776
   27 O                |  26 C                |     2.31543  |     1.22527
   28 N                |  26 C                |     2.51130  |     1.32892
   29 H                |  28 N                |     1.90072  |     1.00582
   30 H                |  28 N                |     1.91013  |     1.01080
 ------------------------------------------------------------------------------
                         number of included internuclear distances:         29
 ==============================================================================



 ==============================================================================
                                 internuclear angles
 ------------------------------------------------------------------------------
        center 1       |       center 2       |       center 3       |  degrees
 ------------------------------------------------------------------------------
    1 H                |   2 C                |   3 H                |   109.57
    1 H                |   2 C                |   4 H                |   109.99
    1 H                |   2 C                |   5 C                |   109.53
    3 H                |   2 C                |   4 H                |   109.52
    3 H                |   2 C                |   5 C                |   108.98
    4 H                |   2 C                |   5 C                |   109.23
    2 C                |   5 C                |   6 O                |   120.37
    2 C                |   5 C                |   7 N                |   116.89
    6 O                |   5 C                |   7 N                |   122.75
    5 C                |   7 N                |   8 H                |   118.73
    5 C                |   7 N                |   9 C                |   122.69
    8 H                |   7 N                |   9 C                |   118.32
    7 N                |   9 C                |  10 H                |   108.24
    7 N                |   9 C                |  11 C                |   109.03
    7 N                |   9 C                |  15 C                |   110.81
   10 H                |   9 C                |  11 C                |   108.21
   10 H                |   9 C                |  15 C                |   108.39
   11 C                |   9 C                |  15 C                |   112.06
    9 C                |  11 C                |  12 H                |   109.96
    9 C                |  11 C                |  13 H                |   109.99
    9 C                |  11 C                |  14 H                |   109.60
   12 H                |  11 C                |  13 H                |   109.40
   12 H                |  11 C                |  14 H                |   108.93
   13 H                |  11 C                |  14 H                |   108.92
    9 C                |  15 C                |  16 O                |   120.42
    9 C                |  15 C                |  17 N                |   116.87
   16 O                |  15 C                |  17 N                |   122.71
   15 C                |  17 N                |  18 H                |   117.51
   15 C                |  17 N                |  19 C                |   125.23
   18 H                |  17 N                |  19 C                |   116.90
   17 N                |  19 C                |  20 H                |   106.56
   17 N                |  19 C                |  21 C                |   110.76
   17 N                |  19 C                |  26 C                |   115.35
   20 H                |  19 C                |  21 C                |   106.12
   20 H                |  19 C                |  26 C                |   104.42
   21 C                |  19 C                |  26 C                |   112.79
   19 C                |  21 C                |  22 H                |   109.78
   19 C                |  21 C                |  23 H                |   108.89
   19 C                |  21 C                |  24 S                |   111.10
   22 H                |  21 C                |  23 H                |   108.03
   22 H                |  21 C                |  24 S                |   109.88
   23 H                |  21 C                |  24 S                |   109.09
   21 C                |  24 S                |  25 H                |    96.19
   19 C                |  26 C                |  27 O                |   120.34
   19 C                |  26 C                |  28 N                |   119.89
   27 O                |  26 C                |  28 N                |   119.75
   26 C                |  28 N                |  29 H                |   118.12
   26 C                |  28 N                |  30 H                |   120.84
   29 H                |  28 N                |  30 H                |   121.00
 ------------------------------------------------------------------------------
                            number of included internuclear angles:         49
 ==============================================================================



  library name resolved from: environment
  library file name is: </opt/rit/el9/20230413/app/linux-rhel9-x86_64_v3/gcc-11.2.1/nwchem-7.2.0-oxtctbuhfuzyfaoziquq6bki22grib3g/share/nwchem/libraries/>
  


 Summary of "ao basis" -> "" (cartesian)
 ------------------------------------------------------------------------------
       Tag                 Description            Shells   Functions and Types
 ---------------- ------------------------------  ------  ---------------------
 *                        aug-cc-pvdz                 on all atoms 


                      Basis "ao basis" -> "ao basis" (cartesian)
                      -----
  H (Hydrogen)
  ------------
            Exponent  Coefficients 
       -------------- ---------------------------------------------------------
  1 S  1.30100000E+01  0.019685
  1 S  1.96200000E+00  0.137977
  1 S  4.44600000E-01  0.478148

  2 S  1.22000000E-01  1.000000

  3 S  2.97400000E-02  1.000000

  4 P  7.27000000E-01  1.000000

  5 P  1.41000000E-01  1.000000

  C (Carbon)
  ----------
            Exponent  Coefficients 
       -------------- ---------------------------------------------------------
  1 S  6.66500000E+03  0.000692
  1 S  1.00000000E+03  0.005329
  1 S  2.28000000E+02  0.027077
  1 S  6.47100000E+01  0.101718
  1 S  2.10600000E+01  0.274740
  1 S  7.49500000E+00  0.448564
  1 S  2.79700000E+00  0.285074
  1 S  5.21500000E-01  0.015204

  2 S  6.66500000E+03 -0.000146
  2 S  1.00000000E+03 -0.001154
  2 S  2.28000000E+02 -0.005725
  2 S  6.47100000E+01 -0.023312
  2 S  2.10600000E+01 -0.063955
  2 S  7.49500000E+00 -0.149981
  2 S  2.79700000E+00 -0.127262
  2 S  5.21500000E-01  0.544529

  3 S  1.59600000E-01  1.000000

  4 S  4.69000000E-02  1.000000

  5 P  9.43900000E+00  0.038109
  5 P  2.00200000E+00  0.209480
  5 P  5.45600000E-01  0.508557

  6 P  1.51700000E-01  1.000000

  7 P  4.04100000E-02  1.000000

  8 D  5.50000000E-01  1.000000

  9 D  1.51000000E-01  1.000000

  O (Oxygen)
  ----------
            Exponent  Coefficients 
       -------------- ---------------------------------------------------------
  1 S  1.17200000E+04  0.000710
  1 S  1.75900000E+03  0.005470
  1 S  4.00800000E+02  0.027837
  1 S  1.13700000E+02  0.104800
  1 S  3.70300000E+01  0.283062
  1 S  1.32700000E+01  0.448719
  1 S  5.02500000E+00  0.270952
  1 S  1.01300000E+00  0.015458

  2 S  1.17200000E+04 -0.000160
  2 S  1.75900000E+03 -0.001263
  2 S  4.00800000E+02 -0.006267
  2 S  1.13700000E+02 -0.025716
  2 S  3.70300000E+01 -0.070924
  2 S  1.32700000E+01 -0.165411
  2 S  5.02500000E+00 -0.116955
  2 S  1.01300000E+00  0.557368

  3 S  3.02300000E-01  1.000000

  4 S  7.89600000E-02  1.000000

  5 P  1.77000000E+01  0.043018
  5 P  3.85400000E+00  0.228913
  5 P  1.04600000E+00  0.508728

  6 P  2.75300000E-01  1.000000

  7 P  6.85600000E-02  1.000000

  8 D  1.18500000E+00  1.000000

  9 D  3.32000000E-01  1.000000

  N (Nitrogen)
  ------------
            Exponent  Coefficients 
       -------------- ---------------------------------------------------------
  1 S  9.04600000E+03  0.000700
  1 S  1.35700000E+03  0.005389
  1 S  3.09300000E+02  0.027406
  1 S  8.77300000E+01  0.103207
  1 S  2.85600000E+01  0.278723
  1 S  1.02100000E+01  0.448540
  1 S  3.83800000E+00  0.278238
  1 S  7.46600000E-01  0.015440

  2 S  9.04600000E+03 -0.000153
  2 S  1.35700000E+03 -0.001208
  2 S  3.09300000E+02 -0.005992
  2 S  8.77300000E+01 -0.024544
  2 S  2.85600000E+01 -0.067459
  2 S  1.02100000E+01 -0.158078
  2 S  3.83800000E+00 -0.121831
  2 S  7.46600000E-01  0.549003

  3 S  2.24800000E-01  1.000000

  4 S  6.12400000E-02  1.000000

  5 P  1.35500000E+01  0.039919
  5 P  2.91700000E+00  0.217169
  5 P  7.97300000E-01  0.510319

  6 P  2.18500000E-01  1.000000

  7 P  5.61100000E-02  1.000000

  8 D  8.17000000E-01  1.000000

  9 D  2.30000000E-01  1.000000

  S (Sulphur)
  -----------
            Exponent  Coefficients 
       -------------- ---------------------------------------------------------
  1 S  1.10800000E+05  0.000248
  1 S  1.66100000E+04  0.001920
  1 S  3.78100000E+03  0.009962
  1 S  1.07100000E+03  0.040298
  1 S  3.49800000E+02  0.128604
  1 S  1.26300000E+02  0.303480
  1 S  4.92600000E+01  0.421432
  1 S  2.01600000E+01  0.230781
  1 S  5.72000000E+00  0.017897
  1 S  2.18200000E+00 -0.002975
  1 S  4.32700000E-01  0.000850

  2 S  1.10800000E+05 -0.000069
  2 S  1.66100000E+04 -0.000528
  2 S  3.78100000E+03 -0.002797
  2 S  1.07100000E+03 -0.011265
  2 S  3.49800000E+02 -0.038883
  2 S  1.26300000E+02 -0.099503
  2 S  4.92600000E+01 -0.199740
  2 S  2.01600000E+01 -0.123360
  2 S  5.72000000E+00  0.513194
  2 S  2.18200000E+00  0.607120
  2 S  4.32700000E-01  0.039675

  3 S  1.10800000E+05  0.000020
  3 S  1.66100000E+04  0.000153
  3 S  3.78100000E+03  0.000810
  3 S  1.07100000E+03  0.003290
  3 S  3.49800000E+02  0.011297
  3 S  1.26300000E+02  0.029639
  3 S  4.92600000E+01  0.059985
  3 S  2.01600000E+01  0.041325
  3 S  5.72000000E+00 -0.207474
  3 S  2.18200000E+00 -0.392889
  3 S  4.32700000E-01  0.632840

  4 S  1.57000000E-01  1.000000

  5 S  5.07000000E-02  1.000000

  6 P  3.99700000E+02  0.004475
  6 P  9.41900000E+01  0.034171
  6 P  2.97500000E+01  0.144250
  6 P  1.07700000E+01  0.353928
  6 P  4.11900000E+00  0.459085
  6 P  1.62500000E+00  0.206383
  6 P  4.72600000E-01  0.010214

  7 P  3.99700000E+02 -0.001163
  7 P  9.41900000E+01 -0.008657
  7 P  2.97500000E+01 -0.039089
  7 P  1.07700000E+01 -0.093463
  7 P  4.11900000E+00 -0.147994
  7 P  1.62500000E+00  0.030190
  7 P  4.72600000E-01  0.561573

  8 P  1.40700000E-01  1.000000

  9 P  3.99000000E-02  1.000000

 10 D  4.79000000E-01  1.000000

 11 D  1.52000000E-01  1.000000



 Summary of "ao basis" -> "ao basis" (cartesian)
 ------------------------------------------------------------------------------
       Tag                 Description            Shells   Functions and Types
 ---------------- ------------------------------  ------  ---------------------
 H                        aug-cc-pvdz                5        9   3s2p
 C                        aug-cc-pvdz                9       25   4s3p2d
 O                        aug-cc-pvdz                9       25   4s3p2d
 N                        aug-cc-pvdz                9       25   4s3p2d
 S                        aug-cc-pvdz               11       29   5s4p2d


                                 NWChem SCF Module
                                 -----------------



  ao basis        = "ao basis"
  functions       =   514
  atoms           =    30
  closed shells   =    62
  open shells     =     0
  charge          =   0.00
  wavefunction    = RHF 
  input vectors   = atomic
  output vectors  = ./ALA_CYS_3.movecs
  use symmetry    = F
  symmetry adapt  = F


 Summary of "ao basis" -> "ao basis" (cartesian)
 ------------------------------------------------------------------------------
       Tag                 Description            Shells   Functions and Types
 ---------------- ------------------------------  ------  ---------------------
 H                        aug-cc-pvdz                5        9   3s2p
 C                        aug-cc-pvdz                9       25   4s3p2d
 O                        aug-cc-pvdz                9       25   4s3p2d
 N                        aug-cc-pvdz                9       25   4s3p2d
 S                        aug-cc-pvdz               11       29   5s4p2d



 Forming initial guess at       1.3s


 !! The overlap matrix has   4 vectors deemed linearly dependent with
    eigenvalues:
 3.18D-06 5.28D-06 8.47D-06 9.61D-06


      Superposition of Atomic Density Guess
      -------------------------------------

 Sum of atomic energies:       -1093.51360735

      Non-variational initial energy
      ------------------------------

 Total energy =   -1102.784298
 1-e energy   =   -3865.198317
 2-e energy   =    1570.359889
 HOMO         =      -0.290076
 LUMO         =       0.010609


 Starting SCF solution at     155.4s



 ----------------------------------------------
         Quadratically convergent ROHF

 Convergence threshold     :          1.000E-04
 Maximum no. of iterations :           30
 Final Fock-matrix accuracy:          1.000E-10
 ----------------------------------------------


              iter       energy          gnorm     gmax       time
             ----- ------------------- --------- --------- --------
                 1    -1096.9504172931  2.37D+00  1.82D-01    304.0
                 2    -1097.2543484446  7.93D-01  4.31D-02    641.9
                 3    -1097.3105134303  6.51D-02  4.37D-03   1151.3
                 4    -1097.3111607530  4.22D-03  4.11D-04   1792.4
                 5    -1097.3111641019  8.52D-06  3.99D-07   2976.2


       Final RHF  results 
       ------------------ 

         Total SCF energy =  -1097.311164101896
      One-electron energy =  -3875.481228025974
      Two-electron energy =   1586.115933750825
 Nuclear repulsion energy =   1192.054130173253

        Time for solution =   2825.9s


             Final eigenvalues
             -----------------

              1      
    1  -91.9581
    2  -20.5500
    3  -20.5414
    4  -20.5125
    5  -15.6223
    6  -15.6148
    7  -15.5737
    8  -11.3789
    9  -11.3726
   10  -11.3512
   11  -11.3185
   12  -11.3066
   13  -11.2695
   14  -11.2635
   15  -11.2595
   16   -8.9592
   17   -6.6415
   18   -6.6403
   19   -6.6382
   20   -1.4146
   21   -1.3988
   22   -1.3743
   23   -1.2697
   24   -1.2596
   25   -1.2002
   26   -1.0913
   27   -1.0670
   28   -1.0127
   29   -0.9790
   30   -0.9103
   31   -0.8542
   32   -0.8356
   33   -0.8155
   34   -0.7694
   35   -0.7475
   36   -0.7311
   37   -0.7051
   38   -0.6936
   39   -0.6772
   40   -0.6518
   41   -0.6359
   42   -0.6246
   43   -0.6106
   44   -0.6038
   45   -0.5929
   46   -0.5897
   47   -0.5844
   48   -0.5723
   49   -0.5607
   50   -0.5555
   51   -0.5415
   52   -0.5258
   53   -0.5205
   54   -0.5157
   55   -0.4609
   56   -0.4522
   57   -0.4483
   58   -0.4313
   59   -0.4152
   60   -0.4000
   61   -0.3914
   62   -0.3606
   63    0.0199
   64    0.0321
   65    0.0372
   66    0.0427
   67    0.0500
   68    0.0550
   69    0.0577
   70    0.0641
   71    0.0649
   72    0.0707

                       ROHF Final Molecular Orbital Analysis
                       -------------------------------------

 Vector   20  Occ=2.000000D+00  E=-1.414649D+00
              MO Center=  4.1D-01,  2.2D+00,  4.7D-01, r^2= 2.1D+00
   Bfn.  Coefficient  Atom+Function         Bfn.  Coefficient  Atom+Function  
  ----- ------------  ---------------      ----- ------------  ---------------
    80      0.327806   6 O  s                79      0.319640   6 O  s         
    54      0.226429   5 C  s                12      0.196134   2 C  s         

 Vector   21  Occ=2.000000D+00  E=-1.398800D+00
              MO Center= -1.9D-01,  3.8D-01, -5.8D-01, r^2= 2.4D+00
   Bfn.  Coefficient  Atom+Function         Bfn.  Coefficient  Atom+Function  
  ----- ------------  ---------------      ----- ------------  ---------------
   250      0.344043  16 O  s               249      0.318781  16 O  s         
   224      0.226319  15 C  s         

 Vector   22  Occ=2.000000D+00  E=-1.374338D+00
              MO Center=  2.5D+00, -1.7D+00, -3.1D-01, r^2= 1.2D+00
   Bfn.  Coefficient  Atom+Function         Bfn.  Coefficient  Atom+Function  
  ----- ------------  ---------------      ----- ------------  ---------------
   449      0.376575  27 O  s               448      0.349849  27 O  s         
   423      0.244014  26 C  s         

 Vector   23  Occ=2.000000D+00  E=-1.269708D+00
              MO Center= -6.1D-01,  2.5D+00,  3.3D-02, r^2= 1.8D+00
   Bfn.  Coefficient  Atom+Function         Bfn.  Coefficient  Atom+Function  
  ----- ------------  ---------------      ----- ------------  ---------------
   105      0.422959   7 N  s               104      0.342286   7 N  s         
    80     -0.217141   6 O  s                79     -0.181963   6 O  s         
    57     -0.165097   5 C  px              128      0.156460   8 H  s         
   139     -0.151410   9 C  s         

 Vector   24  Occ=2.000000D+00  E=-1.259634D+00
              MO Center= -1.1D-01, -5.7D-01,  3.1D-01, r^2= 2.0D+00
   Bfn.  Coefficient  Atom+Function         Bfn.  Coefficient  Atom+Function  
  ----- ------------  ---------------      ----- ------------  ---------------
   275      0.360573  17 N  s               274      0.338839  17 N  s         
   250     -0.219915  16 O  s               229      0.178226  15 C  pz        
   249     -0.177431  16 O  s               298      0.155482  18 H  s         

 Vector   25  Occ=2.000000D+00  E=-1.200219D+00
              MO Center=  2.3D+00, -4.7D-01,  1.5D-03, r^2= 1.5D+00
   Bfn.  Coefficient  Atom+Function         Bfn.  Coefficient  Atom+Function  
  ----- ------------  ---------------      ----- ------------  ---------------
   474      0.390084  28 N  s               473      0.370062  28 N  s         
   427      0.207582  26 C  py              449     -0.205825  27 O  s         
   309     -0.183375  19 C  s               448     -0.172610  27 O  s         
   506      0.163331  30 H  s               497      0.159301  29 H  s         

 Vector   26  Occ=2.000000D+00  E=-1.091257D+00
              MO Center= -7.3D-01,  1.9D-01,  4.0D-02, r^2= 7.5D+00
   Bfn.  Coefficient  Atom+Function         Bfn.  Coefficient  Atom+Function  
  ----- ------------  ---------------      ----- ------------  ---------------
   138      0.196297   9 C  s               308     -0.157967  19 C  s         
   342     -0.157483  21 C  s               172      0.154458  11 C  s         

 Vector   27  Occ=2.000000D+00  E=-1.066983D+00
              MO Center= -6.8D-01, -5.2D-01, -1.1D-02, r^2= 8.9D+00
   Bfn.  Coefficient  Atom+Function         Bfn.  Coefficient  Atom+Function  
  ----- ------------  ---------------      ----- ------------  ---------------
   342      0.206800  21 C  s               386      0.177688  24 S  s         
   144     -0.157986   9 C  px              309      0.157964  19 C  s         
   172      0.154078  11 C  s               348     -0.154070  21 C  px        

 Vector   28  Occ=2.000000D+00  E=-1.012658D+00
              MO Center=  6.8D-03,  3.4D+00, -1.8D-01, r^2= 5.2D+00
   Bfn.  Coefficient  Atom+Function         Bfn.  Coefficient  Atom+Function  
  ----- ------------  ---------------      ----- ------------  ---------------
    11      0.319225   2 C  s               174      0.184396  11 C  s         
   172      0.160057  11 C  s         

 Vector   29  Occ=2.000000D+00  E=-9.790207D-01
              MO Center= -4.9D-01, -1.9D+00,  2.1D-01, r^2= 5.2D+00
   Bfn.  Coefficient  Atom+Function         Bfn.  Coefficient  Atom+Function  
  ----- ------------  ---------------      ----- ------------  ---------------
   386      0.296144  24 S  s               308     -0.219971  19 C  s         
   387      0.181104  24 S  s               139      0.174380   9 C  s         
   348     -0.156253  21 C  px              144      0.153676   9 C  px        

 Vector   30  Occ=2.000000D+00  E=-9.102881D-01
              MO Center= -1.5D+00,  8.5D-01, -5.7D-02, r^2= 6.2D+00
   Bfn.  Coefficient  Atom+Function         Bfn.  Coefficient  Atom+Function  
  ----- ------------  ---------------      ----- ------------  ---------------
   139      0.292568   9 C  s               144      0.275673   9 C  px        
   172     -0.227722  11 C  s               231     -0.201984  15 C  py        
   138      0.189888   9 C  s               145     -0.179053   9 C  py        
   225     -0.166083  15 C  s               309      0.162024  19 C  s         

 Vector   31  Occ=2.000000D+00  E=-8.542442D-01
              MO Center= -3.9D-01, -1.5D+00, -3.0D-02, r^2= 7.1D+00
   Bfn.  Coefficient  Atom+Function         Bfn.  Coefficient  Atom+Function  
  ----- ------------  ---------------      ----- ------------  ---------------
   387      0.299908  24 S  s               386      0.229571  24 S  s         
   342     -0.222676  21 C  s               315      0.189005  19 C  py        
   225     -0.173143  15 C  s         

 Vector   32  Occ=2.000000D+00  E=-8.355822D-01
              MO Center=  1.1D-01,  1.0D+00,  2.7D-02, r^2= 8.0D+00
   Bfn.  Coefficient  Atom+Function         Bfn.  Coefficient  Atom+Function  
  ----- ------------  ---------------      ----- ------------  ---------------
   107      0.244881   7 N  px              314      0.197335  19 C  px        
   309      0.193065  19 C  s               139      0.184504   9 C  s         
   128     -0.174047   8 H  s                54      0.168644   5 C  s         

 Vector   33  Occ=2.000000D+00  E=-8.154891D-01
              MO Center=  5.3D-04,  7.4D-01,  1.8D-01, r^2= 6.0D+00
   Bfn.  Coefficient  Atom+Function         Bfn.  Coefficient  Atom+Function  
  ----- ------------  ---------------      ----- ------------  ---------------
   279     -0.221195  17 N  pz              128      0.217405   8 H  s         
   107     -0.181402   7 N  px              309      0.178861  19 C  s         
   298     -0.171890  18 H  s               105      0.162448   7 N  s         
   109     -0.150765   7 N  pz        

 Vector   34  Occ=2.000000D+00  E=-7.694065D-01
              MO Center=  1.1D+00, -7.5D-01,  1.2D-01, r^2= 4.8D+00
   Bfn.  Coefficient  Atom+Function         Bfn.  Coefficient  Atom+Function  
  ----- ------------  ---------------      ----- ------------  ---------------
   477      0.290999  28 N  py              298     -0.208747  18 H  s         
   279     -0.196051  17 N  pz              506      0.192797  30 H  s         
   430     -0.159448  26 C  py              449      0.158083  27 O  s         
   423     -0.157027  26 C  s               427     -0.152059  26 C  py        

 Vector   35  Occ=2.000000D+00  E=-7.474602D-01
              MO Center= -5.4D-01,  6.9D-01,  1.4D-01, r^2= 5.1D+00
   Bfn.  Coefficient  Atom+Function         Bfn.  Coefficient  Atom+Function  
  ----- ------------  ---------------      ----- ------------  ---------------
   225      0.277921  15 C  s               145      0.273016   9 C  py        
   142      0.196187   9 C  py              279     -0.191449  17 N  pz        
    55      0.186776   5 C  s               109      0.183967   7 N  pz        
   228     -0.167899  15 C  py              163      0.163720  10 H  s         
   298     -0.158949  18 H  s               128     -0.154317   8 H  s         

 Vector   36  Occ=2.000000D+00  E=-7.310849D-01
              MO Center=  1.3D+00,  6.7D-02,  1.1D-01, r^2= 5.5D+00
   Bfn.  Coefficient  Atom+Function         Bfn.  Coefficient  Atom+Function  
  ----- ------------  ---------------      ----- ------------  ---------------
   476      0.246130  28 N  px              506     -0.247041  30 H  s         
   507     -0.196678  30 H  s               497      0.191635  29 H  s         
   314     -0.185229  19 C  px              425     -0.160140  26 C  s         

 Vector   37  Occ=2.000000D+00  E=-7.051030D-01
              MO Center= -5.6D-01,  2.0D+00, -3.3D-04, r^2= 5.7D+00
   Bfn.  Coefficient  Atom+Function         Bfn.  Coefficient  Atom+Function  
  ----- ------------  ---------------      ----- ------------  ---------------
   139      0.285849   9 C  s               231     -0.215556  15 C  py        
   108      0.200009   7 N  py              162      0.195737  10 H  s         
   143      0.185271   9 C  pz              145     -0.170800   9 C  py        
    58      0.160148   5 C  py        

 Vector   38  Occ=2.000000D+00  E=-6.935940D-01
              MO Center=  7.6D-01,  1.5D+00,  3.1D-01, r^2= 7.3D+00
   Bfn.  Coefficient  Atom+Function         Bfn.  Coefficient  Atom+Function  
  ----- ------------  ---------------      ----- ------------  ---------------
    57      0.209533   5 C  px               80     -0.206590   6 O  s         
    83      0.191004   6 O  py               84     -0.185510   6 O  pz        
   476     -0.179664  28 N  px               18     -0.169676   2 C  py        
    15     -0.153607   2 C  py        

 Vector   39  Occ=2.000000D+00  E=-6.772220D-01
              MO Center=  4.1D-01,  2.4D-01,  2.1D-01, r^2= 7.7D+00
   Bfn.  Coefficient  Atom+Function         Bfn.  Coefficient  Atom+Function  
  ----- ------------  ---------------      ----- ------------  ---------------
   139      0.375638   9 C  s               225     -0.284789  15 C  s         
   145     -0.270572   9 C  py              278     -0.191061  17 N  py        
   311     -0.170364  19 C  px              427      0.161492  26 C  py        

 Vector   40  Occ=2.000000D+00  E=-6.517616D-01
              MO Center=  5.9D-01, -8.4D-01, -1.9D-01, r^2= 8.2D+00
   Bfn.  Coefficient  Atom+Function         Bfn.  Coefficient  Atom+Function  
  ----- ------------  ---------------      ----- ------------  ---------------
   225      0.368243  15 C  s               139     -0.260934   9 C  s         
   145      0.200573   9 C  py              254      0.181921  16 O  pz        
   313      0.178930  19 C  pz              451      0.163844  27 O  px        
   275     -0.156186  17 N  s               332      0.156927  20 H  s         
   427      0.156072  26 C  py        

 Vector   41  Occ=2.000000D+00  E=-6.358835D-01
              MO Center=  3.4D-01,  2.1D+00, -1.4D-01, r^2= 8.5D+00
   Bfn.  Coefficient  Atom+Function         Bfn.  Coefficient  Atom+Function  
  ----- ------------  ---------------      ----- ------------  ---------------
    16      0.195909   2 C  pz                1      0.194007   1 H  s         
    44     -0.182266   4 H  s                59      0.159634   5 C  pz        

 Vector   42  Occ=2.000000D+00  E=-6.245934D-01
              MO Center= -9.2D-02,  1.8D-01, -4.4D-01, r^2= 7.1D+00
   Bfn.  Coefficient  Atom+Function         Bfn.  Coefficient  Atom+Function  
  ----- ------------  ---------------      ----- ------------  ---------------
   254      0.300424  16 O  pz              229     -0.220087  15 C  pz        
   250     -0.219739  16 O  s               277      0.152076  17 N  px        

 Vector   43  Occ=2.000000D+00  E=-6.105904D-01
              MO Center=  1.2D-01,  5.9D-01, -1.8D-01, r^2= 7.5D+00
   Bfn.  Coefficient  Atom+Function         Bfn.  Coefficient  Atom+Function  
  ----- ------------  ---------------      ----- ------------  ---------------
   277     -0.205595  17 N  px              254      0.189919  16 O  pz        
   229     -0.171584  15 C  pz              173     -0.162122  11 C  s         
    58     -0.154889   5 C  py              280     -0.151006  17 N  px        

 Vector   44  Occ=2.000000D+00  E=-6.038367D-01
              MO Center=  1.1D-01,  1.0D+00,  5.5D-02, r^2= 9.5D+00
   Bfn.  Coefficient  Atom+Function         Bfn.  Coefficient  Atom+Function  
  ----- ------------  ---------------      ----- ------------  ---------------
   139      0.289878   9 C  s               225     -0.267138  15 C  s         
   145     -0.264752   9 C  py               82     -0.205652   6 O  px        
    58     -0.183304   5 C  py              214      0.158021  14 H  s         
   128      0.155020   8 H  s         

 Vector   45  Occ=2.000000D+00  E=-5.928716D-01
              MO Center= -2.3D-01,  2.2D+00, -9.6D-02, r^2= 1.0D+01
   Bfn.  Coefficient  Atom+Function         Bfn.  Coefficient  Atom+Function  
  ----- ------------  ---------------      ----- ------------  ---------------
    35      0.230404   3 H  s                36      0.214341   3 H  s         
   175     -0.213549  11 C  px               14      0.205444   2 C  px        
    16      0.190938   2 C  pz              141      0.168313   9 C  px        
   139      0.160769   9 C  s                44     -0.157856   4 H  s         
    82      0.154801   6 O  px              214      0.152795  14 H  s         

 Vector   46  Occ=2.000000D+00  E=-5.896834D-01
              MO Center= -5.5D-01, -1.8D-01, -1.7D-01, r^2= 1.3D+01
   Bfn.  Coefficient  Atom+Function         Bfn.  Coefficient  Atom+Function  
  ----- ------------  ---------------      ----- ------------  ---------------
   176      0.251484  11 C  py              215     -0.217941  14 H  s         
   196      0.203309  12 H  s               197      0.185902  12 H  s         
   214     -0.180211  14 H  s               344      0.169444  21 C  s         
   346      0.158241  21 C  py              452     -0.150577  27 O  py        

 Vector   47  Occ=2.000000D+00  E=-5.843775D-01
              MO Center=  4.5D-01,  4.6D-02, -1.6D-01, r^2= 1.0D+01
   Bfn.  Coefficient  Atom+Function         Bfn.  Coefficient  Atom+Function  
  ----- ------------  ---------------      ----- ------------  ---------------
   428     -0.176806  26 C  pz              144      0.174180   9 C  px        
   452      0.166615  27 O  py              347      0.160837  21 C  pz        
   139      0.154254   9 C  s         

 Vector   48  Occ=2.000000D+00  E=-5.722840D-01
              MO Center=  1.2D+00, -1.3D+00, -2.0D-01, r^2= 6.9D+00
   Bfn.  Coefficient  Atom+Function         Bfn.  Coefficient  Atom+Function  
  ----- ------------  ---------------      ----- ------------  ---------------
   453      0.245544  27 O  pz              478      0.193878  28 N  pz        
   426      0.189398  26 C  px              366      0.172993  22 H  s         
   456      0.167245  27 O  pz              347     -0.153680  21 C  pz        
   313      0.151927  19 C  pz        

 Vector   49  Occ=2.000000D+00  E=-5.607218D-01
              MO Center= -9.2D-01,  2.2D+00, -8.2D-02, r^2= 8.4D+00
   Bfn.  Coefficient  Atom+Function         Bfn.  Coefficient  Atom+Function  
  ----- ------------  ---------------      ----- ------------  ---------------
   215      0.310580  14 H  s                14     -0.248142   2 C  px        
   214      0.246853  14 H  s                35     -0.239904   3 H  s         
   176     -0.239586  11 C  py               55     -0.231709   5 C  s         
    73     -0.206910   5 C  dxy              12      0.193752   2 C  s         
   108     -0.182562   7 N  py        

 Vector   50  Occ=2.000000D+00  E=-5.555026D-01
              MO Center= -1.3D+00,  1.6D+00, -2.7D-01, r^2= 7.0D+00
   Bfn.  Coefficient  Atom+Function         Bfn.  Coefficient  Atom+Function  
  ----- ------------  ---------------      ----- ------------  ---------------
   177      0.288436  11 C  pz              205     -0.265640  13 H  s         
   163     -0.223246  10 H  s               206     -0.223811  13 H  s         
   143     -0.177984   9 C  pz              197      0.178834  12 H  s         
   162     -0.161107  10 H  s         

 Vector   51  Occ=2.000000D+00  E=-5.415341D-01
              MO Center= -3.7D-01,  9.6D-01, -1.1D-01, r^2= 8.7D+00
   Bfn.  Coefficient  Atom+Function         Bfn.  Coefficient  Atom+Function  
  ----- ------------  ---------------      ----- ------------  ---------------
   175      0.185847  11 C  px              252      0.174652  16 O  px        
   344      0.174392  21 C  s               141     -0.165055   9 C  px        
   144     -0.152679   9 C  px              227      0.150472  15 C  px        

 Vector   52  Occ=2.000000D+00  E=-5.258145D-01
              MO Center= -2.2D-01,  7.8D-01,  1.3D-01, r^2= 9.2D+00
   Bfn.  Coefficient  Atom+Function         Bfn.  Coefficient  Atom+Function  
  ----- ------------  ---------------      ----- ------------  ---------------
   143     -0.185134   9 C  pz               84      0.178229   6 O  pz        
   162     -0.177196  10 H  s               178      0.172494  11 C  px        
   174     -0.162527  11 C  s               163     -0.155212  10 H  s         

 Vector   53  Occ=2.000000D+00  E=-5.205500D-01
              MO Center= -5.4D-01, -2.1D+00, -1.2D-01, r^2= 5.8D+00
   Bfn.  Coefficient  Atom+Function         Bfn.  Coefficient  Atom+Function  
  ----- ------------  ---------------      ----- ------------  ---------------
   375      0.273146  23 H  s               367     -0.254808  22 H  s         
   345      0.251308  21 C  px              392     -0.234641  24 S  px        
   413      0.204961  25 H  s               395     -0.190020  24 S  px        
   346     -0.179452  21 C  py        

 Vector   54  Occ=2.000000D+00  E=-5.156960D-01
              MO Center=  7.0D-01, -1.3D+00, -1.3D-01, r^2= 5.7D+00
   Bfn.  Coefficient  Atom+Function         Bfn.  Coefficient  Atom+Function  
  ----- ------------  ---------------      ----- ------------  ---------------
   343     -0.235155  21 C  s               313      0.227778  19 C  pz        
   332      0.196636  20 H  s               453     -0.196918  27 O  pz        
   367      0.193989  22 H  s               333      0.192434  20 H  s         
   478     -0.168989  28 N  pz              174      0.164900  11 C  s         
   349     -0.158818  21 C  py              253     -0.157214  16 O  py        

 Vector   55  Occ=2.000000D+00  E=-4.608607D-01
              MO Center= -7.6D-01, -2.8D+00,  7.1D-02, r^2= 5.2D+00
   Bfn.  Coefficient  Atom+Function         Bfn.  Coefficient  Atom+Function  
  ----- ------------  ---------------      ----- ------------  ---------------
   387      0.357029  24 S  s               393     -0.286001  24 S  py        
   396     -0.218837  24 S  py              348      0.204675  21 C  px        
   394      0.201929  24 S  pz              345      0.168095  21 C  px        
   392     -0.163447  24 S  px        

 Vector   56  Occ=2.000000D+00  E=-4.521761D-01
              MO Center= -4.3D-02,  9.0D-01, -3.0D-01, r^2= 5.5D+00
   Bfn.  Coefficient  Atom+Function         Bfn.  Coefficient  Atom+Function  
  ----- ------------  ---------------      ----- ------------  ---------------
   253     -0.267038  16 O  py              252      0.261206  16 O  px        
   109     -0.228526   7 N  pz              256     -0.204332  16 O  py        
   255      0.203107  16 O  px               84      0.200278   6 O  pz        
   112     -0.185597   7 N  pz               87      0.155451   6 O  pz        
    83      0.152953   6 O  py        

 Vector   57  Occ=2.000000D+00  E=-4.483194D-01
              MO Center=  6.4D-01,  2.5D+00,  5.8D-01, r^2= 3.4D+00
   Bfn.  Coefficient  Atom+Function         Bfn.  Coefficient  Atom+Function  
  ----- ------------  ---------------      ----- ------------  ---------------
    82      0.373168   6 O  px               83      0.358965   6 O  py        
    85      0.306957   6 O  px               86      0.285428   6 O  py        
    15      0.193605   2 C  py               18      0.181620   2 C  py        

 Vector   58  Occ=2.000000D+00  E=-4.313101D-01
              MO Center=  4.3D-01, -1.1D+00, -2.4D-01, r^2= 6.2D+00
   Bfn.  Coefficient  Atom+Function         Bfn.  Coefficient  Atom+Function  
  ----- ------------  ---------------      ----- ------------  ---------------
   253      0.293664  16 O  py              256      0.235308  16 O  py        
   452     -0.219996  27 O  py              451     -0.202229  27 O  px        
   277     -0.200580  17 N  px              333      0.190457  20 H  s         
   280     -0.173456  17 N  px              367      0.172236  22 H  s         
   455     -0.171217  27 O  py              454     -0.161184  27 O  px        

 Vector   59  Occ=2.000000D+00  E=-4.151740D-01
              MO Center= -2.9D-01,  1.3D+00, -1.3D-01, r^2= 5.0D+00
   Bfn.  Coefficient  Atom+Function         Bfn.  Coefficient  Atom+Function  
  ----- ------------  ---------------      ----- ------------  ---------------
   109      0.262296   7 N  pz              112      0.233775   7 N  pz        
   253     -0.213286  16 O  py              252      0.209949  16 O  px        
   234      0.208650  15 C  py              174     -0.203673  11 C  s         
    84     -0.188751   6 O  pz              256     -0.181959  16 O  py        
   231      0.178902  15 C  py              108      0.177157   7 N  py        

 Vector   60  Occ=2.000000D+00  E=-4.000400D-01
              MO Center=  1.6D+00, -1.2D+00, -1.2D-01, r^2= 4.3D+00
   Bfn.  Coefficient  Atom+Function         Bfn.  Coefficient  Atom+Function  
  ----- ------------  ---------------      ----- ------------  ---------------
   451      0.330357  27 O  px              454      0.255061  27 O  px        
   277     -0.225026  17 N  px              478     -0.206852  28 N  pz        
   280     -0.203106  17 N  px              452      0.189724  27 O  py        
   343     -0.183899  21 C  s               481     -0.177229  28 N  pz        
   455      0.156124  27 O  py        

 Vector   61  Occ=2.000000D+00  E=-3.913516D-01
              MO Center=  2.0D+00, -9.5D-01, -1.8D-01, r^2= 3.8D+00
   Bfn.  Coefficient  Atom+Function         Bfn.  Coefficient  Atom+Function  
  ----- ------------  ---------------      ----- ------------  ---------------
   478     -0.349212  28 N  pz              453      0.334072  27 O  pz        
   481     -0.296188  28 N  pz              456      0.259581  27 O  pz        
   252     -0.171860  16 O  px              452     -0.164056  27 O  py        
   277      0.158177  17 N  px        

 Vector   62  Occ=2.000000D+00  E=-3.606471D-01
              MO Center= -1.4D+00, -3.3D+00,  2.6D-01, r^2= 2.3D+00
   Bfn.  Coefficient  Atom+Function         Bfn.  Coefficient  Atom+Function  
  ----- ------------  ---------------      ----- ------------  ---------------
   394      0.442641  24 S  pz              397      0.439375  24 S  pz        
   393      0.261767  24 S  py              276     -0.240037  17 N  s         
   343      0.232612  21 C  s               425      0.232987  26 C  s         
   396      0.231198  24 S  py              314      0.184673  19 C  px        

 Vector   63  Occ=0.000000D+00  E= 1.993790D-02
              MO Center= -2.6D+00,  4.2D+00,  5.8D-02, r^2= 1.9D+01
   Bfn.  Coefficient  Atom+Function         Bfn.  Coefficient  Atom+Function  
  ----- ------------  ---------------      ----- ------------  ---------------
   233      2.936676  15 C  px              198      2.602716  12 H  s         
    56     -2.306485   5 C  s               106      2.230895   7 N  s         
    13     -1.774792   2 C  s               173     -1.659436  11 C  s         
     3      1.639909   1 H  s               425     -1.622300  26 C  s         
   234     -1.478408  15 C  py               12     -1.379661   2 C  s         

 Vector   64  Occ=0.000000D+00  E= 3.212931D-02
              MO Center= -1.6D+00,  2.5D+00,  6.5D-01, r^2= 3.1D+01
   Bfn.  Coefficient  Atom+Function         Bfn.  Coefficient  Atom+Function  
  ----- ------------  ---------------      ----- ------------  ---------------
    64      3.585757   5 C  py              147      2.808484   9 C  px        
    12      2.318033   2 C  s               164      2.241483  10 H  s         
    56     -1.991170   5 C  s               216      1.953543  14 H  s         
    63      1.941700   5 C  px               46     -1.482439   4 H  s         
     2     -1.339446   1 H  s               425     -1.250298  26 C  s         

 Vector   65  Occ=0.000000D+00  E= 3.721210D-02
              MO Center= -6.9D-01,  2.4D+00,  7.8D-01, r^2= 3.3D+01
   Bfn.  Coefficient  Atom+Function         Bfn.  Coefficient  Atom+Function  
  ----- ------------  ---------------      ----- ------------  ---------------
   147      3.306025   9 C  px              164     -3.308338  10 H  s         
   149      2.769502   9 C  pz              174      2.552954  11 C  s         
   276     -2.214334  17 N  s                37     -2.044644   3 H  s         
   233      1.967051  15 C  px              198      1.871883  12 H  s         
   207      1.705954  13 H  s               234     -1.651439  15 C  py        

 Vector   66  Occ=0.000000D+00  E= 4.272448D-02
              MO Center= -8.9D-01,  2.0D+00, -8.0D-01, r^2= 3.4D+01
   Bfn.  Coefficient  Atom+Function         Bfn.  Coefficient  Atom+Function  
  ----- ------------  ---------------      ----- ------------  ---------------
     3      2.533243   1 H  s                46     -2.409708   4 H  s         
   164      2.068875  10 H  s               207     -2.067384  13 H  s         
   216     -1.852622  14 H  s               198      1.739382  12 H  s         
   106      1.645460   7 N  s               388      1.387804  24 S  s         
   173      1.379634  11 C  s               499     -1.228717  29 H  s         

 Vector   67  Occ=0.000000D+00  E= 4.998070D-02
              MO Center= -1.2D-01,  1.4D+00,  8.9D-01, r^2= 3.8D+01
   Bfn.  Coefficient  Atom+Function         Bfn.  Coefficient  Atom+Function  
  ----- ------------  ---------------      ----- ------------  ---------------
   130     -3.251285   8 H  s                37      3.116788   3 H  s         
   334     -2.676117  20 H  s               216      2.587586  14 H  s         
    63     -2.483406   5 C  px              276     -2.455590  17 N  s         
   319      2.259256  19 C  pz              106     -2.208590   7 N  s         
   233      2.041955  15 C  px              198      1.654021  12 H  s         

 Vector   68  Occ=0.000000D+00  E= 5.495406D-02
              MO Center= -6.9D-01,  1.5D+00,  9.1D-02, r^2= 4.2D+01
   Bfn.  Coefficient  Atom+Function         Bfn.  Coefficient  Atom+Function  
  ----- ------------  ---------------      ----- ------------  ---------------
     3      3.150291   1 H  s               198     -3.051313  12 H  s         
   276      2.662207  17 N  s               216      2.409726  14 H  s         
   310      2.418281  19 C  s               234      2.361955  15 C  py        
   433      2.280869  26 C  py              475     -2.097352  28 N  s         
   425      1.956895  26 C  s               499     -1.942899  29 H  s         

 Vector   69  Occ=0.000000D+00  E= 5.772363D-02
              MO Center=  4.9D-01,  1.2D-02,  3.1D-01, r^2= 4.0D+01
   Bfn.  Coefficient  Atom+Function         Bfn.  Coefficient  Atom+Function  
  ----- ------------  ---------------      ----- ------------  ---------------
   164      3.383069  10 H  s                46      3.318071   4 H  s         
   425      3.294909  26 C  s               234     -3.009787  15 C  py        
   198     -2.344135  12 H  s               377     -2.260516  23 H  s         
   334     -2.248828  20 H  s               318     -1.936798  19 C  py        
   106      1.754318   7 N  s               149     -1.757439   9 C  pz        

 Vector   70  Occ=0.000000D+00  E= 6.411317D-02
              MO Center=  3.3D-01, -6.3D-01, -9.1D-01, r^2= 4.1D+01
   Bfn.  Coefficient  Atom+Function         Bfn.  Coefficient  Atom+Function  
  ----- ------------  ---------------      ----- ------------  ---------------
   344      4.911650  21 C  s               234      3.734329  15 C  py        
   377      3.683282  23 H  s               207     -3.443270  13 H  s         
   318      3.378668  19 C  py               56     -3.130722   5 C  s         
    37     -2.796559   3 H  s               276     -2.513386  17 N  s         
   388     -2.463336  24 S  s                46      2.440695   4 H  s         

 Vector   71  Occ=0.000000D+00  E= 6.494521D-02
              MO Center= -1.6D+00,  5.1D-01, -8.1D-01, r^2= 3.4D+01
   Bfn.  Coefficient  Atom+Function         Bfn.  Coefficient  Atom+Function  
  ----- ------------  ---------------      ----- ------------  ---------------
   164      6.074816  10 H  s               207      4.421243  13 H  s         
   216     -4.224217  14 H  s               149     -3.497402   9 C  pz        
   319      2.645925  19 C  pz              368      2.610330  22 H  s         
   334     -2.554871  20 H  s               198     -2.335462  12 H  s         
   233      2.251757  15 C  px              276     -2.188432  17 N  s         

 Vector   72  Occ=0.000000D+00  E= 7.065768D-02
              MO Center=  9.8D-01,  9.2D-01, -3.7D-01, r^2= 4.3D+01
   Bfn.  Coefficient  Atom+Function         Bfn.  Coefficient  Atom+Function  
  ----- ------------  ---------------      ----- ------------  ---------------
   475      3.528238  28 N  s                56     -3.196657   5 C  s         
   499      2.951011  29 H  s                37     -2.935031   3 H  s         
   433     -2.881742  26 C  py              174      2.821610  11 C  s         
   130      2.780271   8 H  s               425     -2.573170  26 C  s         
   377     -2.441856  23 H  s                64      2.281485   5 C  py        

 Vector   73  Occ=0.000000D+00  E= 7.775024D-02
              MO Center= -5.1D-01,  1.3D+00, -2.7D-01, r^2= 4.3D+01
   Bfn.  Coefficient  Atom+Function         Bfn.  Coefficient  Atom+Function  
  ----- ------------  ---------------      ----- ------------  ---------------
   130      4.630845   8 H  s                37      4.003369   3 H  s         
     3     -3.737104   1 H  s               368     -3.193370  22 H  s         
   147     -2.772846   9 C  px              377      2.662336  23 H  s         
   334     -2.631274  20 H  s               388     -2.554220  24 S  s         
   415      2.547493  25 H  s                56      2.197812   5 C  s         

 Vector   74  Occ=0.000000D+00  E= 8.673774D-02
              MO Center= -1.5D+00, -1.0D+00, -3.9D-01, r^2= 3.6D+01
   Bfn.  Coefficient  Atom+Function         Bfn.  Coefficient  Atom+Function  
  ----- ------------  ---------------      ----- ------------  ---------------
   164      6.170122  10 H  s               300     -5.294406  18 H  s         
   198     -5.243201  12 H  s               368     -4.967831  22 H  s         
   234     -4.063647  15 C  py              216      3.866199  14 H  s         
   377      3.821988  23 H  s               276     -2.872976  17 N  s         
   147      2.801237   9 C  px              207      2.692719  13 H  s         

 Vector   75  Occ=0.000000D+00  E= 8.724500D-02
              MO Center= -1.2D+00, -7.5D-01,  3.7D-01, r^2= 3.6D+01
   Bfn.  Coefficient  Atom+Function         Bfn.  Coefficient  Atom+Function  
  ----- ------------  ---------------      ----- ------------  ---------------
   300      6.325537  18 H  s               216      5.309873  14 H  s         
   174     -5.194280  11 C  s               415     -5.002697  25 H  s         
   164     -4.908151  10 H  s               334     -4.035003  20 H  s         
    56      3.424980   5 C  s               233     -3.235941  15 C  px        
   377      2.925156  23 H  s               130      2.850261   8 H  s         

 Vector   76  Occ=0.000000D+00  E= 9.195554D-02
              MO Center= -1.9D-01,  3.1D-01,  1.3D-01, r^2= 3.8D+01
   Bfn.  Coefficient  Atom+Function         Bfn.  Coefficient  Atom+Function  
  ----- ------------  ---------------      ----- ------------  ---------------
   508      6.702264  30 H  s               216      6.251479  14 H  s         
   207     -4.620322  13 H  s               368      4.045383  22 H  s         
    56     -3.768107   5 C  s               234      3.734398  15 C  py        
   233     -3.667828  15 C  px              300     -3.336766  18 H  s         
   499     -3.168906  29 H  s               130      3.099794   8 H  s         

 Vector   77  Occ=0.000000D+00  E= 1.003654D-01
              MO Center=  8.6D-01, -1.8D-01,  1.3D+00, r^2= 3.3D+01
   Bfn.  Coefficient  Atom+Function         Bfn.  Coefficient  Atom+Function  
  ----- ------------  ---------------      ----- ------------  ---------------
   508      8.276470  30 H  s               334     -6.454246  20 H  s         
   164     -4.625360  10 H  s               300      4.309917  18 H  s         
   377      4.151191  23 H  s               368     -3.624512  22 H  s         
    56     -3.077123   5 C  s                37     -2.865899   3 H  s         
   319      2.848624  19 C  pz              352      2.679811  21 C  py        

 Vector   78  Occ=0.000000D+00  E= 1.129517D-01
              MO Center=  6.5D-01,  2.3D+00,  1.6D-01, r^2= 2.9D+01
   Bfn.  Coefficient  Atom+Function         Bfn.  Coefficient  Atom+Function  
  ----- ------------  ---------------      ----- ------------  ---------------
   106      5.866365   7 N  s               164      5.378997  10 H  s         
   300     -3.639799  18 H  s               317     -3.479165  19 C  px        
    21      3.147653   2 C  py               13     -2.776722   2 C  s         
   147     -2.774846   9 C  px              235      2.782350  15 C  pz        
   149     -2.528710   9 C  pz              233      2.447412  15 C  px        

 Vector   79  Occ=0.000000D+00  E= 1.142310D-01
              MO Center= -1.8D+00, -1.8D+00,  1.6D-04, r^2= 2.4D+01
   Bfn.  Coefficient  Atom+Function         Bfn.  Coefficient  Atom+Function  
  ----- ------------  ---------------      ----- ------------  ---------------
   344     12.869130  21 C  s               425     -6.991731  26 C  s         
   388     -6.313443  24 S  s                56     -5.768207   5 C  s         
   415     -4.837223  25 H  s               147      4.806890   9 C  px        
   318      4.307750  19 C  py              368      4.106928  22 H  s         
   398     -3.775252  24 S  px              353      3.473759  21 C  pz        

 Vector   80  Occ=0.000000D+00  E= 1.237495D-01
              MO Center=  9.3D-01, -1.0D+00, -4.5D-02, r^2= 3.4D+01
   Bfn.  Coefficient  Atom+Function         Bfn.  Coefficient  Atom+Function  
  ----- ------------  ---------------      ----- ------------  ---------------
   425     15.894245  26 C  s               344    -10.935360  21 C  s         
   317     -7.585578  19 C  px              432     -5.199656  26 C  px        
   319     -5.134643  19 C  pz              318     -5.063122  19 C  py        
   508      5.045305  30 H  s               233     -4.838260  15 C  px        
   415     -4.778711  25 H  s               475     -4.635956  28 N  s         

 Vector   81  Occ=0.000000D+00  E= 1.282124D-01
              MO Center= -8.3D-01,  4.2D-01,  6.3D-01, r^2= 2.5D+01
   Bfn.  Coefficient  Atom+Function         Bfn.  Coefficient  Atom+Function  
  ----- ------------  ---------------      ----- ------------  ---------------
   344     10.827438  21 C  s                56      5.711107   5 C  s         
    63     -5.243054   5 C  px              508      4.987311  30 H  s         
   147     -4.940202   9 C  px               64     -4.167387   5 C  py        
   425     -4.154839  26 C  s               106     -3.808019   7 N  s         
   318      3.698469  19 C  py              148     -3.493805   9 C  py        

 Vector   82  Occ=0.000000D+00  E= 1.325128D-01
              MO Center= -1.4D+00,  6.6D-01, -9.6D-02, r^2= 3.2D+01
   Bfn.  Coefficient  Atom+Function         Bfn.  Coefficient  Atom+Function  
  ----- ------------  ---------------      ----- ------------  ---------------
   174     12.222696  11 C  s                56    -10.126470   5 C  s         
   233      9.713026  15 C  px              276     -6.871023  17 N  s         
   181      6.784165  11 C  px              147      6.443296   9 C  px        
   344     -6.464353  21 C  s                64      4.724929   5 C  py        
   207      3.682420  13 H  s               198      3.653188  12 H  s         

 Vector   83  Occ=0.000000D+00  E= 1.355596D-01
              MO Center= -1.1D+00,  2.1D+00, -5.4D-02, r^2= 2.9D+01
   Bfn.  Coefficient  Atom+Function         Bfn.  Coefficient  Atom+Function  
  ----- ------------  ---------------      ----- ------------  ---------------
   425     12.313993  26 C  s                56      8.625443   5 C  s         
   106     -7.509583   7 N  s               317     -7.370095  19 C  px        
   310      4.893495  19 C  s               174     -4.216870  11 C  s         
   233     -4.234660  15 C  px              198     -3.911929  12 H  s         
    63     -3.881576   5 C  px              148      3.470190   9 C  py        

 Vector   84  Occ=0.000000D+00  E= 1.392881D-01
              MO Center=  1.4D-01,  1.6D+00,  5.1D-01, r^2= 2.6D+01
   Bfn.  Coefficient  Atom+Function         Bfn.  Coefficient  Atom+Function  
  ----- ------------  ---------------      ----- ------------  ---------------
   425      6.389229  26 C  s                56      5.921310   5 C  s         
   317     -5.335013  19 C  px              164     -5.134652  10 H  s         
    64     -4.538803   5 C  py               63     -4.285763   5 C  px        
   276     -4.188243  17 N  s               147     -3.819263   9 C  px        
   148     -3.475955   9 C  py               46      3.387426   4 H  s         

 Vector   85  Occ=0.000000D+00  E= 1.424044D-01
              MO Center= -1.1D+00,  1.2D+00, -4.1D-01, r^2= 3.0D+01
   Bfn.  Coefficient  Atom+Function         Bfn.  Coefficient  Atom+Function  
  ----- ------------  ---------------      ----- ------------  ---------------
   148      8.183021   9 C  py              344      7.445185  21 C  s         
   164     -5.981421  10 H  s               300      5.969655  18 H  s         
    56     -5.038695   5 C  s               174      5.012442  11 C  s         
    63      4.934996   5 C  px              425     -4.872027  26 C  s         
   147      4.675565   9 C  px              334     -4.446072  20 H  s         

 Vector   86  Occ=0.000000D+00  E= 1.444087D-01
              MO Center= -9.3D-01, -1.4D+00,  1.0D+00, r^2= 2.7D+01
   Bfn.  Coefficient  Atom+Function         Bfn.  Coefficient  Atom+Function  
  ----- ------------  ---------------      ----- ------------  ---------------
   276    -11.599755  17 N  s               147     11.318467   9 C  px        
   174     11.322165  11 C  s               425      6.958633  26 C  s         
    56     -6.304087   5 C  s               319      4.875771  19 C  pz        
   344      4.773932  21 C  s               234     -4.452286  15 C  py        
   508     -4.257002  30 H  s               300     -3.990632  18 H  s         

 Vector   87  Occ=0.000000D+00  E= 1.496334D-01
              MO Center=  1.2D-01,  1.2D+00,  3.5D-02, r^2= 3.0D+01
   Bfn.  Coefficient  Atom+Function         Bfn.  Coefficient  Atom+Function  
  ----- ------------  ---------------      ----- ------------  ---------------
   344      6.506855  21 C  s               106      6.423537   7 N  s         
   148     -5.858472   9 C  py              425     -4.817899  26 C  s         
   233      4.732479  15 C  px              300     -4.634542  18 H  s         
   234     -4.316016  15 C  py              149      3.918464   9 C  pz        
    46     -3.604302   4 H  s               276     -3.389362  17 N  s         

 Vector   88  Occ=0.000000D+00  E= 1.505914D-01
              MO Center=  6.5D-02,  6.9D-01,  3.5D-01, r^2= 3.1D+01
   Bfn.  Coefficient  Atom+Function         Bfn.  Coefficient  Atom+Function  
  ----- ------------  ---------------      ----- ------------  ---------------
   148      7.029428   9 C  py              318      5.617984  19 C  py        
   432     -5.393282  26 C  px              164     -4.981023  10 H  s         
   276     -4.674196  17 N  s               284      4.064404  17 N  py        
   433     -4.077079  26 C  py              344      3.927530  21 C  s         
   283     -3.554060  17 N  px              475      3.436994  28 N  s         

 Vector   89  Occ=0.000000D+00  E= 1.555403D-01
              MO Center= -7.1D-01,  1.1D+00,  6.8D-01, r^2= 3.3D+01
   Bfn.  Coefficient  Atom+Function         Bfn.  Coefficient  Atom+Function  
  ----- ------------  ---------------      ----- ------------  ---------------
   234     12.855780  15 C  py              233     -7.595163  15 C  px        
    63      7.442697   5 C  px              235     -5.384654  15 C  pz        
   216     -4.834786  14 H  s               174     -4.497938  11 C  s         
   149      4.005404   9 C  pz              106      3.950239   7 N  s         
   140      3.943343   9 C  s               181     -3.948012  11 C  px        

 Vector   90  Occ=0.000000D+00  E= 1.583958D-01
              MO Center= -4.3D-01,  2.2D+00,  1.5D-02, r^2= 2.7D+01
   Bfn.  Coefficient  Atom+Function         Bfn.  Coefficient  Atom+Function  
  ----- ------------  ---------------      ----- ------------  ---------------
   234     11.595377  15 C  py              344     10.588527  21 C  s         
   174     -9.527636  11 C  s               233     -7.485746  15 C  px        
   147     -6.511690   9 C  px              318      5.985302  19 C  py        
   181     -4.815309  11 C  px              235     -4.724003  15 C  pz        
    12     -4.330582   2 C  s               475      4.183389  28 N  s         

 Vector   91  Occ=0.000000D+00  E= 1.627241D-01
              MO Center=  8.3D-02, -2.2D-01, -4.1D-02, r^2= 3.0D+01
   Bfn.  Coefficient  Atom+Function         Bfn.  Coefficient  Atom+Function  
  ----- ------------  ---------------      ----- ------------  ---------------
   425      7.026473  26 C  s               319      5.331872  19 C  pz        
   344     -5.327352  21 C  s               147     -5.256862   9 C  px        
   353     -4.775526  21 C  pz              368     -4.655559  22 H  s         
   318     -4.554080  19 C  py              164      4.477157  10 H  s         
   310      4.310368  19 C  s               508      4.044329  30 H  s         

 Vector   92  Occ=0.000000D+00  E= 1.643979D-01
              MO Center= -4.8D-02,  8.9D-01,  1.3D-01, r^2= 2.8D+01
   Bfn.  Coefficient  Atom+Function         Bfn.  Coefficient  Atom+Function  
  ----- ------------  ---------------      ----- ------------  ---------------
   148      5.337102   9 C  py              508     -5.202351  30 H  s         
   475     -5.004086  28 N  s               174      4.904603  11 C  s         
   149     -4.802245   9 C  pz              425      4.469093  26 C  s         
   433      4.199344  26 C  py              147      4.136901   9 C  px        
   235      3.622082  15 C  pz              182     -3.499295  11 C  py        

 Vector   93  Occ=0.000000D+00  E= 1.660541D-01
              MO Center= -7.0D-01,  4.5D-01,  5.5D-01, r^2= 2.9D+01
[...]

 Vector  149  Occ=0.000000D+00  E= 4.196402D-01
              MO Center=  2.3D-02,  2.0D+00, -2.5D-01, r^2= 2.1D+01
   Bfn.  Coefficient  Atom+Function         Bfn.  Coefficient  Atom+Function  
  ----- ------------  ---------------      ----- ------------  ---------------
    56     14.705475   5 C  s                12     11.378900   2 C  s         
     2     -9.116609   1 H  s               106     -7.027298   7 N  s         
    13      6.684728   2 C  s               344     -5.950018  21 C  s         
    36     -5.871767   3 H  s                45     -5.478987   4 H  s         
   284     -4.959883  17 N  py              148     -4.666326   9 C  py        

 Vector  150  Occ=0.000000D+00  E= 4.225847D-01
              MO Center= -1.8D-02,  1.2D+00, -1.3D-01, r^2= 1.8D+01
   Bfn.  Coefficient  Atom+Function         Bfn.  Coefficient  Atom+Function  
  ----- ------------  ---------------      ----- ------------  ---------------
   276     11.343126  17 N  s                36      6.333052   3 H  s         
   147     -5.938106   9 C  px               12     -5.860985   2 C  s         
   425     -4.869156  26 C  s               173      4.599065  11 C  s         
   216     -4.538792  14 H  s               283      4.500085  17 N  px        
   344     -4.500303  21 C  s               234      4.327317  15 C  py        

 Vector  151  Occ=0.000000D+00  E= 4.291636D-01
              MO Center=  1.2D-01,  1.5D+00, -4.0D-01, r^2= 2.0D+01
   Bfn.  Coefficient  Atom+Function         Bfn.  Coefficient  Atom+Function  
  ----- ------------  ---------------      ----- ------------  ---------------
   147      9.295291   9 C  px              233     -8.994235  15 C  px        
    56     -7.964511   5 C  s               174      7.920332  11 C  s         
   276     -6.265500  17 N  s               425      6.295710  26 C  s         
   106     -6.009000   7 N  s               148      5.708859   9 C  py        
   234     -5.389829  15 C  py              344      4.605032  21 C  s         

 Vector  152  Occ=0.000000D+00  E= 4.316482D-01
              MO Center= -1.1D-01, -1.1D-01, -4.9D-01, r^2= 2.0D+01
   Bfn.  Coefficient  Atom+Function         Bfn.  Coefficient  Atom+Function  
  ----- ------------  ---------------      ----- ------------  ---------------
   344    -11.396096  21 C  s               174     11.183827  11 C  s         
   147      8.486342   9 C  px              284     -7.806539  17 N  py        
    12      6.798480   2 C  s               235     -5.684019  15 C  pz        
   388      5.177118  24 S  s               197     -4.786231  12 H  s         
   233     -4.796177  15 C  px              285      4.801558  17 N  pz        

 Vector  153  Occ=0.000000D+00  E= 4.351824D-01
              MO Center=  5.5D-01,  1.1D+00, -5.1D-03, r^2= 2.2D+01
   Bfn.  Coefficient  Atom+Function         Bfn.  Coefficient  Atom+Function  
  ----- ------------  ---------------      ----- ------------  ---------------
   425     13.696408  26 C  s               276     -6.919772  17 N  s         
   317     -6.907128  19 C  px              319     -5.886914  19 C  pz        
   376     -5.414101  23 H  s                45      5.047422   4 H  s         
   475     -5.002879  28 N  s               333     -4.086798  20 H  s         
   233      4.001975  15 C  px               22      3.788391   2 C  pz        

 Vector  154  Occ=0.000000D+00  E= 4.377569D-01
              MO Center= -1.4D-01,  9.4D-02,  3.2D-02, r^2= 2.0D+01
   Bfn.  Coefficient  Atom+Function         Bfn.  Coefficient  Atom+Function  
  ----- ------------  ---------------      ----- ------------  ---------------
   276     -9.194893  17 N  s                56      8.997304   5 C  s         
   233      7.864183  15 C  px              284      7.794788  17 N  py        
   425      5.734588  26 C  s               317     -5.379057  19 C  px        
   113     -5.158916   7 N  px              234     -4.960529  15 C  py        
   475     -4.398484  28 N  s                81     -4.107896   6 O  s         

 Vector  155  Occ=0.000000D+00  E= 4.473999D-01
              MO Center= -6.1D-02,  1.2D+00, -8.3D-02, r^2= 2.2D+01
   Bfn.  Coefficient  Atom+Function         Bfn.  Coefficient  Atom+Function  
  ----- ------------  ---------------      ----- ------------  ---------------
   174     21.944048  11 C  s                56    -11.587999   5 C  s         
   147      8.761435   9 C  px              475     -7.545365  28 N  s         
   106     -7.150142   7 N  s               215     -6.647528  14 H  s         
   235      6.678607  15 C  pz              173      6.397770  11 C  s         
   206     -6.196870  13 H  s               181      5.573170  11 C  px        

 Vector  156  Occ=0.000000D+00  E= 4.527420D-01
              MO Center= -1.6D-01,  5.1D-01, -1.8D-01, r^2= 2.0D+01
   Bfn.  Coefficient  Atom+Function         Bfn.  Coefficient  Atom+Function  
  ----- ------------  ---------------      ----- ------------  ---------------
   425     10.196472  26 C  s               475     -8.893495  28 N  s         
   343     -5.396395  21 C  s               344     -5.210477  21 C  s         
   483      4.921266  28 N  py               12     -4.849942   2 C  s         
   376      4.728541  23 H  s               318     -4.555367  19 C  py        
   433      4.122139  26 C  py               55      3.771730   5 C  s         

 Vector  157  Occ=0.000000D+00  E= 4.615102D-01
              MO Center=  9.0D-02,  1.6D-02, -1.1D-01, r^2= 1.8D+01
   Bfn.  Coefficient  Atom+Function         Bfn.  Coefficient  Atom+Function  
  ----- ------------  ---------------      ----- ------------  ---------------
   174     13.262312  11 C  s                56     -8.382285   5 C  s         
   147      7.799212   9 C  px              173      7.254276  11 C  s         
    12      7.049945   2 C  s               344     -6.756183  21 C  s         
   284     -6.202331  17 N  py              215     -5.805827  14 H  s         
   425     -5.707080  26 C  s               197     -5.650054  12 H  s         

 Vector  158  Occ=0.000000D+00  E= 4.641058D-01
              MO Center= -1.7D-01,  7.6D-01, -7.7D-02, r^2= 1.7D+01
   Bfn.  Coefficient  Atom+Function         Bfn.  Coefficient  Atom+Function  
  ----- ------------  ---------------      ----- ------------  ---------------
   344     15.129794  21 C  s               173     10.648065  11 C  s         
   276     -9.666764  17 N  s               206     -7.355332  13 H  s         
   285      6.756642  17 N  pz              283     -6.471861  17 N  px        
   226     -6.366093  15 C  s               234      5.911231  15 C  py        
    12     -5.577788   2 C  s               147     -5.124791   9 C  px        

 Vector  159  Occ=0.000000D+00  E= 4.683803D-01
              MO Center= -6.6D-01,  1.2D-01, -5.1D-02, r^2= 1.8D+01
   Bfn.  Coefficient  Atom+Function         Bfn.  Coefficient  Atom+Function  
  ----- ------------  ---------------      ----- ------------  ---------------
   174     21.198993  11 C  s               425    -20.055067  26 C  s         
    56    -17.322527   5 C  s               233     11.237518  15 C  px        
   310    -10.040645  19 C  s               475      9.879986  28 N  s         
   344      9.198773  21 C  s               234     -8.354369  15 C  py        
   147      7.550070   9 C  px              197     -7.002881  12 H  s         

 Vector  160  Occ=0.000000D+00  E= 4.731819D-01
              MO Center= -2.4D-02, -1.3D-01, -9.2D-02, r^2= 1.9D+01
   Bfn.  Coefficient  Atom+Function         Bfn.  Coefficient  Atom+Function  
  ----- ------------  ---------------      ----- ------------  ---------------
   425     12.316273  26 C  s               174     10.955575  11 C  s         
   344    -10.119857  21 C  s               475     -8.882325  28 N  s         
   433      8.505559  26 C  py              113      8.037625   7 N  px        
   318     -7.673360  19 C  py               12      7.141125   2 C  s         
   276     -6.631746  17 N  s               147      5.766645   9 C  px        

 Vector  161  Occ=0.000000D+00  E= 4.787165D-01
              MO Center= -6.6D-01,  6.7D-01, -2.5D-01, r^2= 1.8D+01
   Bfn.  Coefficient  Atom+Function         Bfn.  Coefficient  Atom+Function  
  ----- ------------  ---------------      ----- ------------  ---------------
   174     12.142015  11 C  s               344     -7.757036  21 C  s         
   206     -7.320480  13 H  s               233      6.649031  15 C  px        
   148     -6.569587   9 C  py              234      6.580282  15 C  py        
    56     -5.403863   5 C  s               425      5.001839  26 C  s         
   376      4.795564  23 H  s               284     -4.333892  17 N  py        

 Vector  162  Occ=0.000000D+00  E= 4.849268D-01
              MO Center= -7.8D-01, -2.4D-01, -3.1D-01, r^2= 1.8D+01
   Bfn.  Coefficient  Atom+Function         Bfn.  Coefficient  Atom+Function  
  ----- ------------  ---------------      ----- ------------  ---------------
   233      8.251324  15 C  px              283     -5.698712  17 N  px        
   148      5.617545   9 C  py              174      5.268384  11 C  s         
   317      5.060959  19 C  px              285      4.768661  17 N  pz        
   344     -4.655266  21 C  s               216     -4.589841  14 H  s         
   114      4.479124   7 N  py              182     -4.395581  11 C  py        

 Vector  163  Occ=0.000000D+00  E= 4.888853D-01
              MO Center= -1.4D-01, -7.5D-01, -3.3D-01, r^2= 1.6D+01
   Bfn.  Coefficient  Atom+Function         Bfn.  Coefficient  Atom+Function  
  ----- ------------  ---------------      ----- ------------  ---------------
   344    -17.133997  21 C  s               174     16.501852  11 C  s         
   233     13.048302  15 C  px               56    -10.712150   5 C  s         
   367      9.073177  22 H  s               173      8.570924  11 C  s         
   234     -8.433748  15 C  py              333      7.766414  20 H  s         
   206     -7.389640  13 H  s               425     -7.318100  26 C  s         

 Vector  164  Occ=0.000000D+00  E= 4.966935D-01
              MO Center= -2.6D-01, -3.9D-01, -3.1D-01, r^2= 1.9D+01
   Bfn.  Coefficient  Atom+Function         Bfn.  Coefficient  Atom+Function  
  ----- ------------  ---------------      ----- ------------  ---------------
   276     13.112417  17 N  s               174    -12.945235  11 C  s         
   344    -12.641805  21 C  s                56     12.017719   5 C  s         
   147    -10.459319   9 C  px              148     -8.389649   9 C  py        
   235     -7.243264  15 C  pz              425     -6.688319  26 C  s         
   353     -6.267297  21 C  pz              113     -5.984898   7 N  px        

 Vector  165  Occ=0.000000D+00  E= 4.993341D-01
              MO Center= -4.2D-01,  3.1D-01, -3.5D-01, r^2= 1.8D+01
   Bfn.  Coefficient  Atom+Function         Bfn.  Coefficient  Atom+Function  
  ----- ------------  ---------------      ----- ------------  ---------------
   114      8.639544   7 N  py              276      8.393008  17 N  s         
   174     -7.896092  11 C  s               343     -7.433692  21 C  s         
   197      7.318438  12 H  s               367      7.304735  22 H  s         
    13     -6.633238   2 C  s               147     -6.581714   9 C  px        
   173     -6.429656  11 C  s               163      5.929275  10 H  s         

 Vector  166  Occ=0.000000D+00  E= 5.024193D-01
              MO Center= -8.3D-01,  7.1D-01, -2.8D-02, r^2= 1.8D+01
   Bfn.  Coefficient  Atom+Function         Bfn.  Coefficient  Atom+Function  
  ----- ------------  ---------------      ----- ------------  ---------------
   344     20.200058  21 C  s               425    -13.822565  26 C  s         
    12     12.427850   2 C  s               233      9.424009  15 C  px        
   173     -9.277184  11 C  s               318      7.764658  19 C  py        
   475      7.425300  28 N  s               310     -6.348870  19 C  s         
   433     -5.959242  26 C  py              197      5.880437  12 H  s         


 center of mass
 --------------
 x =   0.04736267 y =  -0.09673120 z =   0.00629220

 moments of inertia (a.u.)
 ------------------
        4953.929253148047          -0.000000000000          -0.000000000001
          -0.000000000000        2415.168289465634           0.000000000000
          -0.000000000001           0.000000000000        6753.834255431553

  Mulliken analysis of the total density
  --------------------------------------

    Atom       Charge   Shell Charges
 -----------   ------   -------------------------------------------------------
    1 H    1     0.86   0.76  0.13 -0.00  0.03 -0.06
    2 C    6     6.20   2.01  0.66  0.22  0.04  2.07  1.04  0.01  0.06  0.09
    3 H    1     0.98   0.76  0.23  0.01  0.03 -0.04
    4 H    1     0.86   0.76  0.13 -0.00  0.03 -0.06
    5 C    6     5.16   2.01  0.68  0.07 -0.08  1.89  0.31  0.03  0.24  0.01
    6 O    8     8.78   2.01  0.81  1.00  0.15  2.80  1.87  0.14  0.01 -0.01
    7 N    7     7.61   2.01  0.72  0.83 -0.10  2.45  1.44  0.17  0.05  0.04
    8 H    1     0.97   0.77  0.21 -0.03  0.05 -0.04
    9 C    6     6.55   2.01  0.66  0.20 -0.03  2.00  1.40 -0.02  0.14  0.20
   10 H    1     1.21   0.79  0.36  0.01  0.03  0.02
   11 C    6     5.67   2.01  0.66  0.16  0.22  2.04  0.55 -0.04  0.07 -0.01
   12 H    1     0.98   0.77  0.26  0.01  0.03 -0.09
   13 H    1     0.91   0.77  0.17  0.02  0.03 -0.08
   14 H    1     1.00   0.77  0.26  0.01  0.03 -0.08
   15 C    6     4.16   2.01  0.68 -0.13 -0.01  1.89  0.09 -0.12  0.23 -0.48
   16 O    8     8.91   2.01  0.82  1.06  0.19  2.78  1.87  0.16  0.01  0.01
   17 N    7     7.39   2.01  0.72  0.81 -0.24  2.45  1.44  0.08  0.05  0.08
   18 H    1     1.14   0.77  0.34 -0.02  0.05 -0.00
   19 C    6     6.25   2.01  0.67  0.08 -0.02  1.99  1.25  0.05  0.14  0.10
   20 H    1     1.20   0.78  0.39 -0.00  0.03  0.00
   21 C    6     5.89   2.01  0.66  0.10 -0.02  1.99  1.04 -0.02  0.10  0.03
   22 H    1     1.09   0.76  0.30  0.01  0.03 -0.01
   23 H    1     1.11   0.76  0.35  0.00  0.03 -0.03
   24 S   16    15.57   2.00  2.03  0.87  0.72  0.05  6.00  2.31  1.61  0.05  0.10 -0.16
   25 H    1     1.00   0.72  0.19  0.01  0.03  0.05
   26 C    6     4.72   2.01  0.68  0.15  0.09  1.88 -0.19  0.02  0.24 -0.15
   27 O    8     8.79   2.01  0.82  1.03  0.17  2.79  1.84  0.13  0.01 -0.01
   28 N    7     7.13   2.01  0.72  0.81 -0.22  2.46  1.23  0.10  0.04 -0.02
   29 H    1     1.01   0.76  0.23 -0.00  0.05 -0.03
   30 H    1     0.91   0.73  0.28 -0.03  0.06 -0.13

       Multipole analysis of the density wrt the origin
       ------------------------------------------------

     L   x y z        total         open         nuclear
     -   - - -        -----         ----         -------
     0   0 0 0     -0.000000      0.000000    124.000000

     1   1 0 0     -1.831200      0.000000      0.000000
     1   0 1 0      2.668082      0.000000     -0.000000
     1   0 0 1      0.631281      0.000000     -0.000000

     2   2 0 0    -75.019901      0.000000   1165.226654
     2   1 1 0      0.484916      0.000000     -6.565242
     2   1 0 1      0.299455      0.000000      3.798522
     2   0 2 0    -69.572591      0.000000   2530.557093
     2   0 1 1     -6.465456      0.000000    -10.969840
     2   0 0 2    -76.159049      0.000000    177.826877


 Task  times  cpu:     2982.0s     wall:     3105.4s


                                NWChem Input Module
                                -------------------


 Summary of allocated global arrays
-----------------------------------
  No active global arrays


MA_summarize_allocated_blocks: starting scan ...
MA_summarize_allocated_blocks: scan completed: 0 heap blocks, 0 stack blocks
MA usage statistics:

	allocation statistics:
					      heap	     stack
					      ----	     -----
	current number of blocks	         0	         0
	maximum number of blocks	        16	        14
	current total bytes		         0	         0
	maximum total bytes		    118744	  31125016
	maximum total K-bytes		       119	     31126
	maximum total M-bytes		         1	        32


                                     CITATION
                                     --------
                Please cite the following reference when publishing
                           results obtained with NWChem:

          E. Apra, E. J. Bylaska, W. A. de Jong, N. Govind, K. Kowalski,
       T. P. Straatsma, M. Valiev, H. J. J. van Dam, Y. Alexeev, J. Anchell,
       V. Anisimov, F. W. Aquino, R. Atta-Fynn, J. Autschbach, N. P. Bauman,
     J. C. Becca, D. E. Bernholdt, K. Bhaskaran-Nair, S. Bogatko, P. Borowski,
         J. Boschen, J. Brabec, A. Bruner, E. Cauet, Y. Chen, G. N. Chuev,
      C. J. Cramer, J. Daily, M. J. O. Deegan, T. H. Dunning Jr., M. Dupuis,
   K. G. Dyall, G. I. Fann, S. A. Fischer, A. Fonari, H. Fruchtl, L. Gagliardi,
      J. Garza, N. Gawande, S. Ghosh, K. Glaesemann, A. W. Gotz, J. Hammond,
       V. Helms, E. D. Hermes, K. Hirao, S. Hirata, M. Jacquelin, L. Jensen,
   B. G. Johnson, H. Jonsson, R. A. Kendall, M. Klemm, R. Kobayashi, V. Konkov,
      S. Krishnamoorthy, M. Krishnan, Z. Lin, R. D. Lins, R. J. Littlefield,
      A. J. Logsdail, K. Lopata, W. Ma, A. V. Marenich, J. Martin del Campo,
   D. Mejia-Rodriguez, J. E. Moore, J. M. Mullin, T. Nakajima, D. R. Nascimento,
    J. A. Nichols, P. J. Nichols, J. Nieplocha, A. Otero-de-la-Roza, B. Palmer,
    A. Panyala, T. Pirojsirikul, B. Peng, R. Peverati, J. Pittner, L. Pollack,
   R. M. Richard, P. Sadayappan, G. C. Schatz, W. A. Shelton, D. W. Silverstein,
   D. M. A. Smith, T. A. Soares, D. Song, M. Swart, H. L. Taylor, G. S. Thomas,
            V. Tipparaju, D. G. Truhlar, K. Tsemekhman, T. Van Voorhis,
      A. Vazquez-Mayagoitia, P. Verma, O. Villa, A. Vishnu, K. D. Vogiatzis,
        D. Wang, J. H. Weare, M. J. Williamson, T. L. Windus, K. Wolinski,
        A. T. Wong, Q. Wu, C. Yang, Q. Yu, M. Zacharias, Z. Zhang, Y. Zhao,
                                and R. J. Harrison
                        "NWChem: Past, present, and future
                         J. Chem. Phys. 152, 184102 (2020)
                               doi:10.1063/5.0004997

                                      AUTHORS
                                      -------
  E. Apra, E. J. Bylaska, N. Govind, K. Kowalski, M. Valiev, D. Mejia-Rodriguez,
       A. Kunitsa, N. P. Bauman, A. Panyala, W. A. de Jong, T. P. Straatsma,
   H. J. J. van Dam, D. Wang, T. L. Windus, J. Hammond, J. Autschbach, A. Woods,
    K. Bhaskaran-Nair, J. Brabec, K. Lopata, S. A. Fischer, S. Krishnamoorthy,
     M. Jacquelin, W. Ma, M. Klemm, O. Villa, Y. Chen, V. Anisimov, F. Aquino,
     S. Hirata, M. T. Hackler, E. Hermes, L. Jensen, J. E. Moore, J. C. Becca,
      V. Konjkov, T. Risthaus, M. Malagoli, A. Marenich, A. Otero-de-la-Roza,
        J. Mullin, P. Nichols, R. Peverati, J. Pittner, Y. Zhao, P.-D. Fan,
        A. Fonari, M. J. Williamson, R. J. Harrison, J. R. Rehr, M. Dupuis,
     D. Silverstein, D. M. A. Smith, J. Nieplocha, V. Tipparaju, M. Krishnan,
     B. E. Van Kuiken, A. Vazquez-Mayagoitia, M. Swart, Q. Wu, T. Van Voorhis,
     A. A. Auer, M. Nooijen, L. D. Crosby, E. Brown, G. Cisneros, G. I. Fann,
   H. Fruchtl, J. Garza, K. Hirao, R. A. Kendall, J. A. Nichols, K. Tsemekhman,
    K. Wolinski, J. Anchell, D. E. Bernholdt, P. Borowski, T. Clark, D. Clerc,
   H. Dachsel, M. J. O. Deegan, K. Dyall, D. Elwood, E. Glendening, M. Gutowski,
   A. C. Hess, J. Jaffe, B. G. Johnson, J. Ju, R. Kobayashi, R. Kutteh, Z. Lin,
   R. Littlefield, X. Long, B. Meng, T. Nakajima, S. Niu, L. Pollack, M. Rosing,
   K. Glaesemann, G. Sandrone, M. Stave, H. Taylor, G. Thomas, J. H. van Lenthe,
                               A. T. Wong, Z. Zhang.

 Total times  cpu:     2982.0s     wall:     3105.9s
