export TMOUT=5400
export TMPDIR=/tmp
export PTMPDIR=/tmp/ptmp
 argument  1 = ALA_SER_4.nw
                                         
                                         


             Northwest Computational Chemistry Package (NWChem) 7.2.0
             --------------------------------------------------------


                    Environmental Molecular Sciences Laboratory
                       Pacific Northwest National Laboratory
                                Richland, WA 99352

                              Copyright (c) 1994-2022
                       Pacific Northwest National Laboratory
                            Battelle Memorial Institute

             NWChem is an open-source computational chemistry package
                        distributed under the terms of the
                      Educational Community License (ECL) 2.0
             A copy of the license is included with this distribution
                              in the LICENSE.TXT file

                                  ACKNOWLEDGMENT
                                  --------------

            This software and its documentation were developed at the
            EMSL at Pacific Northwest National Laboratory, a multiprogram
            national laboratory, operated for the U.S. Department of Energy
            by Battelle under Contract Number DE-AC05-76RL01830. Support
            for this work was provided by the Department of Energy Office
            of Biological and Environmental Research, Office of Basic
            Energy Sciences, and the Office of Advanced Scientific Computing.


           Job information
           ---------------

    hostname        = nova18-41
    program         = /opt/rit/el9/20230413/app/linux-rhel9-x86_64_v3/gcc-11.2.1/nwchem-7.2.0-oxtctbuhfuzyfaoziquq6bki22grib3g/bin/nwchem
    date            = Mon Jun 30 13:13:57 2025

    compiled        = Wed_May_17_23:46:39_2023
    source          = /tmp/root/spack-stage/spack-stage-nwchem-7.2.0-oxtctbuhfuzyfaoziquq6bki22grib3g/spack-src
    nwchem branch   = 7.2.0
    nwchem revision = d0d141fd
    ga revision     = 5.8.0
    use scalapack   = T
    input           = ALA_SER_4.nw
    prefix          = ALA_SER_4.
    data base       = ./ALA_SER_4.db
    status          = startup
    nproc           =        8
    time left       =     -1s



           Memory information
           ------------------

    heap     =   26214398 doubles =    200.0 Mbytes
    stack    =   26214395 doubles =    200.0 Mbytes
    global   =   52428800 doubles =    400.0 Mbytes (distinct from heap & stack)
    total    =  104857593 doubles =    800.0 Mbytes
    verify   = yes
    hardfail = no 


           Directory information
           ---------------------

  0 permanent = .
  0 scratch   = .




                                NWChem Input Module
                                -------------------



 Scaling coordinates for geometry "geometry" by  1.889725989
 (inverse scale =  0.529177249)

 C1  symmetry detected

          ------
          auto-z
          ------
  no constraints, skipping    0.0000000000000000     
  no constraints, skipping    0.0000000000000000     


                             Geometry "geometry" -> ""
                             -------------------------

 Output coordinates in angstroms (scale by  1.889725989 to convert to a.u.)

  No.       Tag          Charge          X              Y              Z
 ---- ---------------- ---------- -------------- -------------- --------------
    1 H                    1.0000    -0.36349629     5.90922647     0.97284554
    2 C                    6.0000     0.17997370     4.98288991     1.15249787
    3 H                    1.0000     0.00419611     4.64763175     2.17251218
    4 H                    1.0000     1.24366826     5.14703897     0.99250108
    5 C                    6.0000    -0.31452141     3.93168284     0.18631348
    6 O                    8.0000    -1.19213806     4.20245677    -0.62267632
    7 N                    7.0000     0.24607970     2.72769452     0.27687024
    8 H                    1.0000     0.93988932     2.56939812     0.99240532
    9 C                    6.0000    -0.11485808     1.58127110    -0.55705197
   10 H                    1.0000    -1.17712248     1.64343249    -0.79920756
   11 C                    6.0000     0.68710221     1.64451913    -1.86591001
   12 H                    1.0000     0.40863384     0.81406636    -2.51535636
   13 H                    1.0000     0.47282963     2.58040715    -2.38507941
   14 H                    1.0000     1.75562855     1.58991601    -1.65255826
   15 C                    6.0000     0.12510233     0.25492493     0.18582611
   16 O                    8.0000     0.91891353     0.19624839     1.12491335
   17 N                    7.0000    -0.53791870    -0.81997422    -0.25495492
   18 H                    1.0000    -1.15392468    -0.69562173    -1.04257608
   19 C                    6.0000    -0.44715644    -2.17065923     0.33199840
   20 H                    1.0000    -0.45059133    -2.06419619     1.41765849
   21 C                    6.0000    -1.70166133    -2.97396352    -0.04299454
   22 H                    1.0000    -2.58970899    -2.42878317     0.28125805
   23 H                    1.0000    -1.74341433    -3.10585412    -1.12591723
   24 O                    8.0000    -1.68743013    -4.23700911     0.58128609
   25 H                    1.0000    -0.92601475    -4.71979270     0.22355348
   26 C                    6.0000     0.85650053    -2.91501534    -0.03172471
   27 O                    8.0000     0.83823298    -4.03219006    -0.53823033
   28 N                    7.0000     2.01363748    -2.30301114     0.17882444
   29 H                    1.0000     2.86526478    -2.78225378    -0.06181730
   30 H                    1.0000     2.01805751    -1.38752668     0.60852977

      Atomic Mass 
      ----------- 

      H                  1.007825
      C                 12.000000
      O                 15.994910
      N                 14.003070


 Effective nuclear repulsion energy (a.u.)    1041.9334217783

            Nuclear Dipole moment (a.u.) 
            ----------------------------
        X                 Y               Z
 ---------------- ---------------- ----------------
     0.0000000000     0.0000000000    -0.0000000000



                                Z-matrix (autoz)
                                -------- 

 Units are Angstrom for bonds and degrees for angles

      Type          Name      I     J     K     L     M      Value
      ----------- --------  ----- ----- ----- ----- ----- ----------
    1 Stretch                  1     2                       1.08891
    2 Stretch                  2     3                       1.08799
    3 Stretch                  2     4                       1.08811
    4 Stretch                  2     5                       1.51098
    5 Stretch                  5     6                       1.22393
    6 Stretch                  5     7                       1.33119
    7 Stretch                  7     8                       1.00917
    8 Stretch                  7     9                       1.46287
    9 Stretch                  9    10                       1.09129
   10 Stretch                  9    11                       1.53631
   11 Stretch                  9    15                       1.53904
   12 Stretch                 11    12                       1.09040
   13 Stretch                 11    13                       1.09148
   14 Stretch                 11    14                       1.09099
   15 Stretch                 15    16                       1.23104
   16 Stretch                 15    17                       1.33764
   17 Stretch                 17    18                       1.00761
   18 Stretch                 17    19                       1.47550
   19 Stretch                 19    20                       1.09087
   20 Stretch                 19    21                       1.53613
   21 Stretch                 19    26                       1.54463
   22 Stretch                 21    22                       1.09132
   23 Stretch                 21    23                       1.09172
   24 Stretch                 21    24                       1.40898
   25 Stretch                 24    25                       0.96995
   26 Stretch                 26    27                       1.22677
   27 Stretch                 26    28                       1.32584
   28 Stretch                 28    29                       1.00640
   29 Stretch                 28    30                       1.01132
   30 Bend                     1     2     3               109.64420
   31 Bend                     1     2     4               109.59083
   32 Bend                     1     2     5               108.84477
   33 Bend                     2     5     6               120.22581
   34 Bend                     2     5     7               116.60979
   35 Bend                     3     2     4               110.01555
   36 Bend                     3     2     5               109.40454
   37 Bend                     4     2     5               109.32046
   38 Bend                     5     7     8               118.66137
   39 Bend                     5     7     9               124.47954
   40 Bend                     6     5     7               123.16343
   41 Bend                     7     9    10               108.78552
   42 Bend                     7     9    11               108.94149
   43 Bend                     7     9    15               111.20748
   44 Bend                     8     7     9               116.80112
   45 Bend                     9    11    12               110.04503
   46 Bend                     9    11    13               109.75856
   47 Bend                     9    11    14               110.03484
   48 Bend                     9    15    16               120.65253
   49 Bend                     9    15    17               117.14122
   50 Bend                    10     9    11               108.46525
   51 Bend                    10     9    15               107.93674
   52 Bend                    11     9    15               111.42712
   53 Bend                    12    11    13               108.63854
   54 Bend                    12    11    14               109.17664
   55 Bend                    13    11    14               109.15986
   56 Bend                    15    17    18               117.47951
   57 Bend                    15    17    19               125.03154
   58 Bend                    16    15    17               122.18719
   59 Bend                    17    19    20               107.84037
   60 Bend                    17    19    21               109.35128
   61 Bend                    17    19    26               113.53934
   62 Bend                    18    17    19               117.48585
   63 Bend                    19    21    22               109.31599
   64 Bend                    19    21    23               109.66723
   65 Bend                    19    21    24               110.63223
   66 Bend                    19    26    27               121.56757
   67 Bend                    19    26    28               118.47427
   68 Bend                    20    19    21               106.94257
   69 Bend                    20    19    26               106.50140
   70 Bend                    21    19    26               112.31956
   71 Bend                    21    24    25               106.90014
   72 Bend                    22    21    23               108.90217
   73 Bend                    22    21    24               108.92872
   74 Bend                    23    21    24               109.36540
   75 Bend                    26    28    29               118.73464
   76 Bend                    26    28    30               119.28428
   77 Bend                    27    26    28               119.92884
   78 Bend                    29    28    30               121.93543
   79 Torsion                  1     2     5     6          -0.01189
   80 Torsion                  1     2     5     7        -179.66465
   81 Torsion                  2     5     7     8           1.91410
   82 Torsion                  2     5     7     9         179.05094
   83 Torsion                  3     2     5     6         119.77879
   84 Torsion                  3     2     5     7         -59.87397
   85 Torsion                  4     2     5     6        -119.68782
   86 Torsion                  4     2     5     7          60.65943
   87 Torsion                  5     7     9    10         -32.41136
   88 Torsion                  5     7     9    11          85.65130
   89 Torsion                  5     7     9    15        -151.15623
   90 Torsion                  6     5     7     8        -177.72749
   91 Torsion                  6     5     7     9          -0.59064
   92 Torsion                  7     9    11    12        -178.23430
   93 Torsion                  7     9    11    13         -58.72614
   94 Torsion                  7     9    11    14          61.41869
   95 Torsion                  7     9    15    16         -22.48599
   96 Torsion                  7     9    15    17         159.06761
   97 Torsion                  8     7     9    10         144.77399
   98 Torsion                  8     7     9    11         -97.16335
   99 Torsion                  8     7     9    15          26.02911
  100 Torsion                  9    15    17    18          -0.15181
  101 Torsion                  9    15    17    19        -179.49233
  102 Torsion                 10     9    11    12         -59.97003
  103 Torsion                 10     9    11    13          59.53813
  104 Torsion                 10     9    11    14         179.68296
  105 Torsion                 10     9    15    16        -141.73912
  106 Torsion                 10     9    15    17          39.81448
  107 Torsion                 11     9    15    16          99.27060
  108 Torsion                 11     9    15    17         -79.17579
  109 Torsion                 12    11     9    15          58.70457
  110 Torsion                 13    11     9    15         178.21273
  111 Torsion                 14    11     9    15         -61.64243
  112 Torsion                 15    17    19    20          41.84386
  113 Torsion                 15    17    19    21         157.78806
  114 Torsion                 15    17    19    26         -75.91004
  115 Torsion                 16    15    17    18        -178.57257
  116 Torsion                 16    15    17    19           2.08691
  117 Torsion                 17    19    21    22         -55.93279
  118 Torsion                 17    19    21    23          63.39577
  119 Torsion                 17    19    21    24        -175.88463
  120 Torsion                 17    19    26    27        -126.02378
  121 Torsion                 17    19    26    28          52.00449
  122 Torsion                 18    17    19    20        -137.49662
  123 Torsion                 18    17    19    21         -21.55242
  124 Torsion                 18    17    19    26         104.74948
  125 Torsion                 19    21    24    25         -63.95288
  126 Torsion                 19    26    28    29        -179.64238
  127 Torsion                 19    26    28    30           2.76682
  128 Torsion                 20    19    21    22          60.58217
  129 Torsion                 20    19    21    23         179.91073
  130 Torsion                 20    19    21    24         -59.36968
  131 Torsion                 20    19    26    27         115.44877
  132 Torsion                 20    19    26    28         -66.52296
  133 Torsion                 21    19    26    27          -1.30524
  134 Torsion                 21    19    26    28         176.72303
  135 Torsion                 22    21    19    26         177.07174
  136 Torsion                 22    21    24    25         175.86335
  137 Torsion                 23    21    19    26         -63.59970
  138 Torsion                 23    21    24    25          56.94611
  139 Torsion                 24    21    19    26          57.11990
  140 Torsion                 27    26    28    29          -1.58083
  141 Torsion                 27    26    28    30        -179.17163


            XYZ format geometry
            -------------------
    30
 geometry
 H                    -0.36349629     5.90922647     0.97284554
 C                     0.17997370     4.98288991     1.15249787
 H                     0.00419611     4.64763175     2.17251218
 H                     1.24366826     5.14703897     0.99250108
 C                    -0.31452141     3.93168284     0.18631348
 O                    -1.19213806     4.20245677    -0.62267632
 N                     0.24607970     2.72769452     0.27687024
 H                     0.93988932     2.56939812     0.99240532
 C                    -0.11485808     1.58127110    -0.55705197
 H                    -1.17712248     1.64343249    -0.79920756
 C                     0.68710221     1.64451913    -1.86591001
 H                     0.40863384     0.81406636    -2.51535636
 H                     0.47282963     2.58040715    -2.38507941
 H                     1.75562855     1.58991601    -1.65255826
 C                     0.12510233     0.25492493     0.18582611
 O                     0.91891353     0.19624839     1.12491335
 N                    -0.53791870    -0.81997422    -0.25495492
 H                    -1.15392468    -0.69562173    -1.04257608
 C                    -0.44715644    -2.17065923     0.33199840
 H                    -0.45059133    -2.06419619     1.41765849
 C                    -1.70166133    -2.97396352    -0.04299454
 H                    -2.58970899    -2.42878317     0.28125805
 H                    -1.74341433    -3.10585412    -1.12591723
 O                    -1.68743013    -4.23700911     0.58128609
 H                    -0.92601475    -4.71979270     0.22355348
 C                     0.85650053    -2.91501534    -0.03172471
 O                     0.83823298    -4.03219006    -0.53823033
 N                     2.01363748    -2.30301114     0.17882444
 H                     2.86526478    -2.78225378    -0.06181730
 H                     2.01805751    -1.38752668     0.60852977

 ==============================================================================
                                internuclear distances
 ------------------------------------------------------------------------------
       center one      |      center two      | atomic units |  angstroms
 ------------------------------------------------------------------------------
    2 C                |   1 H                |     2.05775  |     1.08891
    3 H                |   2 C                |     2.05601  |     1.08799
    4 H                |   2 C                |     2.05624  |     1.08811
    5 C                |   2 C                |     2.85535  |     1.51098
    6 O                |   5 C                |     2.31288  |     1.22393
    7 N                |   5 C                |     2.51558  |     1.33119
    8 H                |   7 N                |     1.90705  |     1.00917
    9 C                |   7 N                |     2.76442  |     1.46287
   10 H                |   9 C                |     2.06223  |     1.09129
   11 C                |   9 C                |     2.90321  |     1.53631
   12 H                |  11 C                |     2.06056  |     1.09040
   13 H                |  11 C                |     2.06260  |     1.09148
   14 H                |  11 C                |     2.06166  |     1.09099
   15 C                |   9 C                |     2.90836  |     1.53904
   16 O                |  15 C                |     2.32633  |     1.23104
   17 N                |  15 C                |     2.52778  |     1.33764
   18 H                |  17 N                |     1.90410  |     1.00761
   19 C                |  17 N                |     2.78829  |     1.47550
   20 H                |  19 C                |     2.06145  |     1.09087
   21 C                |  19 C                |     2.90287  |     1.53613
   22 H                |  21 C                |     2.06230  |     1.09132
   23 H                |  21 C                |     2.06306  |     1.09172
   24 O                |  21 C                |     2.66258  |     1.40898
   25 H                |  24 O                |     1.83294  |     0.96995
   26 C                |  19 C                |     2.91893  |     1.54463
   27 O                |  26 C                |     2.31826  |     1.22677
   28 N                |  26 C                |     2.50547  |     1.32584
   29 H                |  28 N                |     1.90183  |     1.00640
   30 H                |  28 N                |     1.91113  |     1.01132
 ------------------------------------------------------------------------------
                         number of included internuclear distances:         29
 ==============================================================================



 ==============================================================================
                                 internuclear angles
 ------------------------------------------------------------------------------
        center 1       |       center 2       |       center 3       |  degrees
 ------------------------------------------------------------------------------
    1 H                |   2 C                |   3 H                |   109.64
    1 H                |   2 C                |   4 H                |   109.59
    1 H                |   2 C                |   5 C                |   108.84
    3 H                |   2 C                |   4 H                |   110.02
    3 H                |   2 C                |   5 C                |   109.40
    4 H                |   2 C                |   5 C                |   109.32
    2 C                |   5 C                |   6 O                |   120.23
    2 C                |   5 C                |   7 N                |   116.61
    6 O                |   5 C                |   7 N                |   123.16
    5 C                |   7 N                |   8 H                |   118.66
    5 C                |   7 N                |   9 C                |   124.48
    8 H                |   7 N                |   9 C                |   116.80
    7 N                |   9 C                |  10 H                |   108.79
    7 N                |   9 C                |  11 C                |   108.94
    7 N                |   9 C                |  15 C                |   111.21
   10 H                |   9 C                |  11 C                |   108.47
   10 H                |   9 C                |  15 C                |   107.94
   11 C                |   9 C                |  15 C                |   111.43
    9 C                |  11 C                |  12 H                |   110.05
    9 C                |  11 C                |  13 H                |   109.76
    9 C                |  11 C                |  14 H                |   110.03
   12 H                |  11 C                |  13 H                |   108.64
   12 H                |  11 C                |  14 H                |   109.18
   13 H                |  11 C                |  14 H                |   109.16
    9 C                |  15 C                |  16 O                |   120.65
    9 C                |  15 C                |  17 N                |   117.14
   16 O                |  15 C                |  17 N                |   122.19
   15 C                |  17 N                |  18 H                |   117.48
   15 C                |  17 N                |  19 C                |   125.03
   18 H                |  17 N                |  19 C                |   117.49
   17 N                |  19 C                |  20 H                |   107.84
   17 N                |  19 C                |  21 C                |   109.35
   17 N                |  19 C                |  26 C                |   113.54
   20 H                |  19 C                |  21 C                |   106.94
   20 H                |  19 C                |  26 C                |   106.50
   21 C                |  19 C                |  26 C                |   112.32
   19 C                |  21 C                |  22 H                |   109.32
   19 C                |  21 C                |  23 H                |   109.67
   19 C                |  21 C                |  24 O                |   110.63
   22 H                |  21 C                |  23 H                |   108.90
   22 H                |  21 C                |  24 O                |   108.93
   23 H                |  21 C                |  24 O                |   109.37
   21 C                |  24 O                |  25 H                |   106.90
   19 C                |  26 C                |  27 O                |   121.57
   19 C                |  26 C                |  28 N                |   118.47
   27 O                |  26 C                |  28 N                |   119.93
   26 C                |  28 N                |  29 H                |   118.73
   26 C                |  28 N                |  30 H                |   119.28
   29 H                |  28 N                |  30 H                |   121.94
 ------------------------------------------------------------------------------
                            number of included internuclear angles:         49
 ==============================================================================



  library name resolved from: environment
  library file name is: </opt/rit/el9/20230413/app/linux-rhel9-x86_64_v3/gcc-11.2.1/nwchem-7.2.0-oxtctbuhfuzyfaoziquq6bki22grib3g/share/nwchem/libraries/>
  


 Summary of "ao basis" -> "" (cartesian)
 ------------------------------------------------------------------------------
       Tag                 Description            Shells   Functions and Types
 ---------------- ------------------------------  ------  ---------------------
 *                        aug-cc-pvdz                 on all atoms 


                      Basis "ao basis" -> "ao basis" (cartesian)
                      -----
  H (Hydrogen)
  ------------
            Exponent  Coefficients 
       -------------- ---------------------------------------------------------
  1 S  1.30100000E+01  0.019685
  1 S  1.96200000E+00  0.137977
  1 S  4.44600000E-01  0.478148

  2 S  1.22000000E-01  1.000000

  3 S  2.97400000E-02  1.000000

  4 P  7.27000000E-01  1.000000

  5 P  1.41000000E-01  1.000000

  C (Carbon)
  ----------
            Exponent  Coefficients 
       -------------- ---------------------------------------------------------
  1 S  6.66500000E+03  0.000692
  1 S  1.00000000E+03  0.005329
  1 S  2.28000000E+02  0.027077
  1 S  6.47100000E+01  0.101718
  1 S  2.10600000E+01  0.274740
  1 S  7.49500000E+00  0.448564
  1 S  2.79700000E+00  0.285074
  1 S  5.21500000E-01  0.015204

  2 S  6.66500000E+03 -0.000146
  2 S  1.00000000E+03 -0.001154
  2 S  2.28000000E+02 -0.005725
  2 S  6.47100000E+01 -0.023312
  2 S  2.10600000E+01 -0.063955
  2 S  7.49500000E+00 -0.149981
  2 S  2.79700000E+00 -0.127262
  2 S  5.21500000E-01  0.544529

  3 S  1.59600000E-01  1.000000

  4 S  4.69000000E-02  1.000000

  5 P  9.43900000E+00  0.038109
  5 P  2.00200000E+00  0.209480
  5 P  5.45600000E-01  0.508557

  6 P  1.51700000E-01  1.000000

  7 P  4.04100000E-02  1.000000

  8 D  5.50000000E-01  1.000000

  9 D  1.51000000E-01  1.000000

  O (Oxygen)
  ----------
            Exponent  Coefficients 
       -------------- ---------------------------------------------------------
  1 S  1.17200000E+04  0.000710
  1 S  1.75900000E+03  0.005470
  1 S  4.00800000E+02  0.027837
  1 S  1.13700000E+02  0.104800
  1 S  3.70300000E+01  0.283062
  1 S  1.32700000E+01  0.448719
  1 S  5.02500000E+00  0.270952
  1 S  1.01300000E+00  0.015458

  2 S  1.17200000E+04 -0.000160
  2 S  1.75900000E+03 -0.001263
  2 S  4.00800000E+02 -0.006267
  2 S  1.13700000E+02 -0.025716
  2 S  3.70300000E+01 -0.070924
  2 S  1.32700000E+01 -0.165411
  2 S  5.02500000E+00 -0.116955
  2 S  1.01300000E+00  0.557368

  3 S  3.02300000E-01  1.000000

  4 S  7.89600000E-02  1.000000

  5 P  1.77000000E+01  0.043018
  5 P  3.85400000E+00  0.228913
  5 P  1.04600000E+00  0.508728

  6 P  2.75300000E-01  1.000000

  7 P  6.85600000E-02  1.000000

  8 D  1.18500000E+00  1.000000

  9 D  3.32000000E-01  1.000000

  N (Nitrogen)
  ------------
            Exponent  Coefficients 
       -------------- ---------------------------------------------------------
  1 S  9.04600000E+03  0.000700
  1 S  1.35700000E+03  0.005389
  1 S  3.09300000E+02  0.027406
  1 S  8.77300000E+01  0.103207
  1 S  2.85600000E+01  0.278723
  1 S  1.02100000E+01  0.448540
  1 S  3.83800000E+00  0.278238
  1 S  7.46600000E-01  0.015440

  2 S  9.04600000E+03 -0.000153
  2 S  1.35700000E+03 -0.001208
  2 S  3.09300000E+02 -0.005992
  2 S  8.77300000E+01 -0.024544
  2 S  2.85600000E+01 -0.067459
  2 S  1.02100000E+01 -0.158078
  2 S  3.83800000E+00 -0.121831
  2 S  7.46600000E-01  0.549003

  3 S  2.24800000E-01  1.000000

  4 S  6.12400000E-02  1.000000

  5 P  1.35500000E+01  0.039919
  5 P  2.91700000E+00  0.217169
  5 P  7.97300000E-01  0.510319

  6 P  2.18500000E-01  1.000000

  7 P  5.61100000E-02  1.000000

  8 D  8.17000000E-01  1.000000

  9 D  2.30000000E-01  1.000000



 Summary of "ao basis" -> "ao basis" (cartesian)
 ------------------------------------------------------------------------------
       Tag                 Description            Shells   Functions and Types
 ---------------- ------------------------------  ------  ---------------------
 H                        aug-cc-pvdz                5        9   3s2p
 C                        aug-cc-pvdz                9       25   4s3p2d
 O                        aug-cc-pvdz                9       25   4s3p2d
 N                        aug-cc-pvdz                9       25   4s3p2d


                                 NWChem SCF Module
                                 -----------------



  ao basis        = "ao basis"
  functions       =   510
  atoms           =    30
  closed shells   =    58
  open shells     =     0
  charge          =   0.00
  wavefunction    = RHF 
  input vectors   = atomic
  output vectors  = ./ALA_SER_4.movecs
  use symmetry    = F
  symmetry adapt  = F


 Summary of "ao basis" -> "ao basis" (cartesian)
 ------------------------------------------------------------------------------
       Tag                 Description            Shells   Functions and Types
 ---------------- ------------------------------  ------  ---------------------
 H                        aug-cc-pvdz                5        9   3s2p
 C                        aug-cc-pvdz                9       25   4s3p2d
 O                        aug-cc-pvdz                9       25   4s3p2d
 N                        aug-cc-pvdz                9       25   4s3p2d



 Forming initial guess at       1.5s


 !! The overlap matrix has   3 vectors deemed linearly dependent with
    eigenvalues:
 3.13D-06 5.94D-06 8.39D-06


      Superposition of Atomic Density Guess
      -------------------------------------

 Sum of atomic energies:        -770.80158829

      Non-variational initial energy
      ------------------------------

 Total energy =    -780.119622
 1-e energy   =   -3118.516847
 2-e energy   =    1296.463803
 HOMO         =      -0.305928
 LUMO         =       0.009771


 Starting SCF solution at     177.1s



 ----------------------------------------------
         Quadratically convergent ROHF

 Convergence threshold     :          1.000E-04
 Maximum no. of iterations :           30
 Final Fock-matrix accuracy:          1.000E-10
 ----------------------------------------------


              iter       energy          gnorm     gmax       time
             ----- ------------------- --------- --------- --------
                 1     -774.2864252517  2.44D+00  1.65D-01    352.5
                 2     -774.5991406704  7.90D-01  4.15D-02    682.7
                 3     -774.6536726011  6.24D-02  4.58D-03   1196.0
                 4     -774.6542620299  3.66D-03  3.61D-04   1832.8
                 5     -774.6542646456  7.96D-06  6.10D-07   3030.2


       Final RHF  results 
       ------------------ 

         Total SCF energy =   -774.654264645574
      One-electron energy =  -3128.259884221353
      Two-electron energy =   1311.672197797473
 Nuclear repulsion energy =   1041.933421778306

        Time for solution =   2859.6s


             Final eigenvalues
             -----------------

              1      
    1  -20.5664
    2  -20.5657
    3  -20.5423
    4  -20.5280
    5  -15.6377
    6  -15.6057
    7  -15.5987
    8  -11.3960
    9  -11.3744
   10  -11.3604
   11  -11.3166
   12  -11.3159
   13  -11.3056
   14  -11.2529
   15  -11.2469
   16   -1.4274
   17   -1.4060
   18   -1.3903
   19   -1.3666
   20   -1.2783
   21   -1.2543
   22   -1.2288
   23   -1.0845
   24   -1.0422
   25   -0.9987
   26   -0.9187
   27   -0.9041
   28   -0.8391
   29   -0.8078
   30   -0.8024
   31   -0.7602
   32   -0.7479
   33   -0.7135
   34   -0.7019
   35   -0.6807
   36   -0.6715
   37   -0.6652
   38   -0.6451
   39   -0.6299
   40   -0.6236
   41   -0.6093
   42   -0.5984
   43   -0.5945
   44   -0.5861
   45   -0.5742
   46   -0.5608
   47   -0.5592
   48   -0.5513
   49   -0.5416
   50   -0.5198
   51   -0.5109
   52   -0.4660
   53   -0.4607
   54   -0.4524
   55   -0.4262
   56   -0.4224
   57   -0.4190
   58   -0.4030
   59    0.0266
   60    0.0325
   61    0.0359
   62    0.0414
   63    0.0531
   64    0.0553
   65    0.0565
   66    0.0592
   67    0.0651
   68    0.0735

                       ROHF Final Molecular Orbital Analysis
                       -------------------------------------

 Vector   16  Occ=2.000000D+00  E=-1.427368D+00
              MO Center=  5.3D-01,  5.7D-03,  6.5D-01, r^2= 1.6D+00
   Bfn.  Coefficient  Atom+Function         Bfn.  Coefficient  Atom+Function  
  ----- ------------  ---------------      ----- ------------  ---------------
   250      0.362299  16 O  s               249      0.341044  16 O  s         
   224      0.237747  15 C  s         

 Vector   17  Occ=2.000000D+00  E=-1.406003D+00
              MO Center=  7.5D-01, -3.4D+00, -2.3D-01, r^2= 2.0D+00
   Bfn.  Coefficient  Atom+Function         Bfn.  Coefficient  Atom+Function  
  ----- ------------  ---------------      ----- ------------  ---------------
   445      0.370109  27 O  s               444      0.337894  27 O  s         
   419      0.230510  26 C  s         

 Vector   18  Occ=2.000000D+00  E=-1.390291D+00
              MO Center= -7.5D-01,  3.9D+00, -2.7D-01, r^2= 1.2D+00
   Bfn.  Coefficient  Atom+Function         Bfn.  Coefficient  Atom+Function  
  ----- ------------  ---------------      ----- ------------  ---------------
    79      0.345495   6 O  s                80      0.346534   6 O  s         
    54      0.245745   5 C  s                12      0.154318   2 C  s         

 Vector   19  Occ=2.000000D+00  E=-1.366637D+00
              MO Center= -1.4D+00, -4.0D+00,  3.8D-01, r^2= 1.2D+00
   Bfn.  Coefficient  Atom+Function         Bfn.  Coefficient  Atom+Function  
  ----- ------------  ---------------      ----- ------------  ---------------
   386      0.431745  24 O  s               385      0.392232  24 O  s         
   343     -0.195762  21 C  s               314     -0.190987  19 C  px        
   409      0.182143  25 H  s         

 Vector   20  Occ=2.000000D+00  E=-1.278252D+00
              MO Center= -2.7D-01, -7.8D-01, -1.7D-02, r^2= 1.8D+00
   Bfn.  Coefficient  Atom+Function         Bfn.  Coefficient  Atom+Function  
  ----- ------------  ---------------      ----- ------------  ---------------
   275      0.411302  17 N  s               274      0.345445  17 N  s         
   250     -0.223087  16 O  s               249     -0.180356  16 O  s         
   309     -0.175468  19 C  s               298      0.159336  18 H  s         

 Vector   21  Occ=2.000000D+00  E=-1.254340D+00
              MO Center= -7.9D-03,  2.8D+00,  6.0D-02, r^2= 1.9D+00
   Bfn.  Coefficient  Atom+Function         Bfn.  Coefficient  Atom+Function  
  ----- ------------  ---------------      ----- ------------  ---------------
   105      0.436661   7 N  s               104      0.340022   7 N  s         
    80     -0.215375   6 O  s                79     -0.188285   6 O  s         
   128      0.151891   8 H  s               138      0.151140   9 C  s         

 Vector   22  Occ=2.000000D+00  E=-1.228829D+00
              MO Center=  1.6D+00, -2.5D+00,  7.8D-02, r^2= 1.6D+00
   Bfn.  Coefficient  Atom+Function         Bfn.  Coefficient  Atom+Function  
  ----- ------------  ---------------      ----- ------------  ---------------
   470      0.400847  28 N  s               469      0.368623  28 N  s         
   445     -0.209898  27 O  s               444     -0.173168  27 O  s         
   502      0.163476  30 H  s               423      0.158277  26 C  py        
   493      0.156420  29 H  s         

 Vector   23  Occ=2.000000D+00  E=-1.084450D+00
              MO Center= -3.6D-02,  9.3D-01, -3.3D-01, r^2= 6.5D+00
   Bfn.  Coefficient  Atom+Function         Bfn.  Coefficient  Atom+Function  
  ----- ------------  ---------------      ----- ------------  ---------------
   138      0.219751   9 C  s               172      0.172412  11 C  s         
   308     -0.162429  19 C  s         

 Vector   24  Occ=2.000000D+00  E=-1.042192D+00
              MO Center= -3.6D-01, -5.6D-01, -3.8D-03, r^2= 9.3D+00
   Bfn.  Coefficient  Atom+Function         Bfn.  Coefficient  Atom+Function  
  ----- ------------  ---------------      ----- ------------  ---------------
   308      0.236207  19 C  s               225      0.208359  15 C  s         
   139     -0.186117   9 C  s               342      0.164383  21 C  s         

 Vector   25  Occ=2.000000D+00  E=-9.986810D-01
              MO Center=  1.9D-01,  3.9D+00,  3.9D-01, r^2= 5.4D+00
   Bfn.  Coefficient  Atom+Function         Bfn.  Coefficient  Atom+Function  
  ----- ------------  ---------------      ----- ------------  ---------------
    11      0.315056   2 C  s                56     -0.282962   5 C  s         
   146     -0.209356   9 C  pz               13      0.200167   2 C  s         
   225      0.173680  15 C  s               172      0.168868  11 C  s         

 Vector   26  Occ=2.000000D+00  E=-9.186855D-01
              MO Center= -2.7D-01, -5.8D-02, -5.7D-01, r^2= 9.0D+00
   Bfn.  Coefficient  Atom+Function         Bfn.  Coefficient  Atom+Function  
  ----- ------------  ---------------      ----- ------------  ---------------
   146      0.234718   9 C  pz              172     -0.215724  11 C  s         
   342      0.202118  21 C  s               309     -0.184654  19 C  s         
   145     -0.176960   9 C  py              225     -0.150816  15 C  s         
   343      0.150373  21 C  s         

 Vector   27  Occ=2.000000D+00  E=-9.041192D-01
              MO Center= -1.8D-01, -1.4D+00, -1.8D-01, r^2= 8.0D+00
   Bfn.  Coefficient  Atom+Function         Bfn.  Coefficient  Atom+Function  
  ----- ------------  ---------------      ----- ------------  ---------------
   309      0.427903  19 C  s               139      0.267735   9 C  s         
   146      0.208326   9 C  pz              342     -0.191177  21 C  s         
   245     -0.176215  15 C  dyy             314      0.174255  19 C  px        
   343     -0.166843  21 C  s               225     -0.163137  15 C  s         
   425      0.153845  26 C  px        

 Vector   28  Occ=2.000000D+00  E=-8.391268D-01
              MO Center= -2.1D-01, -4.1D-02, -6.4D-03, r^2= 7.0D+00
   Bfn.  Coefficient  Atom+Function         Bfn.  Coefficient  Atom+Function  
  ----- ------------  ---------------      ----- ------------  ---------------
   225      0.295489  15 C  s               278      0.203458  17 N  py        
   298     -0.199265  18 H  s               224      0.183622  15 C  s         
   277      0.181129  17 N  px              108      0.173941   7 N  py        
   275     -0.165505  17 N  s               309      0.162076  19 C  s         

 Vector   29  Occ=2.000000D+00  E=-8.078462D-01
              MO Center=  7.9D-01, -2.0D+00,  4.9D-02, r^2= 4.4D+00
   Bfn.  Coefficient  Atom+Function         Bfn.  Coefficient  Atom+Function  
  ----- ------------  ---------------      ----- ------------  ---------------
   314      0.260694  19 C  px              472     -0.256287  28 N  px        
   343      0.223211  21 C  s               425      0.218537  26 C  px        
   419      0.208378  26 C  s               298      0.182291  18 H  s         
   279     -0.175545  17 N  pz              502     -0.172475  30 H  s         
   445     -0.170710  27 O  s               470     -0.150716  28 N  s         

 Vector   30  Occ=2.000000D+00  E=-8.023813D-01
              MO Center=  4.9D-02,  2.3D+00,  4.3D-02, r^2= 3.5D+00
   Bfn.  Coefficient  Atom+Function         Bfn.  Coefficient  Atom+Function  
  ----- ------------  ---------------      ----- ------------  ---------------
   225      0.321443  15 C  s               139     -0.308830   9 C  s         
   128      0.292533   8 H  s               105      0.255284   7 N  s         
   146     -0.243809   9 C  pz              107      0.239353   7 N  px        
    55     -0.209067   5 C  s               108     -0.175553   7 N  py        
   163     -0.175225  10 H  s                80      0.164626   6 O  s         

 Vector   31  Occ=2.000000D+00  E=-7.602250D-01
              MO Center=  4.6D-01, -1.2D+00,  6.7D-02, r^2= 7.2D+00
   Bfn.  Coefficient  Atom+Function         Bfn.  Coefficient  Atom+Function  
  ----- ------------  ---------------      ----- ------------  ---------------
   473      0.233964  28 N  py              502      0.214011  30 H  s         
   225     -0.209558  15 C  s               145     -0.204989   9 C  py        
   422     -0.204802  26 C  px              279     -0.171916  17 N  pz        
   421      0.155174  26 C  s               312     -0.153478  19 C  py        
   315     -0.151207  19 C  py        

 Vector   32  Occ=2.000000D+00  E=-7.479239D-01
              MO Center=  6.5D-01, -5.7D-01,  2.1D-01, r^2= 9.1D+00
   Bfn.  Coefficient  Atom+Function         Bfn.  Coefficient  Atom+Function  
  ----- ------------  ---------------      ----- ------------  ---------------
   493     -0.214283  29 H  s               473      0.207476  28 N  py        
   502      0.183652  30 H  s               228     -0.176892  15 C  py        
   142      0.165036   9 C  py              494     -0.155910  29 H  s         
   503      0.153325  30 H  s               472     -0.151148  28 N  px        

 Vector   33  Occ=2.000000D+00  E=-7.134629D-01
              MO Center= -5.3D-01, -1.9D+00,  2.6D-01, r^2= 6.8D+00
   Bfn.  Coefficient  Atom+Function         Bfn.  Coefficient  Atom+Function  
  ----- ------------  ---------------      ----- ------------  ---------------
   347      0.210765  21 C  pz              313      0.195975  19 C  pz        
   375     -0.177194  23 H  s               332      0.167441  20 H  s         
   409     -0.154210  25 H  s               254      0.150308  16 O  pz        

 Vector   34  Occ=2.000000D+00  E=-7.018915D-01
              MO Center=  3.2D-01, -6.9D-01,  8.4D-02, r^2= 1.1D+01
   Bfn.  Coefficient  Atom+Function         Bfn.  Coefficient  Atom+Function  
  ----- ------------  ---------------      ----- ------------  ---------------
   315     -0.200579  19 C  py              278      0.198620  17 N  py        
   472      0.170577  28 N  px              493      0.170949  29 H  s         
   312     -0.169241  19 C  py              445     -0.158872  27 O  s         
   309      0.157695  19 C  s         

 Vector   35  Occ=2.000000D+00  E=-6.806661D-01
              MO Center= -3.6D-01, -1.3D+00, -8.6D-02, r^2= 1.1D+01
   Bfn.  Coefficient  Atom+Function         Bfn.  Coefficient  Atom+Function  
  ----- ------------  ---------------      ----- ------------  ---------------
   389      0.187765  24 O  py              409     -0.188515  25 H  s         
   314      0.173814  19 C  px              315     -0.158862  19 C  py        
   420     -0.157659  26 C  s               388     -0.152689  24 O  px        
   422     -0.151928  26 C  px              109     -0.150290   7 N  pz        

 Vector   36  Occ=2.000000D+00  E=-6.715103D-01
              MO Center= -9.9D-04,  2.1D+00,  2.9D-01, r^2= 9.8D+00
   Bfn.  Coefficient  Atom+Function         Bfn.  Coefficient  Atom+Function  
  ----- ------------  ---------------      ----- ------------  ---------------
    58      0.234590   5 C  py               13     -0.166877   2 C  s         
    84      0.166782   6 O  pz              254      0.163157  16 O  pz        
    16     -0.153146   2 C  pz        

 Vector   37  Occ=2.000000D+00  E=-6.652189D-01
              MO Center= -3.4D-01,  3.5D-02, -1.2D-01, r^2= 1.1D+01
   Bfn.  Coefficient  Atom+Function         Bfn.  Coefficient  Atom+Function  
  ----- ------------  ---------------      ----- ------------  ---------------
   278      0.180795  17 N  py              344      0.174352  21 C  s         
   388      0.174274  24 O  px        

 Vector   38  Occ=2.000000D+00  E=-6.451217D-01
              MO Center=  2.2D-01,  1.8D+00, -1.4D-01, r^2= 7.5D+00
   Bfn.  Coefficient  Atom+Function         Bfn.  Coefficient  Atom+Function  
  ----- ------------  ---------------      ----- ------------  ---------------
   173     -0.338835  11 C  s               139      0.326286   9 C  s         
   252      0.188987  16 O  px              177      0.180668  11 C  pz        
   229     -0.176884  15 C  pz               57      0.160878   5 C  px        
    84     -0.157789   6 O  pz              225     -0.157337  15 C  s         

 Vector   39  Occ=2.000000D+00  E=-6.298966D-01
              MO Center=  2.7D-01,  1.5D+00,  1.3D-01, r^2= 1.1D+01
   Bfn.  Coefficient  Atom+Function         Bfn.  Coefficient  Atom+Function  
  ----- ------------  ---------------      ----- ------------  ---------------
   139      0.360604   9 C  s               173     -0.230356  11 C  s         
    56      0.186796   5 C  s               252     -0.185800  16 O  px        
   229      0.171391  15 C  pz               16     -0.165861   2 C  pz        
   206      0.158971  13 H  s                35     -0.151064   3 H  s         

 Vector   40  Occ=2.000000D+00  E=-6.235859D-01
              MO Center= -1.6D-01, -2.5D+00, -1.1D-01, r^2= 8.6D+00
   Bfn.  Coefficient  Atom+Function         Bfn.  Coefficient  Atom+Function  
  ----- ------------  ---------------      ----- ------------  ---------------
   448      0.281124  27 O  py              389     -0.224997  24 O  py        
   423     -0.213011  26 C  py              420      0.210682  26 C  s         
   346      0.203423  21 C  py              445     -0.184500  27 O  s         
   366      0.156814  22 H  s               315      0.151794  19 C  py        

 Vector   41  Occ=2.000000D+00  E=-6.092653D-01
              MO Center= -8.1D-02,  6.6D-01,  3.4D-01, r^2= 1.2D+01
   Bfn.  Coefficient  Atom+Function         Bfn.  Coefficient  Atom+Function  
  ----- ------------  ---------------      ----- ------------  ---------------
   254      0.196489  16 O  pz              227     -0.169282  15 C  px        
    44      0.165900   4 H  s                14      0.164581   2 C  px        
   388     -0.156721  24 O  px        

 Vector   42  Occ=2.000000D+00  E=-5.984404D-01
              MO Center= -9.9D-02, -4.5D-01, -2.1D-02, r^2= 1.4D+01
   Bfn.  Coefficient  Atom+Function         Bfn.  Coefficient  Atom+Function  
  ----- ------------  ---------------      ----- ------------  ---------------
   424     -0.155703  26 C  pz              449     -0.154841  27 O  pz        

 Vector   43  Occ=2.000000D+00  E=-5.945047D-01
              MO Center= -2.1D-01,  2.0D-02, -2.3D-01, r^2= 1.3D+01
   Bfn.  Coefficient  Atom+Function         Bfn.  Coefficient  Atom+Function  
  ----- ------------  ---------------      ----- ------------  ---------------
   225      0.166865  15 C  s               345     -0.165818  21 C  px        
   196      0.156738  12 H  s               389     -0.156543  24 O  py        

 Vector   44  Occ=2.000000D+00  E=-5.861479D-01
              MO Center= -3.4D-01, -1.8D+00, -2.2D-01, r^2= 1.0D+01
   Bfn.  Coefficient  Atom+Function         Bfn.  Coefficient  Atom+Function  
  ----- ------------  ---------------      ----- ------------  ---------------
   367      0.207455  22 H  s               346      0.195019  21 C  py        
   423      0.190278  26 C  py              390      0.184276  24 O  pz        
   366      0.179144  22 H  s               449     -0.170894  27 O  pz        
   389     -0.167306  24 O  py              176      0.161507  11 C  py        

 Vector   45  Occ=2.000000D+00  E=-5.741739D-01
              MO Center= -1.3D-01,  3.9D+00,  1.4D-01, r^2= 5.2D+00
   Bfn.  Coefficient  Atom+Function         Bfn.  Coefficient  Atom+Function  
  ----- ------------  ---------------      ----- ------------  ---------------
     2      0.250014   1 H  s                16     -0.225108   2 C  pz        
    35     -0.220044   3 H  s                 1      0.205182   1 H  s         
    82     -0.199612   6 O  px               83      0.163441   6 O  py        
   206     -0.157236  13 H  s               176     -0.155001  11 C  py        
    59      0.151268   5 C  pz        

 Vector   46  Occ=2.000000D+00  E=-5.607682D-01
              MO Center=  2.9D-01,  3.1D-01,  1.2D-01, r^2= 1.4D+01
   Bfn.  Coefficient  Atom+Function         Bfn.  Coefficient  Atom+Function  
  ----- ------------  ---------------      ----- ------------  ---------------
   449      0.181965  27 O  pz               14      0.163617   2 C  px        
     1     -0.158330   1 H  s               424      0.153892  26 C  pz        

 Vector   47  Occ=2.000000D+00  E=-5.591850D-01
              MO Center=  4.5D-01,  2.1D+00, -4.7D-01, r^2= 8.5D+00
   Bfn.  Coefficient  Atom+Function         Bfn.  Coefficient  Atom+Function  
  ----- ------------  ---------------      ----- ------------  ---------------
   205      0.255847  13 H  s               206      0.256342  13 H  s         
   176      0.242761  11 C  py                1      0.195581   1 H  s         
   163     -0.187150  10 H  s               234      0.180541  15 C  py        
   253      0.174331  16 O  py               14     -0.158392   2 C  px        
   252      0.157548  16 O  px               15      0.150167   2 C  py        

 Vector   48  Occ=2.000000D+00  E=-5.512625D-01
              MO Center=  1.6D-01, -5.7D-01,  2.0D-01, r^2= 1.1D+01
   Bfn.  Coefficient  Atom+Function         Bfn.  Coefficient  Atom+Function  
  ----- ------------  ---------------      ----- ------------  ---------------
   309      0.246677  19 C  s               332      0.221588  20 H  s         
   343     -0.221747  21 C  s               313      0.216239  19 C  pz        
   139     -0.167714   9 C  s               163      0.155354  10 H  s         

 Vector   49  Occ=2.000000D+00  E=-5.415571D-01
              MO Center=  3.4D-01,  2.0D+00, -8.2D-01, r^2= 5.2D+00
   Bfn.  Coefficient  Atom+Function         Bfn.  Coefficient  Atom+Function  
  ----- ------------  ---------------      ----- ------------  ---------------
   163      0.290097  10 H  s               215      0.269247  14 H  s         
   214      0.244979  14 H  s               175      0.233271  11 C  px        
   196     -0.225059  12 H  s               197     -0.223265  12 H  s         
   162      0.198145  10 H  s               141     -0.183384   9 C  px        
   109      0.181160   7 N  pz        

 Vector   50  Occ=2.000000D+00  E=-5.198050D-01
              MO Center= -1.3D+00, -3.2D+00,  2.0D-01, r^2= 4.7D+00
   Bfn.  Coefficient  Atom+Function         Bfn.  Coefficient  Atom+Function  
  ----- ------------  ---------------      ----- ------------  ---------------
   388      0.260102  24 O  px              367      0.244508  22 H  s         
   390     -0.241264  24 O  pz              366      0.222481  22 H  s         
   345     -0.216137  21 C  px              386     -0.198942  24 O  s         
   226      0.190713  15 C  s               347      0.188324  21 C  pz        
   447     -0.187739  27 O  px              343     -0.179882  21 C  s         

 Vector   51  Occ=2.000000D+00  E=-5.108515D-01
              MO Center= -2.5D-01,  3.1D+00, -2.2D-01, r^2= 5.9D+00
   Bfn.  Coefficient  Atom+Function         Bfn.  Coefficient  Atom+Function  
  ----- ------------  ---------------      ----- ------------  ---------------
    82      0.228964   6 O  px               84     -0.206778   6 O  pz        
   141     -0.189468   9 C  px               85      0.167649   6 O  px        
   175      0.157822  11 C  px               35      0.156152   3 H  s         
    45     -0.152068   4 H  s                36      0.150634   3 H  s         
    44     -0.150822   4 H  s         

 Vector   52  Occ=2.000000D+00  E=-4.660401D-01
              MO Center=  3.1D-01, -1.2D+00,  2.2D-01, r^2= 6.0D+00
   Bfn.  Coefficient  Atom+Function         Bfn.  Coefficient  Atom+Function  
  ----- ------------  ---------------      ----- ------------  ---------------
   447      0.301834  27 O  px              252     -0.238019  16 O  px        
   450      0.237679  27 O  px              254      0.213282  16 O  pz        
   279     -0.203277  17 N  pz              253     -0.200337  16 O  py        
   343     -0.200777  21 C  s               255     -0.188558  16 O  px        
   282     -0.176763  17 N  pz              256     -0.164104  16 O  py        

 Vector   53  Occ=2.000000D+00  E=-4.606606D-01
              MO Center= -1.6D-01, -1.3D+00,  3.7D-01, r^2= 7.3D+00
   Bfn.  Coefficient  Atom+Function         Bfn.  Coefficient  Atom+Function  
  ----- ------------  ---------------      ----- ------------  ---------------
   253      0.391769  16 O  py              256      0.324316  16 O  py        
   390      0.237843  24 O  pz              344      0.214586  21 C  s         
   343     -0.208854  21 C  s               314     -0.189741  19 C  px        
   393      0.185275  24 O  pz              348     -0.178123  21 C  px        
   318      0.173686  19 C  py              388      0.170054  24 O  px        

 Vector   54  Occ=2.000000D+00  E=-4.524228D-01
              MO Center= -7.2D-01, -2.6D+00,  2.2D-01, r^2= 6.6D+00
   Bfn.  Coefficient  Atom+Function         Bfn.  Coefficient  Atom+Function  
  ----- ------------  ---------------      ----- ------------  ---------------
   390      0.322505  24 O  pz              393      0.249544  24 O  pz        
   253     -0.235490  16 O  py              226     -0.214401  15 C  s         
   447     -0.205961  27 O  px              256     -0.194395  16 O  py        
   318      0.191524  19 C  py              388      0.189903  24 O  px        
   375      0.173083  23 H  s               344      0.164511  21 C  s         

 Vector   55  Occ=2.000000D+00  E=-4.261669D-01
              MO Center= -8.0D-01,  4.0D+00, -2.4D-01, r^2= 2.8D+00
   Bfn.  Coefficient  Atom+Function         Bfn.  Coefficient  Atom+Function  
  ----- ------------  ---------------      ----- ------------  ---------------
    83      0.498156   6 O  py               13      0.424048   2 C  s         
    86      0.397435   6 O  py               56     -0.243409   5 C  s         
   105      0.239923   7 N  s                84      0.234087   6 O  pz        
    64     -0.221967   5 C  py              145     -0.219077   9 C  py        
   225     -0.185424  15 C  s                87      0.178500   6 O  pz        

 Vector   56  Occ=2.000000D+00  E=-4.224267D-01
              MO Center=  1.4D+00, -3.0D+00, -1.0D-01, r^2= 2.3D+00
   Bfn.  Coefficient  Atom+Function         Bfn.  Coefficient  Atom+Function  
  ----- ------------  ---------------      ----- ------------  ---------------
   474      0.412505  28 N  pz              449     -0.357083  27 O  pz        
   477      0.353747  28 N  pz              452     -0.282016  27 O  pz        
   473     -0.179247  28 N  py              284     -0.173735  17 N  py        
   448      0.161613  27 O  py              476     -0.154287  28 N  py        

 Vector   57  Occ=2.000000D+00  E=-4.190487D-01
              MO Center=  1.1D-01, -1.6D+00, -3.5D-02, r^2= 7.4D+00
   Bfn.  Coefficient  Atom+Function         Bfn.  Coefficient  Atom+Function  
  ----- ------------  ---------------      ----- ------------  ---------------
   447      0.339800  27 O  px              450      0.270347  27 O  px        
   277     -0.236953  17 N  px              280     -0.219823  17 N  px        
   420      0.203981  26 C  s               279      0.184880  17 N  pz        
   311      0.180221  19 C  px              282      0.163142  17 N  pz        

 Vector   58  Occ=2.000000D+00  E=-4.029951D-01
              MO Center= -1.8D-01,  2.6D+00, -1.7D-01, r^2= 5.0D+00
   Bfn.  Coefficient  Atom+Function         Bfn.  Coefficient  Atom+Function  
  ----- ------------  ---------------      ----- ------------  ---------------
   107      0.300279   7 N  px              109     -0.282796   7 N  pz        
   112     -0.270556   7 N  pz              110      0.268624   7 N  px        
    82     -0.230876   6 O  px               84      0.222802   6 O  pz        
   139      0.219216   9 C  s                85     -0.177154   6 O  px        
    87      0.172671   6 O  pz               56     -0.154368   5 C  s         

 Vector   59  Occ=0.000000D+00  E= 2.664500D-02
              MO Center=  1.3D+00,  1.0D+00, -8.5D-01, r^2= 3.0D+01
   Bfn.  Coefficient  Atom+Function         Bfn.  Coefficient  Atom+Function  
  ----- ------------  ---------------      ----- ------------  ---------------
   421      3.677924  26 C  s               106     -2.751256   7 N  s         
   148      2.430236   9 C  py              174      2.347714  11 C  s         
   310      2.212885  19 C  s               471     -2.180115  28 N  s         
   226      2.146438  15 C  s               173      1.955837  11 C  s         
    56      1.610372   5 C  s               276     -1.567146  17 N  s         

 Vector   60  Occ=0.000000D+00  E= 3.252283D-02
              MO Center= -5.9D-01,  5.6D-01, -1.1D+00, r^2= 3.2D+01
   Bfn.  Coefficient  Atom+Function         Bfn.  Coefficient  Atom+Function  
  ----- ------------  ---------------      ----- ------------  ---------------
    64      3.005167   5 C  py              276      2.831068  17 N  s         
   148      2.727460   9 C  py              317      1.998888  19 C  px        
    65      1.972326   5 C  pz               13     -1.930513   2 C  s         
   164      1.838456  10 H  s               234      1.669018  15 C  py        
    46     -1.613482   4 H  s               377      1.605396  23 H  s         

 Vector   61  Occ=0.000000D+00  E= 3.590053D-02
              MO Center=  7.4D-01,  1.5D+00,  7.8D-01, r^2= 3.7D+01
   Bfn.  Coefficient  Atom+Function         Bfn.  Coefficient  Atom+Function  
  ----- ------------  ---------------      ----- ------------  ---------------
    64      3.037564   5 C  py              421     -2.556789  26 C  s         
   234     -2.347138  15 C  py              471      2.315058  28 N  s         
   148      2.262311   9 C  py              226      2.271720  15 C  s         
   147     -2.170116   9 C  px              149      2.159807   9 C  pz        
    37     -1.987078   3 H  s               495      1.823700  29 H  s         

 Vector   62  Occ=0.000000D+00  E= 4.135498D-02
              MO Center=  1.3D+00,  5.6D-01,  3.6D-01, r^2= 3.7D+01
   Bfn.  Coefficient  Atom+Function         Bfn.  Coefficient  Atom+Function  
  ----- ------------  ---------------      ----- ------------  ---------------
   344      3.045517  21 C  s               334     -2.060417  20 H  s         
    46      1.776098   4 H  s               207      1.660548  13 H  s         
   173     -1.638692  11 C  s               495     -1.634925  29 H  s         
   147     -1.552069   9 C  px              428      1.387332  26 C  px        
   310      1.313504  19 C  s               206      1.277227  13 H  s         

 Vector   63  Occ=0.000000D+00  E= 5.308682D-02
              MO Center=  3.1D-01,  2.7D+00,  6.3D-01, r^2= 4.1D+01
   Bfn.  Coefficient  Atom+Function         Bfn.  Coefficient  Atom+Function  
  ----- ------------  ---------------      ----- ------------  ---------------
     3      3.036263   1 H  s                56      2.846698   5 C  s         
   368     -2.436780  22 H  s                64     -2.319377   5 C  py        
   148     -2.064506   9 C  py              216     -2.045901  14 H  s         
   198      2.031447  12 H  s               106     -2.012995   7 N  s         
   377      1.806263  23 H  s               130     -1.726600   8 H  s         

 Vector   64  Occ=0.000000D+00  E= 5.531418D-02
              MO Center= -5.2D-01,  3.4D-01, -1.8D+00, r^2= 3.9D+01
   Bfn.  Coefficient  Atom+Function         Bfn.  Coefficient  Atom+Function  
  ----- ------------  ---------------      ----- ------------  ---------------
   377      3.794438  23 H  s               226      2.968628  15 C  s         
   207     -2.868212  13 H  s                46      2.838606   4 H  s         
   174      2.811193  11 C  s               421     -2.593833  26 C  s         
   284     -2.115836  17 N  py              173      1.872514  11 C  s         
   344     -1.872605  21 C  s               317      1.863014  19 C  px        

 Vector   65  Occ=0.000000D+00  E= 5.648376D-02
              MO Center= -6.8D-02,  2.2D+00,  8.8D-01, r^2= 4.0D+01
   Bfn.  Coefficient  Atom+Function         Bfn.  Coefficient  Atom+Function  
  ----- ------------  ---------------      ----- ------------  ---------------
    13      3.689301   2 C  s                 3      3.500381   1 H  s         
   198     -3.253691  12 H  s                64     -2.942616   5 C  py        
    37     -2.822339   3 H  s               130     -2.762632   8 H  s         
   368      2.515198  22 H  s               234      2.371600  15 C  py        
   226     -2.163697  15 C  s                21     -2.099368   2 C  py        

 Vector   66  Occ=0.000000D+00  E= 5.918327D-02
              MO Center= -6.2D-01, -2.3D+00,  2.8D-01, r^2= 3.2D+01
   Bfn.  Coefficient  Atom+Function         Bfn.  Coefficient  Atom+Function  
  ----- ------------  ---------------      ----- ------------  ---------------
   334     -3.655621  20 H  s               148      3.532871   9 C  py        
   234     -3.214121  15 C  py              164      3.196223  10 H  s         
   300      2.871247  18 H  s               147      2.623577   9 C  px        
   198     -2.385714  12 H  s               428     -2.267533  26 C  px        
   471      2.219945  28 N  s               319      2.046815  19 C  pz        

 Vector   67  Occ=0.000000D+00  E= 6.513757D-02
              MO Center=  8.0D-01,  9.7D-01,  2.1D-01, r^2= 3.7D+01
   Bfn.  Coefficient  Atom+Function         Bfn.  Coefficient  Atom+Function  
  ----- ------------  ---------------      ----- ------------  ---------------
   216      5.150401  14 H  s               234     -4.638922  15 C  py        
    13      3.484082   2 C  s                37      3.183707   3 H  s         
   368      3.161366  22 H  s               207     -3.025874  13 H  s         
   334     -2.613211  20 H  s                64     -2.597360   5 C  py        
   226      2.507367  15 C  s               344     -2.385934  21 C  s         

 Vector   68  Occ=0.000000D+00  E= 7.350991D-02
              MO Center=  1.4D+00,  1.9D+00,  5.7D-01, r^2= 4.5D+01
   Bfn.  Coefficient  Atom+Function         Bfn.  Coefficient  Atom+Function  
  ----- ------------  ---------------      ----- ------------  ---------------
     3      4.780513   1 H  s                13      4.082329   2 C  s         
   504      3.771113  30 H  s                64     -3.131256   5 C  py        
   495     -2.662112  29 H  s                46     -2.595705   4 H  s         
    56      2.603554   5 C  s               148     -2.544631   9 C  py        
   114     -2.494204   7 N  py              174     -2.270014  11 C  s         

 Vector   69  Occ=0.000000D+00  E= 7.431829D-02
              MO Center= -2.6D-01, -7.4D-02, -9.4D-01, r^2= 4.2D+01
   Bfn.  Coefficient  Atom+Function         Bfn.  Coefficient  Atom+Function  
  ----- ------------  ---------------      ----- ------------  ---------------
   198      4.561798  12 H  s               207     -3.974552  13 H  s         
    46      2.994169   4 H  s               234      2.976243  15 C  py        
   334      2.865507  20 H  s               164     -2.783613  10 H  s         
    64     -2.359503   5 C  py              106     -2.319299   7 N  s         
   377     -2.286552  23 H  s               182      2.015189  11 C  py        

 Vector   70  Occ=0.000000D+00  E= 7.979787D-02
              MO Center= -7.5D-01, -4.9D-01, -4.1D-01, r^2= 3.9D+01
   Bfn.  Coefficient  Atom+Function         Bfn.  Coefficient  Atom+Function  
  ----- ------------  ---------------      ----- ------------  ---------------
    13      6.861274   2 C  s                56     -5.161443   5 C  s         
   216      5.138551  14 H  s               207     -4.757236  13 H  s         
   368     -4.057548  22 H  s               226     -3.851611  15 C  s         
   164      3.826071  10 H  s               504     -3.371198  30 H  s         
   140     -3.202088   9 C  s               334      2.873808  20 H  s         

 Vector   71  Occ=0.000000D+00  E= 8.580626D-02
              MO Center= -3.3D-01, -1.2D+00, -7.3D-01, r^2= 3.9D+01
   Bfn.  Coefficient  Atom+Function         Bfn.  Coefficient  Atom+Function  
  ----- ------------  ---------------      ----- ------------  ---------------
    56     -7.756663   5 C  s                13      7.675752   2 C  s         
   226     -7.241819  15 C  s               198     -5.427349  12 H  s         
   377      4.754504  23 H  s               234      4.186977  15 C  py        
   334      3.920945  20 H  s               368     -3.785729  22 H  s         
   318      3.685935  19 C  py              300      3.220063  18 H  s         

 Vector   72  Occ=0.000000D+00  E= 9.014171D-02
              MO Center=  7.2D-02,  1.7D+00,  4.3D-01, r^2= 3.5D+01
   Bfn.  Coefficient  Atom+Function         Bfn.  Coefficient  Atom+Function  
  ----- ------------  ---------------      ----- ------------  ---------------
    56    -12.439620   5 C  s                13     11.692417   2 C  s         
   226     -7.407793  15 C  s               300     -6.564723  18 H  s         
   148     -5.652507   9 C  py              174      5.599923  11 C  s         
   344      5.509052  21 C  s               198      5.156981  12 H  s         
   106      4.356541   7 N  s               140     -4.227370   9 C  s         

 Vector   73  Occ=0.000000D+00  E= 1.021484D-01
              MO Center= -2.4D-01,  8.5D-01, -9.5D-02, r^2= 3.6D+01
   Bfn.  Coefficient  Atom+Function         Bfn.  Coefficient  Atom+Function  
  ----- ------------  ---------------      ----- ------------  ---------------
   300      8.542215  18 H  s               164     -7.476305  10 H  s         
   377     -4.742121  23 H  s               130      4.339597   8 H  s         
   504     -4.287909  30 H  s                13      3.760724   2 C  s         
   147     -3.292135   9 C  px              198     -3.083529  12 H  s         
    46     -3.010632   4 H  s                 3      2.669659   1 H  s         

 Vector   74  Occ=0.000000D+00  E= 1.090568D-01
              MO Center= -7.0D-02,  5.8D-01,  3.3D-01, r^2= 3.3D+01
   Bfn.  Coefficient  Atom+Function         Bfn.  Coefficient  Atom+Function  
  ----- ------------  ---------------      ----- ------------  ---------------
    13     15.522404   2 C  s                56    -12.785593   5 C  s         
   226     -9.384762  15 C  s               421      8.066587  26 C  s         
    64     -7.930385   5 C  py              164     -7.616434  10 H  s         
   174      5.863463  11 C  s               234      5.389723  15 C  py        
    65     -4.563939   5 C  pz              318      4.531433  19 C  py        

 Vector   75  Occ=0.000000D+00  E= 1.172943D-01
              MO Center=  8.1D-03,  3.3D-01, -5.3D-02, r^2= 3.9D+01
   Bfn.  Coefficient  Atom+Function         Bfn.  Coefficient  Atom+Function  
  ----- ------------  ---------------      ----- ------------  ---------------
    56    -19.962362   5 C  s                13     19.318266   2 C  s         
   344    -11.230232  21 C  s               421     10.468541  26 C  s         
    64     -6.919556   5 C  py              226     -6.744546  15 C  s         
   317     -6.620033  19 C  px              106      6.474366   7 N  s         
    65     -5.695009   5 C  pz              140     -5.038993   9 C  s         

 Vector   76  Occ=0.000000D+00  E= 1.190441D-01
              MO Center=  2.9D-01, -8.0D-01,  3.4D-01, r^2= 3.3D+01
   Bfn.  Coefficient  Atom+Function         Bfn.  Coefficient  Atom+Function  
  ----- ------------  ---------------      ----- ------------  ---------------
   421     17.147903  26 C  s               234      8.586008  15 C  py        
   344     -8.141920  21 C  s               317     -7.986509  19 C  px        
   174     -7.730268  11 C  s               318      7.752215  19 C  py        
    56      6.582863   5 C  s                13     -6.099362   2 C  s         
   428     -6.127827  26 C  px              106     -4.499734   7 N  s         

 Vector   77  Occ=0.000000D+00  E= 1.218687D-01
              MO Center=  6.2D-01, -7.6D-01, -6.2D-01, r^2= 3.0D+01
   Bfn.  Coefficient  Atom+Function         Bfn.  Coefficient  Atom+Function  
  ----- ------------  ---------------      ----- ------------  ---------------
   421     14.720401  26 C  s                56    -13.160153   5 C  s         
   234      7.636347  15 C  py              148      6.464242   9 C  py        
   344     -5.357906  21 C  s                13      5.086996   2 C  s         
   284      4.843840  17 N  py              300      4.818099  18 H  s         
   429      4.816251  26 C  py              317     -4.442213  19 C  px        

 Vector   78  Occ=0.000000D+00  E= 1.298053D-01
              MO Center=  2.5D-01,  9.9D-02, -5.9D-01, r^2= 2.3D+01
   Bfn.  Coefficient  Atom+Function         Bfn.  Coefficient  Atom+Function  
  ----- ------------  ---------------      ----- ------------  ---------------
   421     10.404278  26 C  s                13      8.701919   2 C  s         
   344     -7.349870  21 C  s                64     -7.276078   5 C  py        
   149     -6.237671   9 C  pz              471     -5.942690  28 N  s         
   148     -5.310843   9 C  py              317     -4.628771  19 C  px        
   174     -3.953925  11 C  s               429      3.759427  26 C  py        

 Vector   79  Occ=0.000000D+00  E= 1.335885D-01
              MO Center=  1.0D+00, -3.8D-01,  6.5D-01, r^2= 3.1D+01
   Bfn.  Coefficient  Atom+Function         Bfn.  Coefficient  Atom+Function  
  ----- ------------  ---------------      ----- ------------  ---------------
   421     13.805524  26 C  s               148     13.171077   9 C  py        
   226     13.199789  15 C  s                13    -11.920948   2 C  s         
   471    -10.775823  28 N  s               106    -10.091849   7 N  s         
    56      9.098327   5 C  s                64      8.198180   5 C  py        
   140      7.077594   9 C  s               310      6.787202  19 C  s         

 Vector   80  Occ=0.000000D+00  E= 1.399106D-01
              MO Center= -2.5D-01,  2.1D+00, -4.1D-01, r^2= 2.8D+01
   Bfn.  Coefficient  Atom+Function         Bfn.  Coefficient  Atom+Function  
  ----- ------------  ---------------      ----- ------------  ---------------
   106     10.136589   7 N  s               234     -7.923950  15 C  py        
   344     -7.323783  21 C  s               276     -7.071988  17 N  s         
    56     -6.925433   5 C  s               226      6.845506  15 C  s         
   318     -6.465834  19 C  py              317     -5.924318  19 C  px        
    63     -4.257861   5 C  px              421      4.128020  26 C  s         

 Vector   81  Occ=0.000000D+00  E= 1.436846D-01
              MO Center= -6.3D-01, -8.4D-02, -1.2D+00, r^2= 2.7D+01
   Bfn.  Coefficient  Atom+Function         Bfn.  Coefficient  Atom+Function  
  ----- ------------  ---------------      ----- ------------  ---------------
   276    -11.647372  17 N  s                56     10.971115   5 C  s         
   148     -9.244566   9 C  py               64     -8.313762   5 C  py        
   234     -7.682870  15 C  py              300     -6.447766  18 H  s         
   114     -5.733328   7 N  py              226      5.340731  15 C  s         
    13      4.480098   2 C  s               173      4.465347  11 C  s         

 Vector   82  Occ=0.000000D+00  E= 1.467477D-01
              MO Center=  2.0D-01,  1.4D+00, -1.6D-01, r^2= 2.9D+01
   Bfn.  Coefficient  Atom+Function         Bfn.  Coefficient  Atom+Function  
  ----- ------------  ---------------      ----- ------------  ---------------
    64      9.853242   5 C  py               13     -8.217817   2 C  s         
   174      7.366226  11 C  s               148      6.525436   9 C  py        
   318      6.435742  19 C  py              344      5.685238  21 C  s         
   149      5.493657   9 C  pz              106     -5.356444   7 N  s         
   235     -4.798309  15 C  pz              276     -4.558014  17 N  s         

 Vector   83  Occ=0.000000D+00  E= 1.491119D-01
              MO Center= -7.0D-01, -6.3D-02,  4.2D-01, r^2= 3.2D+01
   Bfn.  Coefficient  Atom+Function         Bfn.  Coefficient  Atom+Function  
  ----- ------------  ---------------      ----- ------------  ---------------
   226     17.678267  15 C  s               318    -13.565151  19 C  py        
   234    -11.300146  15 C  py              344    -11.190653  21 C  s         
   421    -11.173756  26 C  s                56      9.765639   5 C  s         
   284     -8.065852  17 N  py              471      7.671020  28 N  s         
   149      6.333511   9 C  pz              174      5.922104  11 C  s         

 Vector   84  Occ=0.000000D+00  E= 1.511960D-01
              MO Center=  7.0D-01,  1.3D+00, -7.6D-01, r^2= 2.6D+01
   Bfn.  Coefficient  Atom+Function         Bfn.  Coefficient  Atom+Function  
  ----- ------------  ---------------      ----- ------------  ---------------
    56     13.463698   5 C  s               226     10.512806  15 C  s         
   234    -10.231211  15 C  py              318     -8.494038  19 C  py        
   344     -6.721661  21 C  s               174     -6.624206  11 C  s         
   114     -5.588932   7 N  py              421     -5.307362  26 C  s         
   164      4.809943  10 H  s               149     -4.572105   9 C  pz        

 Vector   85  Occ=0.000000D+00  E= 1.552267D-01
              MO Center= -6.2D-01,  2.3D-01, -7.0D-01, r^2= 3.0D+01
   Bfn.  Coefficient  Atom+Function         Bfn.  Coefficient  Atom+Function  
  ----- ------------  ---------------      ----- ------------  ---------------
    56      6.733376   5 C  s               174     -6.582979  11 C  s         
   198     -6.487220  12 H  s               183     -4.441423  11 C  pz        
   234      4.433922  15 C  py              300      4.437248  18 H  s         
   284      4.000833  17 N  py              106     -3.639730   7 N  s         
    64     -3.549586   5 C  py              147      3.550245   9 C  px        

 Vector   86  Occ=0.000000D+00  E= 1.614083D-01
              MO Center= -1.2D-01,  7.6D-01,  5.3D-01, r^2= 3.3D+01
   Bfn.  Coefficient  Atom+Function         Bfn.  Coefficient  Atom+Function  
  ----- ------------  ---------------      ----- ------------  ---------------
   234      4.808083  15 C  py              471      4.362529  28 N  s         
   334      3.632866  20 H  s                56      3.530712   5 C  s         
   147      3.383495   9 C  px               46     -3.300208   4 H  s         
   318      3.155752  19 C  py               20      2.970497   2 C  px        
   377     -2.935492  23 H  s               428     -2.830364  26 C  px        

 Vector   87  Occ=0.000000D+00  E= 1.640891D-01
              MO Center= -5.6D-01,  2.0D-01,  2.3D-01, r^2= 2.8D+01
   Bfn.  Coefficient  Atom+Function         Bfn.  Coefficient  Atom+Function  
  ----- ------------  ---------------      ----- ------------  ---------------
   148     10.549283   9 C  py              421      7.487334  26 C  s         
   276      7.304483  17 N  s               234      6.572398  15 C  py        
    64      6.042372   5 C  py              300      5.865057  18 H  s         
   319      5.205537  19 C  pz              318      4.391097  19 C  py        
    13     -3.940467   2 C  s               377     -3.784345  23 H  s         

 Vector   88  Occ=0.000000D+00  E= 1.659682D-01
              MO Center= -9.9D-01, -4.0D-01,  4.4D-01, r^2= 2.9D+01
   Bfn.  Coefficient  Atom+Function         Bfn.  Coefficient  Atom+Function  
  ----- ------------  ---------------      ----- ------------  ---------------
   421     15.779059  26 C  s               317    -11.466877  19 C  px        
   344     -8.404868  21 C  s               276     -5.596224  17 N  s         
   164      4.840086  10 H  s               147      4.798871   9 C  px        
    56     -4.147961   5 C  s               235     -4.006379  15 C  pz        
    64     -3.470555   5 C  py              174     -3.421827  11 C  s         

 Vector   89  Occ=0.000000D+00  E= 1.703039D-01
              MO Center= -7.3D-01, -2.7D-01,  3.7D-01, r^2= 3.6D+01
   Bfn.  Coefficient  Atom+Function         Bfn.  Coefficient  Atom+Function  
  ----- ------------  ---------------      ----- ------------  ---------------
   344      9.683838  21 C  s               300      9.250848  18 H  s         
   164     -5.630539  10 H  s               387     -5.456134  24 O  s         
   421     -4.987699  26 C  s               235      4.038313  15 C  pz        
   353      3.995907  21 C  pz              147     -3.627209   9 C  px        
    64      3.425160   5 C  py              276      3.337347  17 N  s         

 Vector   90  Occ=0.000000D+00  E= 1.758059D-01
              MO Center=  6.8D-01,  7.8D-01, -8.2D-01, r^2= 2.4D+01
   Bfn.  Coefficient  Atom+Function         Bfn.  Coefficient  Atom+Function  
  ----- ------------  ---------------      ----- ------------  ---------------
   234     14.760013  15 C  py              148    -11.499862   9 C  py        
   318      5.658720  19 C  py              182      5.546634  11 C  py        
   207     -5.046700  13 H  s               421      4.329957  26 C  s         
   233      4.187899  15 C  px               65     -3.539198   5 C  pz        
   226     -3.472970  15 C  s               276      3.432908  17 N  s         

 Vector   91  Occ=0.000000D+00  E= 1.772970D-01
              MO Center=  4.9D-01,  1.2D+00,  3.2D-01, r^2= 2.9D+01
   Bfn.  Coefficient  Atom+Function         Bfn.  Coefficient  Atom+Function  
  ----- ------------  ---------------      ----- ------------  ---------------
   226     10.457091  15 C  s               344     -9.366710  21 C  s         
[...]

 Vector  146  Occ=0.000000D+00  E= 4.326316D-01
              MO Center=  5.7D-01,  5.6D-01,  3.3D-03, r^2= 2.0D+01
   Bfn.  Coefficient  Atom+Function         Bfn.  Coefficient  Atom+Function  
  ----- ------------  ---------------      ----- ------------  ---------------
   471     -9.318066  28 N  s               276      9.094769  17 N  s         
   173     -8.062370  11 C  s               215      7.886316  14 H  s         
   318     -7.314659  19 C  py              174     -6.398041  11 C  s         
   235      6.080993  15 C  pz              428      5.449726  26 C  px        
   197      4.799519  12 H  s               234     -4.543557  15 C  py        

 Vector  147  Occ=0.000000D+00  E= 4.343462D-01
              MO Center= -9.0D-02,  1.6D+00,  2.2D-01, r^2= 2.2D+01
   Bfn.  Coefficient  Atom+Function         Bfn.  Coefficient  Atom+Function  
  ----- ------------  ---------------      ----- ------------  ---------------
   174      8.440513  11 C  s               276     -8.163308  17 N  s         
   114      7.499849   7 N  py               64      6.857308   5 C  py        
    13     -6.747133   2 C  s               149      6.229140   9 C  pz        
   285      5.680302  17 N  pz              226      5.592034  15 C  s         
   106      5.555213   7 N  s               319     -5.305787  19 C  pz        

 Vector  148  Occ=0.000000D+00  E= 4.405465D-01
              MO Center=  4.2D-02,  2.1D+00,  6.5D-02, r^2= 2.1D+01
   Bfn.  Coefficient  Atom+Function         Bfn.  Coefficient  Atom+Function  
  ----- ------------  ---------------      ----- ------------  ---------------
   148     11.415051   9 C  py              226      9.222598  15 C  s         
    13     -8.070881   2 C  s                45      6.550331   4 H  s         
   234     -6.568435  15 C  py              421     -5.832358  26 C  s         
   147     -4.699574   9 C  px              471      4.718672  28 N  s         
   115      4.570372   7 N  pz              113      4.226456   7 N  px        

 Vector  149  Occ=0.000000D+00  E= 4.443342D-01
              MO Center= -1.6D-01,  1.5D+00,  4.5D-01, r^2= 2.5D+01
   Bfn.  Coefficient  Atom+Function         Bfn.  Coefficient  Atom+Function  
  ----- ------------  ---------------      ----- ------------  ---------------
   421     20.192383  26 C  s                13     18.226891   2 C  s         
   226    -17.452355  15 C  s                56    -12.997824   5 C  s         
   234     11.954378  15 C  py              284     11.111050  17 N  py        
   471    -10.290988  28 N  s               276      9.892582  17 N  s         
   174     -7.973384  11 C  s               318      7.111293  19 C  py        

 Vector  150  Occ=0.000000D+00  E= 4.464152D-01
              MO Center=  6.4D-02,  2.5D-01, -4.0D-01, r^2= 1.8D+01
   Bfn.  Coefficient  Atom+Function         Bfn.  Coefficient  Atom+Function  
  ----- ------------  ---------------      ----- ------------  ---------------
   344     12.850549  21 C  s               174     10.454684  11 C  s         
   421     -8.893584  26 C  s               197     -8.649764  12 H  s         
   173      7.649675  11 C  s               114      6.288893   7 N  py        
   148     -6.281595   9 C  py              317      6.277894  19 C  px        
   234      4.970589  15 C  py              284     -4.797696  17 N  py        

 Vector  151  Occ=0.000000D+00  E= 4.479865D-01
              MO Center= -2.7D-01, -6.7D-01, -6.8D-04, r^2= 2.2D+01
   Bfn.  Coefficient  Atom+Function         Bfn.  Coefficient  Atom+Function  
  ----- ------------  ---------------      ----- ------------  ---------------
   148     18.880924   9 C  py               56    -15.652602   5 C  s         
   276     15.220451  17 N  s               106     -8.829527   7 N  s         
   226     -7.611745  15 C  s               421      6.851925  26 C  s         
   174      6.698525  11 C  s               318      6.601291  19 C  py        
   233      6.198030  15 C  px              300      6.191098  18 H  s         

 Vector  152  Occ=0.000000D+00  E= 4.546188D-01
              MO Center=  4.0D-01, -4.3D-01, -3.7D-01, r^2= 2.2D+01
   Bfn.  Coefficient  Atom+Function         Bfn.  Coefficient  Atom+Function  
  ----- ------------  ---------------      ----- ------------  ---------------
   421     19.411382  26 C  s               174    -11.951703  11 C  s         
   344    -11.826146  21 C  s               471    -10.078195  28 N  s         
   173     -9.898868  11 C  s               317     -9.761753  19 C  px        
   215      7.581817  14 H  s               197      6.910150  12 H  s         
   206      6.309873  13 H  s               367      6.221709  22 H  s         

 Vector  153  Occ=0.000000D+00  E= 4.625838D-01
              MO Center=  1.0D-02, -3.7D-01, -3.6D-01, r^2= 2.1D+01
   Bfn.  Coefficient  Atom+Function         Bfn.  Coefficient  Atom+Function  
  ----- ------------  ---------------      ----- ------------  ---------------
   344     32.193140  21 C  s               226    -27.317616  15 C  s         
   234     20.293318  15 C  py               56     14.921562   5 C  s         
   148    -14.995351   9 C  py              317     14.847944  19 C  px        
   318     14.460097  19 C  py              174    -11.727174  11 C  s         
   206      6.635879  13 H  s               173     -6.173874  11 C  s         

 Vector  154  Occ=0.000000D+00  E= 4.675147D-01
              MO Center= -9.8D-02,  3.9D-01, -3.8D-01, r^2= 2.1D+01
   Bfn.  Coefficient  Atom+Function         Bfn.  Coefficient  Atom+Function  
  ----- ------------  ---------------      ----- ------------  ---------------
    13     22.034907   2 C  s               226    -18.748530  15 C  s         
    64    -11.618343   5 C  py              344      9.412728  21 C  s         
   148     -9.360150   9 C  py              140     -8.308078   9 C  s         
    12      7.991529   2 C  s                65     -7.667778   5 C  pz        
   173     -7.151226  11 C  s               206      7.016513  13 H  s         

 Vector  155  Occ=0.000000D+00  E= 4.728750D-01
              MO Center=  2.7D-01,  7.1D-01, -5.9D-01, r^2= 2.0D+01
   Bfn.  Coefficient  Atom+Function         Bfn.  Coefficient  Atom+Function  
  ----- ------------  ---------------      ----- ------------  ---------------
   174      9.795536  11 C  s               421     -8.053598  26 C  s         
   149      5.592389   9 C  pz              344      5.210320  21 C  s         
   428      4.964827  26 C  px              318     -4.847771  19 C  py        
   181     -4.783680  11 C  px              233     -4.564099  15 C  px        
   139      4.412865   9 C  s               215      4.333730  14 H  s         

 Vector  156  Occ=0.000000D+00  E= 4.742845D-01
              MO Center=  3.0D-01, -3.0D-01, -5.7D-01, r^2= 1.7D+01
   Bfn.  Coefficient  Atom+Function         Bfn.  Coefficient  Atom+Function  
  ----- ------------  ---------------      ----- ------------  ---------------
    13     10.946804   2 C  s               234    -10.656379  15 C  py        
   344     -6.912065  21 C  s               148     -6.770646   9 C  py        
   318     -6.295679  19 C  py              276     -6.213159  17 N  s         
    12      5.564770   2 C  s               471      5.246593  28 N  s         
   367      4.694952  22 H  s                64     -4.591898   5 C  py        

 Vector  157  Occ=0.000000D+00  E= 4.791405D-01
              MO Center=  3.5D-02,  4.0D-01,  4.4D-01, r^2= 2.1D+01
   Bfn.  Coefficient  Atom+Function         Bfn.  Coefficient  Atom+Function  
  ----- ------------  ---------------      ----- ------------  ---------------
    56     21.325713   5 C  s               344     20.862730  21 C  s         
    13    -16.597769   2 C  s               421    -13.978729  26 C  s         
   174     -8.821960  11 C  s                36      7.428181   3 H  s         
   317      6.841260  19 C  px              318      6.565921  19 C  py        
    65      6.405753   5 C  pz               12     -6.106583   2 C  s         

 Vector  158  Occ=0.000000D+00  E= 4.824160D-01
              MO Center= -5.2D-01,  2.0D-01,  2.6D-01, r^2= 2.2D+01
   Bfn.  Coefficient  Atom+Function         Bfn.  Coefficient  Atom+Function  
  ----- ------------  ---------------      ----- ------------  ---------------
   344    -16.749277  21 C  s               226     15.801980  15 C  s         
   317     -9.015086  19 C  px              234     -8.084975  15 C  py        
   318     -7.960473  19 C  py               13      6.957233   2 C  s         
   387      6.735600  24 O  s               276     -6.332460  17 N  s         
   114     -5.756041   7 N  py              251     -5.768585  16 O  s         

 Vector  159  Occ=0.000000D+00  E= 4.884305D-01
              MO Center= -3.8D-01, -4.9D-01, -2.0D-01, r^2= 1.8D+01
   Bfn.  Coefficient  Atom+Function         Bfn.  Coefficient  Atom+Function  
  ----- ------------  ---------------      ----- ------------  ---------------
   234     17.463276  15 C  py               56     15.959475   5 C  s         
   174    -13.597364  11 C  s               148    -12.682520   9 C  py        
   284     -8.975189  17 N  py              344     -8.552971  21 C  s         
   149     -7.582431   9 C  pz              343     -7.434525  21 C  s         
   367      7.036004  22 H  s               421      6.106746  26 C  s         

 Vector  160  Occ=0.000000D+00  E= 4.888175D-01
              MO Center=  5.1D-01,  7.6D-01, -4.4D-01, r^2= 2.1D+01
   Bfn.  Coefficient  Atom+Function         Bfn.  Coefficient  Atom+Function  
  ----- ------------  ---------------      ----- ------------  ---------------
    13     25.498048   2 C  s                56    -21.574743   5 C  s         
   226    -20.184589  15 C  s               344     20.214959  21 C  s         
   148    -19.122016   9 C  py              106     14.333403   7 N  s         
   174     10.891471  11 C  s               421    -10.831430  26 C  s         
   276     10.292811  17 N  s               140     -8.414808   9 C  s         

 Vector  161  Occ=0.000000D+00  E= 4.950789D-01
              MO Center= -8.6D-02,  1.4D-01,  2.7D-01, r^2= 2.2D+01
   Bfn.  Coefficient  Atom+Function         Bfn.  Coefficient  Atom+Function  
  ----- ------------  ---------------      ----- ------------  ---------------
   148    -17.276058   9 C  py               13     16.031935   2 C  s         
   114     -9.063297   7 N  py               64     -7.821099   5 C  py        
   106      7.829727   7 N  s               226     -6.971467  15 C  s         
   251     -6.385909  16 O  s               421     -6.332348  26 C  s         
   318     -5.789380  19 C  py              139     -5.753586   9 C  s         

 Vector  162  Occ=0.000000D+00  E= 4.995375D-01
              MO Center= -1.5D-01, -7.4D-01, -1.4D-01, r^2= 2.2D+01
   Bfn.  Coefficient  Atom+Function         Bfn.  Coefficient  Atom+Function  
  ----- ------------  ---------------      ----- ------------  ---------------
    13     17.012524   2 C  s                64    -11.146777   5 C  py        
   106      7.237921   7 N  s               148     -7.260536   9 C  py        
   226     -6.892284  15 C  s               234     -6.614333  15 C  py        
   114     -5.212788   7 N  py              376      4.710679  23 H  s         
   174     -4.620905  11 C  s               318      4.005807  19 C  py        

 Vector  163  Occ=0.000000D+00  E= 5.101334D-01
              MO Center=  5.6D-01,  5.9D-01,  5.0D-01, r^2= 2.3D+01
   Bfn.  Coefficient  Atom+Function         Bfn.  Coefficient  Atom+Function  
  ----- ------------  ---------------      ----- ------------  ---------------
    13     45.042733   2 C  s                56    -36.522947   5 C  s         
    64    -16.493254   5 C  py              106     15.858845   7 N  s         
   148    -13.396952   9 C  py              226    -13.141706  15 C  s         
    12     12.764878   2 C  s               344    -12.277215  21 C  s         
    65    -12.032771   5 C  pz              174     12.009674  11 C  s         


 center of mass
 --------------
 x =  -0.01116476 y =  -0.06648420 z =   0.01657319

 moments of inertia (a.u.)
 ------------------
        7554.457674299000          -0.000000000002          -0.000000000001
          -0.000000000002        1324.693214066521          -0.000000000002
          -0.000000000001          -0.000000000002        7946.157955976900

  Mulliken analysis of the total density
  --------------------------------------

    Atom       Charge   Shell Charges
 -----------   ------   -------------------------------------------------------
    1 H    1     0.98   0.76  0.23  0.01  0.03 -0.05
    2 C    6     6.43   2.01  0.66  0.27  0.25  2.06  1.04 -0.04  0.06  0.11
    3 H    1     0.82   0.76  0.09  0.00  0.03 -0.06
    4 H    1     0.84   0.76  0.11  0.00  0.03 -0.06
    5 C    6     5.06   2.01  0.68  0.10 -0.11  1.89  0.30 -0.09  0.24  0.03
    6 O    8     8.71   2.01  0.82  0.99  0.15  2.79  1.82  0.14  0.01 -0.02
    7 N    7     7.52   2.01  0.72  0.85 -0.08  2.46  1.45  0.01  0.05  0.05
    8 H    1     1.02   0.75  0.24 -0.00  0.06 -0.03
    9 C    6     6.48   2.01  0.66  0.16  0.03  2.00  1.44 -0.10  0.14  0.16
   10 H    1     1.11   0.78  0.30 -0.00  0.03 -0.00
   11 C    6     5.60   2.01  0.67  0.18  0.18  2.04  0.44  0.01  0.07  0.00
   12 H    1     0.89   0.78  0.14  0.01  0.03 -0.07
   13 H    1     1.02   0.76  0.29  0.00  0.03 -0.06
   14 H    1     0.88   0.77  0.15  0.00  0.03 -0.08
   15 C    6     4.63   2.01  0.68 -0.04  0.08  1.88  0.10 -0.03  0.23 -0.28
   16 O    8     8.91   2.01  0.82  1.03  0.19  2.79  1.89  0.17  0.01 -0.00
   17 N    7     7.64   2.01  0.72  0.86 -0.07  2.44  1.49  0.09  0.05  0.05
   18 H    1     0.97   0.76  0.22 -0.03  0.05 -0.04
   19 C    6     6.26   2.01  0.67 -0.01 -0.01  2.00  1.37  0.03  0.13  0.07
   20 H    1     0.99   0.78  0.17 -0.01  0.03  0.02
   21 C    6     5.16   2.01  0.66  0.17  0.03  1.96  0.23 -0.03  0.14 -0.01
   22 H    1     1.03   0.79  0.30  0.00  0.03 -0.09
   23 H    1     0.99   0.79  0.20  0.02  0.03 -0.04
   24 O    8     8.61   2.01  0.80  0.96  0.04  2.82  1.89  0.10  0.01 -0.03
   25 H    1     0.86   0.70  0.06 -0.00  0.08  0.03
   26 C    6     4.64   2.01  0.68  0.02  0.08  1.89 -0.08 -0.04  0.24 -0.16
   27 O    8     8.80   2.01  0.82  1.03  0.16  2.80  1.85  0.14  0.02 -0.00
   28 N    7     7.25   2.01  0.72  0.84 -0.16  2.46  1.27  0.08  0.04 -0.02
   29 H    1     1.02   0.75  0.24 -0.00  0.05 -0.03
   30 H    1     0.89   0.73  0.20 -0.02  0.06 -0.07

       Multipole analysis of the density wrt the origin
       ------------------------------------------------

     L   x y z        total         open         nuclear
     -   - - -        -----         ----         -------
     0   0 0 0     -0.000000      0.000000    116.000000

     1   1 0 0      0.946096      0.000000      0.000000
     1   0 1 0      0.880000      0.000000      0.000000
     1   0 0 1     -0.043534      0.000000     -0.000000

     2   2 0 0    -65.803778      0.000000    485.549066
     2   1 1 0      5.195350      0.000000     28.671275
     2   1 0 1      0.723967      0.000000      0.598604
     2   0 2 0    -88.350324      0.000000   3818.380290
     2   0 1 1      6.913957      0.000000     18.004970
     2   0 0 2    -67.711506      0.000000    282.705031


 Task  times  cpu:     3036.2s     wall:     3192.0s


                                NWChem Input Module
                                -------------------


 Summary of allocated global arrays
-----------------------------------
  No active global arrays


MA_summarize_allocated_blocks: starting scan ...
MA_summarize_allocated_blocks: scan completed: 0 heap blocks, 0 stack blocks
MA usage statistics:

	allocation statistics:
					      heap	     stack
					      ----	     -----
	current number of blocks	         0	         0
	maximum number of blocks	        16	        14
	current total bytes		         0	         0
	maximum total bytes		    107296	  24874808
	maximum total K-bytes		       108	     24875
	maximum total M-bytes		         1	        25


                                     CITATION
                                     --------
                Please cite the following reference when publishing
                           results obtained with NWChem:

          E. Apra, E. J. Bylaska, W. A. de Jong, N. Govind, K. Kowalski,
       T. P. Straatsma, M. Valiev, H. J. J. van Dam, Y. Alexeev, J. Anchell,
       V. Anisimov, F. W. Aquino, R. Atta-Fynn, J. Autschbach, N. P. Bauman,
     J. C. Becca, D. E. Bernholdt, K. Bhaskaran-Nair, S. Bogatko, P. Borowski,
         J. Boschen, J. Brabec, A. Bruner, E. Cauet, Y. Chen, G. N. Chuev,
      C. J. Cramer, J. Daily, M. J. O. Deegan, T. H. Dunning Jr., M. Dupuis,
   K. G. Dyall, G. I. Fann, S. A. Fischer, A. Fonari, H. Fruchtl, L. Gagliardi,
      J. Garza, N. Gawande, S. Ghosh, K. Glaesemann, A. W. Gotz, J. Hammond,
       V. Helms, E. D. Hermes, K. Hirao, S. Hirata, M. Jacquelin, L. Jensen,
   B. G. Johnson, H. Jonsson, R. A. Kendall, M. Klemm, R. Kobayashi, V. Konkov,
      S. Krishnamoorthy, M. Krishnan, Z. Lin, R. D. Lins, R. J. Littlefield,
      A. J. Logsdail, K. Lopata, W. Ma, A. V. Marenich, J. Martin del Campo,
   D. Mejia-Rodriguez, J. E. Moore, J. M. Mullin, T. Nakajima, D. R. Nascimento,
    J. A. Nichols, P. J. Nichols, J. Nieplocha, A. Otero-de-la-Roza, B. Palmer,
    A. Panyala, T. Pirojsirikul, B. Peng, R. Peverati, J. Pittner, L. Pollack,
   R. M. Richard, P. Sadayappan, G. C. Schatz, W. A. Shelton, D. W. Silverstein,
   D. M. A. Smith, T. A. Soares, D. Song, M. Swart, H. L. Taylor, G. S. Thomas,
            V. Tipparaju, D. G. Truhlar, K. Tsemekhman, T. Van Voorhis,
      A. Vazquez-Mayagoitia, P. Verma, O. Villa, A. Vishnu, K. D. Vogiatzis,
        D. Wang, J. H. Weare, M. J. Williamson, T. L. Windus, K. Wolinski,
        A. T. Wong, Q. Wu, C. Yang, Q. Yu, M. Zacharias, Z. Zhang, Y. Zhao,
                                and R. J. Harrison
                        "NWChem: Past, present, and future
                         J. Chem. Phys. 152, 184102 (2020)
                               doi:10.1063/5.0004997

                                      AUTHORS
                                      -------
  E. Apra, E. J. Bylaska, N. Govind, K. Kowalski, M. Valiev, D. Mejia-Rodriguez,
       A. Kunitsa, N. P. Bauman, A. Panyala, W. A. de Jong, T. P. Straatsma,
   H. J. J. van Dam, D. Wang, T. L. Windus, J. Hammond, J. Autschbach, A. Woods,
    K. Bhaskaran-Nair, J. Brabec, K. Lopata, S. A. Fischer, S. Krishnamoorthy,
     M. Jacquelin, W. Ma, M. Klemm, O. Villa, Y. Chen, V. Anisimov, F. Aquino,
     S. Hirata, M. T. Hackler, E. Hermes, L. Jensen, J. E. Moore, J. C. Becca,
      V. Konjkov, T. Risthaus, M. Malagoli, A. Marenich, A. Otero-de-la-Roza,
        J. Mullin, P. Nichols, R. Peverati, J. Pittner, Y. Zhao, P.-D. Fan,
        A. Fonari, M. J. Williamson, R. J. Harrison, J. R. Rehr, M. Dupuis,
     D. Silverstein, D. M. A. Smith, J. Nieplocha, V. Tipparaju, M. Krishnan,
     B. E. Van Kuiken, A. Vazquez-Mayagoitia, M. Swart, Q. Wu, T. Van Voorhis,
     A. A. Auer, M. Nooijen, L. D. Crosby, E. Brown, G. Cisneros, G. I. Fann,
   H. Fruchtl, J. Garza, K. Hirao, R. A. Kendall, J. A. Nichols, K. Tsemekhman,
    K. Wolinski, J. Anchell, D. E. Bernholdt, P. Borowski, T. Clark, D. Clerc,
   H. Dachsel, M. J. O. Deegan, K. Dyall, D. Elwood, E. Glendening, M. Gutowski,
   A. C. Hess, J. Jaffe, B. G. Johnson, J. Ju, R. Kobayashi, R. Kutteh, Z. Lin,
   R. Littlefield, X. Long, B. Meng, T. Nakajima, S. Niu, L. Pollack, M. Rosing,
   K. Glaesemann, G. Sandrone, M. Stave, H. Taylor, G. Thomas, J. H. van Lenthe,
                               A. T. Wong, Z. Zhang.

 Total times  cpu:     3036.2s     wall:     3192.9s
