export TMOUT=5400
export TMPDIR=/tmp
export PTMPDIR=/tmp/ptmp
 argument  1 = ALA_TYR_2.nw
                                         
                                         


             Northwest Computational Chemistry Package (NWChem) 7.2.0
             --------------------------------------------------------


                    Environmental Molecular Sciences Laboratory
                       Pacific Northwest National Laboratory
                                Richland, WA 99352

                              Copyright (c) 1994-2022
                       Pacific Northwest National Laboratory
                            Battelle Memorial Institute

             NWChem is an open-source computational chemistry package
                        distributed under the terms of the
                      Educational Community License (ECL) 2.0
             A copy of the license is included with this distribution
                              in the LICENSE.TXT file

                                  ACKNOWLEDGMENT
                                  --------------

            This software and its documentation were developed at the
            EMSL at Pacific Northwest National Laboratory, a multiprogram
            national laboratory, operated for the U.S. Department of Energy
            by Battelle under Contract Number DE-AC05-76RL01830. Support
            for this work was provided by the Department of Energy Office
            of Biological and Environmental Research, Office of Basic
            Energy Sciences, and the Office of Advanced Scientific Computing.


           Job information
           ---------------

    hostname        = nova18-wide-39
    program         = /opt/rit/el9/20230413/app/linux-rhel9-x86_64_v3/gcc-11.2.1/nwchem-7.2.0-oxtctbuhfuzyfaoziquq6bki22grib3g/bin/nwchem
    date            = Mon Jun 30 21:18:22 2025

    compiled        = Wed_May_17_23:46:39_2023
    source          = /tmp/root/spack-stage/spack-stage-nwchem-7.2.0-oxtctbuhfuzyfaoziquq6bki22grib3g/spack-src
    nwchem branch   = 7.2.0
    nwchem revision = d0d141fd
    ga revision     = 5.8.0
    use scalapack   = T
    input           = ALA_TYR_2.nw
    prefix          = ALA_TYR_2.
    data base       = ./ALA_TYR_2.db
    status          = startup
    nproc           =        1
    time left       =     -1s



           Memory information
           ------------------

    heap     =   26214396 doubles =    200.0 Mbytes
    stack    =   26214401 doubles =    200.0 Mbytes
    global   =   52428800 doubles =    400.0 Mbytes (distinct from heap & stack)
    total    =  104857597 doubles =    800.0 Mbytes
    verify   = yes
    hardfail = no 


           Directory information
           ---------------------

  0 permanent = .
  0 scratch   = .




                                NWChem Input Module
                                -------------------



 Scaling coordinates for geometry "geometry" by  1.889725989
 (inverse scale =  0.529177249)

 C1  symmetry detected

          ------
          auto-z
          ------
  no constraints, skipping    0.0000000000000000     
  no constraints, skipping    0.0000000000000000     


                             Geometry "geometry" -> ""
                             -------------------------

 Output coordinates in angstroms (scale by  1.889725989 to convert to a.u.)

  No.       Tag          Charge          X              Y              Z
 ---- ---------------- ---------- -------------- -------------- --------------
    1 H                    1.0000     2.18255637    -2.55134210     2.07515157
    2 C                    6.0000     2.58266034    -2.14324905     1.14754449
    3 H                    1.0000     2.14455611    -2.66916847     0.30042795
    4 H                    1.0000     3.66434100    -2.25873337     1.13699409
    5 C                    6.0000     2.23214582    -0.67746104     1.06458012
    6 O                    8.0000     1.62633925    -0.13225394     1.97846666
    7 N                    7.0000     2.61384192    -0.03416008    -0.03697922
    8 H                    1.0000     3.08477295    -0.56870169    -0.74783661
    9 C                    6.0000     2.45136160     1.40475787    -0.27652310
   10 H                    1.0000     2.70927387     1.92365115     0.64777178
   11 C                    6.0000     3.47526602     1.82344158    -1.34233954
   12 H                    1.0000     3.44456380     2.90603609    -1.47585920
   13 H                    1.0000     4.48081916     1.53978419    -1.02781392
   14 H                    1.0000     3.24220102     1.34430778    -2.29428938
   15 C                    6.0000     0.99976453     1.83251020    -0.61946463
   16 O                    8.0000     0.77310921     2.59832219    -1.55468512
   17 N                    7.0000     0.00712293     1.33156835     0.12066909
   18 H                    1.0000     0.27208175     0.72687310     0.89084340
   19 C                    6.0000    -1.43254473     1.53416789    -0.11171516
   20 H                    1.0000    -1.60345001     1.45013595    -1.18499798
   21 C                    6.0000    -2.21645167     0.39740587     0.56808996
   22 H                    1.0000    -2.13863418     0.51714973     1.64957776
   23 H                    1.0000    -3.27077348     0.49015229     0.30475630
   24 C                    6.0000    -1.75966192    -1.00078129     0.18728317
   25 C                    6.0000    -1.10390298    -1.81566518     1.13161545
   26 H                    1.0000    -0.92126264    -1.44590626     2.13329946
   27 C                    6.0000    -0.68265480    -3.11039535     0.77504602
   28 H                    1.0000    -0.18708254    -3.74455884     1.49472220
   29 C                    6.0000    -0.90659998    -3.59138461    -0.53044503
   30 O                    8.0000    -0.48316852    -4.83636763    -0.87084489
   31 H                    1.0000    -0.81172698    -5.10450491    -1.73021253
   32 C                    6.0000    -1.56119172    -2.77640630    -1.47974004
   33 H                    1.0000    -1.73590330    -3.14048522    -2.48005570
   34 C                    6.0000    -1.98814326    -1.48425187    -1.11670244
   35 H                    1.0000    -2.49557588    -0.86007294    -1.83875356
   36 C                    6.0000    -1.95466921     2.93364954     0.29223676
   37 O                    8.0000    -3.03827027     3.07896391     0.84635361
   38 N                    7.0000    -1.19634595     3.99421921     0.05209765
   39 H                    1.0000    -0.33180941     3.87619482    -0.45751084
   40 H                    1.0000    -1.53762533     4.90045033     0.32215423

      Atomic Mass 
      ----------- 

      H                  1.007825
      C                 12.000000
      O                 15.994910
      N                 14.003070


 Effective nuclear repulsion energy (a.u.)    1760.1873558018

            Nuclear Dipole moment (a.u.) 
            ----------------------------
        X                 Y               Z
 ---------------- ---------------- ----------------
    -0.0000000000    -0.0000000000     0.0000000000



                                Z-matrix (autoz)
                                -------- 

 Units are Angstrom for bonds and degrees for angles

      Type          Name      I     J     K     L     M      Value
      ----------- --------  ----- ----- ----- ----- ----- ----------
    1 Stretch                  1     2                       1.08953
    2 Stretch                  2     3                       1.08910
    3 Stretch                  2     4                       1.08788
    4 Stretch                  2     5                       1.50940
    5 Stretch                  5     6                       1.22452
    6 Stretch                  5     7                       1.33153
    7 Stretch                  7     8                       1.00639
    8 Stretch                  7     9                       1.46774
    9 Stretch                  9    10                       1.09091
   10 Stretch                  9    11                       1.53611
   11 Stretch                  9    15                       1.55168
   12 Stretch                 11    12                       1.09123
   13 Stretch                 11    13                       1.09111
   14 Stretch                 11    14                       1.09092
   15 Stretch                 15    16                       1.22983
   16 Stretch                 15    17                       1.33569
   17 Stretch                 17    18                       1.01441
   18 Stretch                 17    19                       1.47231
   19 Stretch                 19    20                       1.09005
   20 Stretch                 19    21                       1.53911
   21 Stretch                 19    36                       1.54737
   22 Stretch                 21    22                       1.09088
   23 Stretch                 21    23                       1.09066
   24 Stretch                 21    24                       1.51941
   25 Stretch                 24    25                       1.40919
   26 Stretch                 24    34                       1.40937
   27 Stretch                 25    26                       1.08326
   28 Stretch                 25    27                       1.40745
   29 Stretch                 27    28                       1.07967
   30 Stretch                 27    29                       1.40919
   31 Stretch                 29    30                       1.35836
   32 Stretch                 29    32                       1.41203
   33 Stretch                 30    31                       0.95831
   34 Stretch                 32    33                       1.07875
   35 Stretch                 32    34                       1.40846
   36 Stretch                 34    35                       1.08095
   37 Stretch                 36    37                       1.22571
   38 Stretch                 36    38                       1.32572
   39 Stretch                 38    39                       1.01047
   40 Stretch                 38    40                       1.00531
   41 Bend                     1     2     3               109.48888
   42 Bend                     1     2     4               109.48918
   43 Bend                     1     2     5               108.98106
   44 Bend                     2     5     6               120.41399
   45 Bend                     2     5     7               116.62030
   46 Bend                     3     2     4               109.94795
   47 Bend                     3     2     5               109.43736
   48 Bend                     4     2     5               109.47855
   49 Bend                     5     7     8               117.50827
   50 Bend                     5     7     9               125.23476
   51 Bend                     6     5     7               122.96571
   52 Bend                     7     9    10               107.56930
   53 Bend                     7     9    11               107.85796
   54 Bend                     7     9    15               114.19778
   55 Bend                     8     7     9               117.20896
   56 Bend                     9    11    12               109.66660
   57 Bend                     9    11    13               110.08556
   58 Bend                     9    11    14               110.08062
   59 Bend                     9    15    16               120.80642
   60 Bend                     9    15    17               117.99376
   61 Bend                    10     9    11               107.49595
   62 Bend                    10     9    15               106.09937
   63 Bend                    11     9    15               113.27084
   64 Bend                    12    11    13               108.60935
   65 Bend                    12    11    14               108.84121
   66 Bend                    13    11    14               109.52697
   67 Bend                    15    17    18               116.75393
   68 Bend                    15    17    19               125.98837
   69 Bend                    16    15    17               121.19504
   70 Bend                    17    19    20               107.34423
   71 Bend                    17    19    21               109.06761
   72 Bend                    17    19    36               114.40590
   73 Bend                    18    17    19               117.21091
   74 Bend                    19    21    22               108.69191
   75 Bend                    19    21    23               108.83866
   76 Bend                    19    21    24               114.57201
   77 Bend                    19    36    37               121.57082
   78 Bend                    19    36    38               118.89721
   79 Bend                    20    19    21               107.34351
   80 Bend                    20    19    36               105.89414
   81 Bend                    21    19    36               112.38505
   82 Bend                    21    24    25               120.27008
   83 Bend                    21    24    34               119.92208
   84 Bend                    22    21    23               107.39695
   85 Bend                    22    21    24               109.14966
   86 Bend                    23    21    24               107.96042
   87 Bend                    24    25    26               120.04858
   88 Bend                    24    25    27               120.09640
   89 Bend                    24    34    32               120.26853
   90 Bend                    24    34    35               119.73908
   91 Bend                    25    24    34               119.80750
   92 Bend                    25    27    28               120.58616
   93 Bend                    25    27    29               120.07448
   94 Bend                    26    25    27               119.85491
   95 Bend                    27    29    30               119.69953
   96 Bend                    27    29    32               119.96618
   97 Bend                    28    27    29               119.33935
   98 Bend                    29    30    31               111.98076
   99 Bend                    29    32    33               120.24460
  100 Bend                    29    32    34               119.78511
  101 Bend                    30    29    32               120.33313
  102 Bend                    32    34    35               119.99220
  103 Bend                    33    32    34               119.97026
  104 Bend                    36    38    39               119.16397
  105 Bend                    36    38    40               118.57488
  106 Bend                    37    36    38               119.52068
  107 Bend                    39    38    40               122.08748
  108 Torsion                  1     2     5     6           2.05425
  109 Torsion                  1     2     5     7        -177.92513
  110 Torsion                  2     5     7     8           1.64599
  111 Torsion                  2     5     7     9        -175.75517
  112 Torsion                  3     2     5     6         121.75761
  113 Torsion                  3     2     5     7         -58.22177
  114 Torsion                  4     2     5     6        -117.67409
  115 Torsion                  4     2     5     7          62.34653
  116 Torsion                  5     7     9    10          42.12825
  117 Torsion                  5     7     9    11         157.80690
  118 Torsion                  5     7     9    15         -75.33474
  119 Torsion                  6     5     7     8        -178.33281
  120 Torsion                  6     5     7     9           4.26603
  121 Torsion                  7     9    11    12        -174.71285
  122 Torsion                  7     9    11    13         -55.27279
  123 Torsion                  7     9    11    14          65.56464
  124 Torsion                  7     9    15    16        -134.08558
  125 Torsion                  7     9    15    17          45.12858
  126 Torsion                  8     7     9    10        -135.27992
  127 Torsion                  8     7     9    11         -19.60128
  128 Torsion                  8     7     9    15         107.25709
  129 Torsion                  9    15    17    18           2.41706
  130 Torsion                  9    15    17    19        -175.01407
  131 Torsion                 10     9    11    12         -58.98607
  132 Torsion                 10     9    11    13          60.45399
  133 Torsion                 10     9    11    14        -178.70857
  134 Torsion                 10     9    15    16         107.61080
  135 Torsion                 10     9    15    17         -73.17504
  136 Torsion                 11     9    15    16         -10.08305
  137 Torsion                 11     9    15    17         169.13111
  138 Torsion                 12    11     9    15          57.89042
  139 Torsion                 13    11     9    15         177.33048
  140 Torsion                 14    11     9    15         -61.83209
  141 Torsion                 15    17    19    20          41.84700
  142 Torsion                 15    17    19    21         157.84753
  143 Torsion                 15    17    19    36         -75.33184
  144 Torsion                 16    15    17    18        -178.37199
  145 Torsion                 16    15    17    19           4.19688
  146 Torsion                 17    19    21    22          69.34363
  147 Torsion                 17    19    21    23        -173.98111
  148 Torsion                 17    19    21    24         -53.03308
  149 Torsion                 17    19    36    37        -139.85647
  150 Torsion                 17    19    36    38          38.91509
  151 Torsion                 18    17    19    20        -135.57367
  152 Torsion                 18    17    19    21         -19.57314
  153 Torsion                 18    17    19    36         107.24749
  154 Torsion                 19    21    24    25         110.60800
  155 Torsion                 19    21    24    34         -69.18024
  156 Torsion                 19    36    38    39           5.09516
  157 Torsion                 19    36    38    40        -179.59302
  158 Torsion                 20    19    21    22        -174.65538
  159 Torsion                 20    19    21    23         -57.98012
  160 Torsion                 20    19    21    24          62.96791
  161 Torsion                 20    19    36    37         102.13650
  162 Torsion                 20    19    36    38         -79.09194
  163 Torsion                 21    19    36    37         -14.76681
  164 Torsion                 21    19    36    38         164.00475
  165 Torsion                 21    24    25    26          -0.13548
  166 Torsion                 21    24    25    27         179.98232
  167 Torsion                 21    24    34    32         179.64788
  168 Torsion                 21    24    34    35          -0.51017
  169 Torsion                 22    21    19    36         -58.62093
  170 Torsion                 22    21    24    25         -11.52005
  171 Torsion                 22    21    24    34         168.69171
  172 Torsion                 23    21    19    36          58.05432
  173 Torsion                 23    21    24    25        -127.96137
  174 Torsion                 23    21    24    34          52.25039
  175 Torsion                 24    21    19    36         179.00236
  176 Torsion                 24    25    27    28        -179.47450
  177 Torsion                 24    25    27    29           0.48155
  178 Torsion                 24    34    32    29           0.25862
  179 Torsion                 24    34    32    33        -179.81409
  180 Torsion                 25    24    34    32          -0.14135
  181 Torsion                 25    24    34    35         179.70060
  182 Torsion                 25    27    29    30         179.24511
  183 Torsion                 25    27    29    32          -0.36324
  184 Torsion                 26    25    24    34         179.65300
  185 Torsion                 26    25    27    28           0.64307
  186 Torsion                 26    25    27    29        -179.40088
  187 Torsion                 27    25    24    34          -0.22920
  188 Torsion                 27    29    30    31         170.87785
  189 Torsion                 27    29    32    33        -179.93340
  190 Torsion                 27    29    32    34          -0.00631
  191 Torsion                 28    27    29    30          -0.79829
  192 Torsion                 28    27    29    32         179.59336
  193 Torsion                 29    32    34    35        -179.58293
  194 Torsion                 30    29    32    33           0.46076
  195 Torsion                 30    29    32    34        -179.61215
  196 Torsion                 31    30    29    32          -9.51527
  197 Torsion                 33    32    34    35           0.34436
  198 Torsion                 37    36    38    39        -176.10761
  199 Torsion                 37    36    38    40          -0.79579


            XYZ format geometry
            -------------------
    40
 geometry
 H                     2.18255637    -2.55134210     2.07515157
 C                     2.58266034    -2.14324905     1.14754449
 H                     2.14455611    -2.66916847     0.30042795
 H                     3.66434100    -2.25873337     1.13699409
 C                     2.23214582    -0.67746104     1.06458012
 O                     1.62633925    -0.13225394     1.97846666
 N                     2.61384192    -0.03416008    -0.03697922
 H                     3.08477295    -0.56870169    -0.74783661
 C                     2.45136160     1.40475787    -0.27652310
 H                     2.70927387     1.92365115     0.64777178
 C                     3.47526602     1.82344158    -1.34233954
 H                     3.44456380     2.90603609    -1.47585920
 H                     4.48081916     1.53978419    -1.02781392
 H                     3.24220102     1.34430778    -2.29428938
 C                     0.99976453     1.83251020    -0.61946463
 O                     0.77310921     2.59832219    -1.55468512
 N                     0.00712293     1.33156835     0.12066909
 H                     0.27208175     0.72687310     0.89084340
 C                    -1.43254473     1.53416789    -0.11171516
 H                    -1.60345001     1.45013595    -1.18499798
 C                    -2.21645167     0.39740587     0.56808996
 H                    -2.13863418     0.51714973     1.64957776
 H                    -3.27077348     0.49015229     0.30475630
 C                    -1.75966192    -1.00078129     0.18728317
 C                    -1.10390298    -1.81566518     1.13161545
 H                    -0.92126264    -1.44590626     2.13329946
 C                    -0.68265480    -3.11039535     0.77504602
 H                    -0.18708254    -3.74455884     1.49472220
 C                    -0.90659998    -3.59138461    -0.53044503
 O                    -0.48316852    -4.83636763    -0.87084489
 H                    -0.81172698    -5.10450491    -1.73021253
 C                    -1.56119172    -2.77640630    -1.47974004
 H                    -1.73590330    -3.14048522    -2.48005570
 C                    -1.98814326    -1.48425187    -1.11670244
 H                    -2.49557588    -0.86007294    -1.83875356
 C                    -1.95466921     2.93364954     0.29223676
 O                    -3.03827027     3.07896391     0.84635361
 N                    -1.19634595     3.99421921     0.05209765
 H                    -0.33180941     3.87619482    -0.45751084
 H                    -1.53762533     4.90045033     0.32215423

 ==============================================================================
                                internuclear distances
 ------------------------------------------------------------------------------
       center one      |      center two      | atomic units |  angstroms
 ------------------------------------------------------------------------------
    2 C                |   1 H                |     2.05892  |     1.08953
    3 H                |   2 C                |     2.05810  |     1.08910
    4 H                |   2 C                |     2.05579  |     1.08788
    5 C                |   2 C                |     2.85235  |     1.50940
    6 O                |   5 C                |     2.31400  |     1.22452
    7 N                |   5 C                |     2.51622  |     1.33153
    8 H                |   7 N                |     1.90181  |     1.00639
    9 C                |   7 N                |     2.77363  |     1.46774
   10 H                |   9 C                |     2.06153  |     1.09091
   11 C                |   9 C                |     2.90283  |     1.53611
   12 H                |  11 C                |     2.06212  |     1.09123
   13 H                |  11 C                |     2.06190  |     1.09111
   14 H                |  11 C                |     2.06153  |     1.09092
   15 C                |   9 C                |     2.93225  |     1.55168
   16 O                |  15 C                |     2.32404  |     1.22983
   17 N                |  15 C                |     2.52410  |     1.33569
   18 H                |  17 N                |     1.91696  |     1.01441
   19 C                |  17 N                |     2.78226  |     1.47231
   20 H                |  19 C                |     2.05989  |     1.09005
   21 C                |  19 C                |     2.90850  |     1.53911
   22 H                |  21 C                |     2.06146  |     1.09088
   23 H                |  21 C                |     2.06105  |     1.09066
   24 C                |  21 C                |     2.87126  |     1.51941
   25 C                |  24 C                |     2.66298  |     1.40919
   26 H                |  25 C                |     2.04706  |     1.08326
   27 C                |  25 C                |     2.65970  |     1.40745
   28 H                |  27 C                |     2.04028  |     1.07967
   29 C                |  27 C                |     2.66298  |     1.40919
   30 O                |  29 C                |     2.56693  |     1.35836
   31 H                |  30 O                |     1.81095  |     0.95831
   32 C                |  29 C                |     2.66836  |     1.41203
   33 H                |  32 C                |     2.03855  |     1.07875
   34 C                |  24 C                |     2.66332  |     1.40937
   34 C                |  32 C                |     2.66160  |     1.40846
   35 H                |  34 C                |     2.04269  |     1.08095
   36 C                |  19 C                |     2.92410  |     1.54737
   37 O                |  36 C                |     2.31625  |     1.22571
   38 N                |  36 C                |     2.50524  |     1.32572
   39 H                |  38 N                |     1.90952  |     1.01047
   40 H                |  38 N                |     1.89977  |     1.00531
 ------------------------------------------------------------------------------
                         number of included internuclear distances:         40
 ==============================================================================



 ==============================================================================
                                 internuclear angles
 ------------------------------------------------------------------------------
        center 1       |       center 2       |       center 3       |  degrees
 ------------------------------------------------------------------------------
    1 H                |   2 C                |   3 H                |   109.49
    1 H                |   2 C                |   4 H                |   109.49
    1 H                |   2 C                |   5 C                |   108.98
    3 H                |   2 C                |   4 H                |   109.95
    3 H                |   2 C                |   5 C                |   109.44
    4 H                |   2 C                |   5 C                |   109.48
    2 C                |   5 C                |   6 O                |   120.41
    2 C                |   5 C                |   7 N                |   116.62
    6 O                |   5 C                |   7 N                |   122.97
    5 C                |   7 N                |   8 H                |   117.51
    5 C                |   7 N                |   9 C                |   125.23
    8 H                |   7 N                |   9 C                |   117.21
    7 N                |   9 C                |  10 H                |   107.57
    7 N                |   9 C                |  11 C                |   107.86
    7 N                |   9 C                |  15 C                |   114.20
   10 H                |   9 C                |  11 C                |   107.50
   10 H                |   9 C                |  15 C                |   106.10
   11 C                |   9 C                |  15 C                |   113.27
    9 C                |  11 C                |  12 H                |   109.67
    9 C                |  11 C                |  13 H                |   110.09
    9 C                |  11 C                |  14 H                |   110.08
   12 H                |  11 C                |  13 H                |   108.61
   12 H                |  11 C                |  14 H                |   108.84
   13 H                |  11 C                |  14 H                |   109.53
    9 C                |  15 C                |  16 O                |   120.81
    9 C                |  15 C                |  17 N                |   117.99
   16 O                |  15 C                |  17 N                |   121.20
   15 C                |  17 N                |  18 H                |   116.75
   15 C                |  17 N                |  19 C                |   125.99
   18 H                |  17 N                |  19 C                |   117.21
   17 N                |  19 C                |  20 H                |   107.34
   17 N                |  19 C                |  21 C                |   109.07
   17 N                |  19 C                |  36 C                |   114.41
   20 H                |  19 C                |  21 C                |   107.34
   20 H                |  19 C                |  36 C                |   105.89
   21 C                |  19 C                |  36 C                |   112.39
   19 C                |  21 C                |  22 H                |   108.69
   19 C                |  21 C                |  23 H                |   108.84
   19 C                |  21 C                |  24 C                |   114.57
   22 H                |  21 C                |  23 H                |   107.40
   22 H                |  21 C                |  24 C                |   109.15
   23 H                |  21 C                |  24 C                |   107.96
   21 C                |  24 C                |  25 C                |   120.27
   21 C                |  24 C                |  34 C                |   119.92
   25 C                |  24 C                |  34 C                |   119.81
   24 C                |  25 C                |  26 H                |   120.05
   24 C                |  25 C                |  27 C                |   120.10
   26 H                |  25 C                |  27 C                |   119.85
   25 C                |  27 C                |  28 H                |   120.59
   25 C                |  27 C                |  29 C                |   120.07
   28 H                |  27 C                |  29 C                |   119.34
   27 C                |  29 C                |  30 O                |   119.70
   27 C                |  29 C                |  32 C                |   119.97
   30 O                |  29 C                |  32 C                |   120.33
   29 C                |  30 O                |  31 H                |   111.98
   29 C                |  32 C                |  33 H                |   120.24
   29 C                |  32 C                |  34 C                |   119.79
   33 H                |  32 C                |  34 C                |   119.97
   24 C                |  34 C                |  32 C                |   120.27
   24 C                |  34 C                |  35 H                |   119.74
   32 C                |  34 C                |  35 H                |   119.99
   19 C                |  36 C                |  37 O                |   121.57
   19 C                |  36 C                |  38 N                |   118.90
   37 O                |  36 C                |  38 N                |   119.52
   36 C                |  38 N                |  39 H                |   119.16
   36 C                |  38 N                |  40 H                |   118.57
   39 H                |  38 N                |  40 H                |   122.09
 ------------------------------------------------------------------------------
                            number of included internuclear angles:         67
 ==============================================================================



  library name resolved from: environment
  library file name is: </opt/rit/el9/20230413/app/linux-rhel9-x86_64_v3/gcc-11.2.1/nwchem-7.2.0-oxtctbuhfuzyfaoziquq6bki22grib3g/share/nwchem/libraries/>
  


 Summary of "ao basis" -> "" (cartesian)
 ------------------------------------------------------------------------------
       Tag                 Description            Shells   Functions and Types
 ---------------- ------------------------------  ------  ---------------------
 *                        aug-cc-pvdz                 on all atoms 


                      Basis "ao basis" -> "ao basis" (cartesian)
                      -----
  H (Hydrogen)
  ------------
            Exponent  Coefficients 
       -------------- ---------------------------------------------------------
  1 S  1.30100000E+01  0.019685
  1 S  1.96200000E+00  0.137977
  1 S  4.44600000E-01  0.478148

  2 S  1.22000000E-01  1.000000

  3 S  2.97400000E-02  1.000000

  4 P  7.27000000E-01  1.000000

  5 P  1.41000000E-01  1.000000

  C (Carbon)
  ----------
            Exponent  Coefficients 
       -------------- ---------------------------------------------------------
  1 S  6.66500000E+03  0.000692
  1 S  1.00000000E+03  0.005329
  1 S  2.28000000E+02  0.027077
  1 S  6.47100000E+01  0.101718
  1 S  2.10600000E+01  0.274740
  1 S  7.49500000E+00  0.448564
  1 S  2.79700000E+00  0.285074
  1 S  5.21500000E-01  0.015204

  2 S  6.66500000E+03 -0.000146
  2 S  1.00000000E+03 -0.001154
  2 S  2.28000000E+02 -0.005725
  2 S  6.47100000E+01 -0.023312
  2 S  2.10600000E+01 -0.063955
  2 S  7.49500000E+00 -0.149981
  2 S  2.79700000E+00 -0.127262
  2 S  5.21500000E-01  0.544529

  3 S  1.59600000E-01  1.000000

  4 S  4.69000000E-02  1.000000

  5 P  9.43900000E+00  0.038109
  5 P  2.00200000E+00  0.209480
  5 P  5.45600000E-01  0.508557

  6 P  1.51700000E-01  1.000000

  7 P  4.04100000E-02  1.000000

  8 D  5.50000000E-01  1.000000

  9 D  1.51000000E-01  1.000000

  O (Oxygen)
  ----------
            Exponent  Coefficients 
       -------------- ---------------------------------------------------------
  1 S  1.17200000E+04  0.000710
  1 S  1.75900000E+03  0.005470
  1 S  4.00800000E+02  0.027837
  1 S  1.13700000E+02  0.104800
  1 S  3.70300000E+01  0.283062
  1 S  1.32700000E+01  0.448719
  1 S  5.02500000E+00  0.270952
  1 S  1.01300000E+00  0.015458

  2 S  1.17200000E+04 -0.000160
  2 S  1.75900000E+03 -0.001263
  2 S  4.00800000E+02 -0.006267
  2 S  1.13700000E+02 -0.025716
  2 S  3.70300000E+01 -0.070924
  2 S  1.32700000E+01 -0.165411
  2 S  5.02500000E+00 -0.116955
  2 S  1.01300000E+00  0.557368

  3 S  3.02300000E-01  1.000000

  4 S  7.89600000E-02  1.000000

  5 P  1.77000000E+01  0.043018
  5 P  3.85400000E+00  0.228913
  5 P  1.04600000E+00  0.508728

  6 P  2.75300000E-01  1.000000

  7 P  6.85600000E-02  1.000000

  8 D  1.18500000E+00  1.000000

  9 D  3.32000000E-01  1.000000

  N (Nitrogen)
  ------------
            Exponent  Coefficients 
       -------------- ---------------------------------------------------------
  1 S  9.04600000E+03  0.000700
  1 S  1.35700000E+03  0.005389
  1 S  3.09300000E+02  0.027406
  1 S  8.77300000E+01  0.103207
  1 S  2.85600000E+01  0.278723
  1 S  1.02100000E+01  0.448540
  1 S  3.83800000E+00  0.278238
  1 S  7.46600000E-01  0.015440

  2 S  9.04600000E+03 -0.000153
  2 S  1.35700000E+03 -0.001208
  2 S  3.09300000E+02 -0.005992
  2 S  8.77300000E+01 -0.024544
  2 S  2.85600000E+01 -0.067459
  2 S  1.02100000E+01 -0.158078
  2 S  3.83800000E+00 -0.121831
  2 S  7.46600000E-01  0.549003

  3 S  2.24800000E-01  1.000000

  4 S  6.12400000E-02  1.000000

  5 P  1.35500000E+01  0.039919
  5 P  2.91700000E+00  0.217169
  5 P  7.97300000E-01  0.510319

  6 P  2.18500000E-01  1.000000

  7 P  5.61100000E-02  1.000000

  8 D  8.17000000E-01  1.000000

  9 D  2.30000000E-01  1.000000



 Summary of "ao basis" -> "ao basis" (cartesian)
 ------------------------------------------------------------------------------
       Tag                 Description            Shells   Functions and Types
 ---------------- ------------------------------  ------  ---------------------
 H                        aug-cc-pvdz                5        9   3s2p
 C                        aug-cc-pvdz                9       25   4s3p2d
 O                        aug-cc-pvdz                9       25   4s3p2d
 N                        aug-cc-pvdz                9       25   4s3p2d


                                 NWChem SCF Module
                                 -----------------



  ao basis        = "ao basis"
  functions       =   696
  atoms           =    40
  closed shells   =    78
  open shells     =     0
  charge          =   0.00
  wavefunction    = RHF 
  input vectors   = atomic
  output vectors  = ./ALA_TYR_2.movecs
  use symmetry    = F
  symmetry adapt  = F


 Summary of "ao basis" -> "ao basis" (cartesian)
 ------------------------------------------------------------------------------
       Tag                 Description            Shells   Functions and Types
 ---------------- ------------------------------  ------  ---------------------
 H                        aug-cc-pvdz                5        9   3s2p
 C                        aug-cc-pvdz                9       25   4s3p2d
 O                        aug-cc-pvdz                9       25   4s3p2d
 N                        aug-cc-pvdz                9       25   4s3p2d



 Forming initial guess at       0.6s


 !! The overlap matrix has  14 vectors deemed linearly dependent with
    eigenvalues:
 9.54D-07 1.56D-06 1.70D-06 2.26D-06 2.89D-06 3.52D-06 3.96D-06 4.48D-06
 5.21D-06 6.60D-06 7.09D-06 7.75D-06 8.45D-06 9.53D-06


      Superposition of Atomic Density Guess
      -------------------------------------

 Sum of atomic energies:        -998.80105847

      Non-variational initial energy
      ------------------------------

 Total energy =   -1012.684354
 1-e energy   =   -4855.669367
 2-e energy   =    2082.797657
 HOMO         =      -0.254303
 LUMO         =      -0.024573


 Starting SCF solution at     932.8s



 ----------------------------------------------
         Quadratically convergent ROHF

 Convergence threshold     :          1.000E-04
 Maximum no. of iterations :           30
 Final Fock-matrix accuracy:          1.000E-10
 ----------------------------------------------


              iter       energy          gnorm     gmax       time
             ----- ------------------- --------- --------- --------
                 1    -1003.7868349888  2.56D+00  1.09D-01   1916.6
                 2    -1004.1453092587  9.21D-01  4.38D-02   3893.9
                 3    -1004.2177844440  6.55D-02  3.62D-03   6738.4
                 4    -1004.2184076304  2.06D-03  1.03D-04  11433.3
                 5    -1004.2184082255  5.59D-06  1.06D-06  17912.4


       Final RHF  results 
       ------------------ 

         Total SCF energy =  -1004.218408225530
      One-electron energy =  -4870.413570830713
      Two-electron energy =   2106.007806803432
 Nuclear repulsion energy =   1760.187355801751

        Time for solution =  16983.2s


             Final eigenvalues
             -----------------

              1      
    1  -20.6080
    2  -20.5451
    3  -20.5394
    4  -20.5119
    5  -15.6193
    6  -15.5960
    7  -15.5738
    8  -11.3745
    9  -11.3689
   10  -11.3465
   11  -11.3208
   12  -11.3126
   13  -11.2958
   14  -11.2568
   15  -11.2540
   16  -11.2533
   17  -11.2521
   18  -11.2500
   19  -11.2498
   20  -11.2477
   21  -11.2419
   22   -1.4211
   23   -1.4116
   24   -1.3989
   25   -1.3734
   26   -1.2679
   27   -1.2443
   28   -1.2021
   29   -1.1540
   30   -1.0786
   31   -1.0608
   32   -1.0252
   33   -1.0050
   34   -0.9991
   35   -0.9136
   36   -0.8893
   37   -0.8554
   38   -0.8287
   39   -0.8145
   40   -0.8024
   41   -0.7778
   42   -0.7456
   43   -0.7360
   44   -0.7290
   45   -0.7016
   46   -0.6882
   47   -0.6847
   48   -0.6731
   49   -0.6553
   50   -0.6440
   51   -0.6302
   52   -0.6179
   53   -0.6112
   54   -0.6015
   55   -0.5996
   56   -0.5970
   57   -0.5881
   58   -0.5839
   59   -0.5796
   60   -0.5712
   61   -0.5629
   62   -0.5507
   63   -0.5442
   64   -0.5425
   65   -0.5391
   66   -0.5225
   67   -0.5112
   68   -0.4983
   69   -0.4904
   70   -0.4758
   71   -0.4579
   72   -0.4420
   73   -0.4338
   74   -0.4083
   75   -0.3957
   76   -0.3859
   77   -0.3462
   78   -0.3121
   79    0.0224
   80    0.0294
   81    0.0379
   82    0.0417
   83    0.0472
   84    0.0498
   85    0.0524
   86    0.0591
   87    0.0608
   88    0.0671

                       ROHF Final Molecular Orbital Analysis
                       -------------------------------------

 Vector   22  Occ=2.000000D+00  E=-1.421141D+00
              MO Center= -6.0D-01, -4.6D+00, -9.2D-01, r^2= 6.0D-01
   Bfn.  Coefficient  Atom+Function         Bfn.  Coefficient  Atom+Function  
  ----- ------------  ---------------      ----- ------------  ---------------
   504      0.462665  30 O  s               503      0.409589  30 O  s         
   480     -0.230245  29 C  s               527      0.193810  31 H  s         
   538     -0.172421  32 C  s         

 Vector   23  Occ=2.000000D+00  E=-1.411644D+00
              MO Center=  1.8D+00,  2.9D-02,  1.2D+00, r^2= 2.4D+00
   Bfn.  Coefficient  Atom+Function         Bfn.  Coefficient  Atom+Function  
  ----- ------------  ---------------      ----- ------------  ---------------
    80      0.334876   6 O  s                79      0.325784   6 O  s         
    54      0.229159   5 C  s                12      0.191176   2 C  s         

 Vector   24  Occ=2.000000D+00  E=-1.398914D+00
              MO Center=  8.2D-01,  2.0D+00, -7.6D-01, r^2= 2.7D+00
   Bfn.  Coefficient  Atom+Function         Bfn.  Coefficient  Atom+Function  
  ----- ------------  ---------------      ----- ------------  ---------------
   250      0.352194  16 O  s               249      0.331312  16 O  s         
   224      0.222997  15 C  s         

 Vector   25  Occ=2.000000D+00  E=-1.373367D+00
              MO Center= -2.4D+00,  3.1D+00,  5.6D-01, r^2= 1.2D+00
   Bfn.  Coefficient  Atom+Function         Bfn.  Coefficient  Atom+Function  
  ----- ------------  ---------------      ----- ------------  ---------------
   631      0.372674  37 O  s               630      0.349490  37 O  s         
   605      0.243496  36 C  s         

 Vector   26  Occ=2.000000D+00  E=-1.267903D+00
              MO Center=  2.3D+00,  1.3D-01,  2.3D-01, r^2= 2.0D+00
   Bfn.  Coefficient  Atom+Function         Bfn.  Coefficient  Atom+Function  
  ----- ------------  ---------------      ----- ------------  ---------------
   105      0.391320   7 N  s               104      0.336230   7 N  s         
    80     -0.220800   6 O  s                79     -0.181412   6 O  s         
    59     -0.173784   5 C  pz              128      0.154913   8 H  s         

 Vector   27  Occ=2.000000D+00  E=-1.244314D+00
              MO Center=  2.8D-02,  1.5D+00, -8.5D-02, r^2= 2.4D+00
   Bfn.  Coefficient  Atom+Function         Bfn.  Coefficient  Atom+Function  
  ----- ------------  ---------------      ----- ------------  ---------------
   275      0.389062  17 N  s               274      0.333361  17 N  s         
   250     -0.202342  16 O  s               309     -0.165622  19 C  s         
   249     -0.158937  16 O  s         

 Vector   28  Occ=2.000000D+00  E=-1.202143D+00
              MO Center= -1.4D+00,  3.6D+00,  1.5D-01, r^2= 1.6D+00
   Bfn.  Coefficient  Atom+Function         Bfn.  Coefficient  Atom+Function  
  ----- ------------  ---------------      ----- ------------  ---------------
   656      0.393843  38 N  s               655      0.367661  38 N  s         
   631     -0.210444  37 O  s               630     -0.174700  37 O  s         
   608      0.170799  36 C  px              679      0.164722  39 H  s         
   688      0.157842  40 H  s         

 Vector   29  Occ=2.000000D+00  E=-1.154039D+00
              MO Center= -1.4D+00, -1.9D+00, -1.1D-01, r^2= 2.9D+00
   Bfn.  Coefficient  Atom+Function         Bfn.  Coefficient  Atom+Function  
  ----- ------------  ---------------      ----- ------------  ---------------
   385      0.203242  24 C  s               571      0.179621  34 C  s         
   410      0.177051  25 C  s               538      0.158360  32 C  s         
   537      0.156220  32 C  s               444      0.155284  27 C  s         

 Vector   30  Occ=2.000000D+00  E=-1.078573D+00
              MO Center=  1.2D+00,  4.8D-01, -1.1D-01, r^2= 8.1D+00
   Bfn.  Coefficient  Atom+Function         Bfn.  Coefficient  Atom+Function  
  ----- ------------  ---------------      ----- ------------  ---------------
   138      0.206340   9 C  s               172      0.154757  11 C  s         

 Vector   31  Occ=2.000000D+00  E=-1.060761D+00
              MO Center=  1.0D-02, -2.5D-01, -1.8D-02, r^2= 9.6D+00
   Bfn.  Coefficient  Atom+Function         Bfn.  Coefficient  Atom+Function  
  ----- ------------  ---------------      ----- ------------  ---------------
   538     -0.201330  32 C  s               342      0.193204  21 C  s         
   387     -0.159717  24 C  s         

 Vector   32  Occ=2.000000D+00  E=-1.025232D+00
              MO Center= -1.3D+00, -2.3D+00, -2.3D-01, r^2= 3.1D+00
   Bfn.  Coefficient  Atom+Function         Bfn.  Coefficient  Atom+Function  
  ----- ------------  ---------------      ----- ------------  ---------------
   446      0.313126  27 C  s               537      0.222751  32 C  s         
   539     -0.219438  32 C  s               444     -0.209548  27 C  s         
   410     -0.207105  25 C  s               571      0.206607  34 C  s         
   412      0.175649  25 C  s               469     -0.170942  28 H  s         
   562      0.155699  33 H  s         

 Vector   33  Occ=2.000000D+00  E=-1.004998D+00
              MO Center=  2.5D+00, -1.1D+00,  6.0D-01, r^2= 5.2D+00
   Bfn.  Coefficient  Atom+Function         Bfn.  Coefficient  Atom+Function  
  ----- ------------  ---------------      ----- ------------  ---------------
    11      0.316219   2 C  s                58     -0.168198   5 C  py        
    55      0.157392   5 C  s               172      0.151820  11 C  s         

 Vector   34  Occ=2.000000D+00  E=-9.990728D-01
              MO Center= -8.6D-01, -4.9D-01, -2.0D-01, r^2= 8.8D+00
   Bfn.  Coefficient  Atom+Function         Bfn.  Coefficient  Atom+Function  
  ----- ------------  ---------------      ----- ------------  ---------------
   308      0.207960  19 C  s               385     -0.171112  24 C  s         
   478      0.171518  29 C  s         

 Vector   35  Occ=2.000000D+00  E=-9.135799D-01
              MO Center=  5.5D-01,  4.3D-01, -2.9D-01, r^2= 1.1D+01
   Bfn.  Coefficient  Atom+Function         Bfn.  Coefficient  Atom+Function  
  ----- ------------  ---------------      ----- ------------  ---------------
   139      0.293432   9 C  s               144     -0.250815   9 C  px        
   225     -0.199746  15 C  s               342      0.190773  21 C  s         
   172     -0.187714  11 C  s               315     -0.172906  19 C  py        

 Vector   36  Occ=2.000000D+00  E=-8.892725D-01
              MO Center=  2.5D-01,  8.8D-01, -2.4D-01, r^2= 1.1D+01
   Bfn.  Coefficient  Atom+Function         Bfn.  Coefficient  Atom+Function  
  ----- ------------  ---------------      ----- ------------  ---------------
   315      0.219816  19 C  py              309      0.189445  19 C  s         
   139      0.178743   9 C  s               172     -0.163399  11 C  s         

 Vector   37  Occ=2.000000D+00  E=-8.553905D-01
              MO Center= -1.3D+00, -2.4D+00, -4.1D-01, r^2= 4.3D+00
   Bfn.  Coefficient  Atom+Function         Bfn.  Coefficient  Atom+Function  
  ----- ------------  ---------------      ----- ------------  ---------------
   539      0.405774  32 C  s               446     -0.222235  27 C  s         
   538     -0.215722  32 C  s               562     -0.207147  33 H  s         
   596      0.195218  35 H  s               483      0.189014  29 C  pz        
   412      0.177038  25 C  s               445      0.176585  27 C  s         
   537     -0.176873  32 C  s               571      0.176071  34 C  s         

 Vector   38  Occ=2.000000D+00  E=-8.286640D-01
              MO Center=  2.0D+00,  2.3D-01,  1.8D-01, r^2= 5.1D+00
   Bfn.  Coefficient  Atom+Function         Bfn.  Coefficient  Atom+Function  
  ----- ------------  ---------------      ----- ------------  ---------------
   109      0.286471   7 N  pz              139      0.222612   9 C  s         
   128     -0.210993   8 H  s                54      0.206814   5 C  s         
    56     -0.178857   5 C  s                80     -0.164382   6 O  s         
   309      0.160151  19 C  s         

 Vector   39  Occ=2.000000D+00  E=-8.145195D-01
              MO Center= -9.3D-01, -1.1D+00, -7.1D-02, r^2= 1.1D+01
   Bfn.  Coefficient  Atom+Function         Bfn.  Coefficient  Atom+Function  
  ----- ------------  ---------------      ----- ------------  ---------------
   309      0.192626  19 C  s               507      0.167717  30 O  py        
   446      0.154016  27 C  s         

 Vector   40  Occ=2.000000D+00  E=-8.024059D-01
              MO Center=  5.0D-01,  5.7D-01, -6.4D-02, r^2= 7.3D+00
   Bfn.  Coefficient  Atom+Function         Bfn.  Coefficient  Atom+Function  
  ----- ------------  ---------------      ----- ------------  ---------------
   309      0.185456  19 C  s               230     -0.180819  15 C  px        
   128      0.174850   8 H  s               144     -0.174565   9 C  px        
   279     -0.171241  17 N  pz              224      0.168548  15 C  s         
   277      0.167551  17 N  px              250     -0.159568  16 O  s         
   298     -0.159159  18 H  s               538     -0.154442  32 C  s         

 Vector   41  Occ=2.000000D+00  E=-7.777930D-01
              MO Center= -9.6D-01,  2.3D+00,  8.7D-02, r^2= 5.5D+00
   Bfn.  Coefficient  Atom+Function         Bfn.  Coefficient  Atom+Function  
  ----- ------------  ---------------      ----- ------------  ---------------
   225      0.233053  15 C  s               659      0.213358  38 N  py        
   298     -0.197551  18 H  s               279     -0.185669  17 N  pz        
   605     -0.184419  36 C  s               315     -0.180482  19 C  py        
   612     -0.171981  36 C  py              658      0.171106  38 N  px        
   679      0.163358  39 H  s               631      0.159810  37 O  s         

 Vector   42  Occ=2.000000D+00  E=-7.455521D-01
              MO Center= -1.1D+00, -3.1D+00, -4.8D-01, r^2= 5.2D+00
   Bfn.  Coefficient  Atom+Function         Bfn.  Coefficient  Atom+Function  
  ----- ------------  ---------------      ----- ------------  ---------------
   539      0.351127  32 C  s               508     -0.254607  30 O  pz        
   527      0.247026  31 H  s               482      0.225748  29 C  py        
   507     -0.212483  30 O  py              445      0.186116  27 C  s         
   446     -0.186585  27 C  s               434     -0.177159  26 H  s         
   435     -0.174931  26 H  s               576      0.150731  34 C  pz        

 Vector   43  Occ=2.000000D+00  E=-7.360229D-01
              MO Center=  6.6D-01,  1.8D+00, -2.4D-01, r^2= 7.5D+00
   Bfn.  Coefficient  Atom+Function         Bfn.  Coefficient  Atom+Function  
  ----- ------------  ---------------      ----- ------------  ---------------
   144      0.251068   9 C  px              225      0.213854  15 C  s         
   227     -0.200968  15 C  px              145     -0.182582   9 C  py        
   139     -0.178414   9 C  s               688     -0.170587  40 H  s         
   108      0.160950   7 N  py              252     -0.154175  16 O  px        

 Vector   44  Occ=2.000000D+00  E=-7.290364D-01
              MO Center= -3.4D-01,  2.2D+00,  2.1D-02, r^2= 7.0D+00
   Bfn.  Coefficient  Atom+Function         Bfn.  Coefficient  Atom+Function  
  ----- ------------  ---------------      ----- ------------  ---------------
   225      0.349083  15 C  s               658     -0.259461  38 N  px        
   139     -0.249603   9 C  s               679     -0.245550  39 H  s         
   144      0.240108   9 C  px              609      0.202557  36 C  py        
   314      0.181092  19 C  px              145     -0.165352   9 C  py        
   606      0.155674  36 C  s               279     -0.151211  17 N  pz        

 Vector   45  Occ=2.000000D+00  E=-7.015758D-01
              MO Center=  1.5D+00,  5.0D-02,  5.4D-01, r^2= 7.8D+00
   Bfn.  Coefficient  Atom+Function         Bfn.  Coefficient  Atom+Function  
  ----- ------------  ---------------      ----- ------------  ---------------
    18      0.207558   2 C  py               83     -0.191385   6 O  py        
    15      0.189785   2 C  py               55     -0.166911   5 C  s         
   314      0.158898  19 C  px               56     -0.156328   5 C  s         
    58     -0.153996   5 C  py               59      0.151529   5 C  pz        

 Vector   46  Occ=2.000000D+00  E=-6.882114D-01
              MO Center=  2.0D+00,  4.9D-01,  6.1D-01, r^2= 5.0D+00
   Bfn.  Coefficient  Atom+Function         Bfn.  Coefficient  Atom+Function  
  ----- ------------  ---------------      ----- ------------  ---------------
    80      0.220113   6 O  s                83      0.195382   6 O  py        
   142      0.187250   9 C  py               84      0.184468   6 O  pz        
    12     -0.177160   2 C  s               145      0.176042   9 C  py        
   162      0.172742  10 H  s               108     -0.159318   7 N  py        
    59     -0.152304   5 C  pz        

 Vector   47  Occ=2.000000D+00  E=-6.846977D-01
              MO Center= -1.2D+00, -9.4D-01, -2.0D-01, r^2= 1.1D+01
   Bfn.  Coefficient  Atom+Function         Bfn.  Coefficient  Atom+Function  
  ----- ------------  ---------------      ----- ------------  ---------------
   575     -0.186246  34 C  py              541      0.179227  32 C  py        
   407      0.154485  24 C  dyz       

 Vector   48  Occ=2.000000D+00  E=-6.730578D-01
              MO Center= -2.3D-01,  9.4D-01, -8.0D-02, r^2= 1.1D+01
   Bfn.  Coefficient  Atom+Function         Bfn.  Coefficient  Atom+Function  
  ----- ------------  ---------------      ----- ------------  ---------------
   314      0.206712  19 C  px              277     -0.170229  17 N  px        
   250     -0.166252  16 O  s               659     -0.151607  38 N  py        

 Vector   49  Occ=2.000000D+00  E=-6.553288D-01
              MO Center= -5.8D-01, -7.7D-02, -5.4D-01, r^2= 1.1D+01
   Bfn.  Coefficient  Atom+Function         Bfn.  Coefficient  Atom+Function  
  ----- ------------  ---------------      ----- ------------  ---------------
   539      0.222290  32 C  s               313      0.180987  19 C  pz        
   254      0.168252  16 O  pz              332     -0.166708  20 H  s         
   250     -0.154018  16 O  s         

 Vector   50  Occ=2.000000D+00  E=-6.440057D-01
              MO Center= -1.5D+00, -6.6D-01,  6.7D-03, r^2= 1.1D+01
   Bfn.  Coefficient  Atom+Function         Bfn.  Coefficient  Atom+Function  
  ----- ------------  ---------------      ----- ------------  ---------------
   561      0.210075  33 H  s               468      0.201937  28 H  s         
   542     -0.183280  32 C  pz              562      0.177740  33 H  s         
   539     -0.156724  32 C  s               609     -0.154483  36 C  py        
   659      0.153310  38 N  py        

 Vector   51  Occ=2.000000D+00  E=-6.301620D-01
              MO Center=  2.1D+00, -1.1D+00,  7.7D-01, r^2= 5.4D+00
   Bfn.  Coefficient  Atom+Function         Bfn.  Coefficient  Atom+Function  
  ----- ------------  ---------------      ----- ------------  ---------------
   139     -0.273900   9 C  s                14      0.265797   2 C  px        
    44      0.226967   4 H  s                35     -0.204887   3 H  s         
    82      0.178220   6 O  px               57      0.174372   5 C  px        

 Vector   52  Occ=2.000000D+00  E=-6.179234D-01
              MO Center= -1.1D+00, -1.5D+00, -1.6D-01, r^2= 8.8D+00
   Bfn.  Coefficient  Atom+Function         Bfn.  Coefficient  Atom+Function  
  ----- ------------  ---------------      ----- ------------  ---------------
   538      0.245479  32 C  s               595     -0.190840  35 H  s         
   414     -0.174898  25 C  py              576      0.174581  34 C  pz        
   349      0.171411  21 C  py              596     -0.167629  35 H  s         
   593     -0.166739  34 C  dyz             445     -0.163793  27 C  s         
   448      0.162912  27 C  py              506      0.161833  30 O  px        

 Vector   53  Occ=2.000000D+00  E=-6.111934D-01
              MO Center=  4.6D-01,  1.3D+00, -5.4D-01, r^2= 8.7D+00
   Bfn.  Coefficient  Atom+Function         Bfn.  Coefficient  Atom+Function  
  ----- ------------  ---------------      ----- ------------  ---------------
   254      0.243699  16 O  pz              253     -0.183640  16 O  py        
   229     -0.167220  15 C  pz              144      0.165825   9 C  px        
   250     -0.163797  16 O  s               139     -0.161804   9 C  s         
   298      0.162426  18 H  s         

 Vector   54  Occ=2.000000D+00  E=-6.014510D-01
              MO Center=  1.2D+00, -4.3D-01,  4.9D-01, r^2= 1.0D+01
   Bfn.  Coefficient  Atom+Function         Bfn.  Coefficient  Atom+Function  
  ----- ------------  ---------------      ----- ------------  ---------------
    84      0.264677   6 O  pz               58     -0.200185   5 C  py        
    15      0.179922   2 C  py              309     -0.167597  19 C  s         
   506      0.165610  30 O  px               80      0.160802   6 O  s         

 Vector   55  Occ=2.000000D+00  E=-5.995660D-01
              MO Center= -3.7D-01, -3.0D+00, -4.8D-01, r^2= 8.7D+00
   Bfn.  Coefficient  Atom+Function         Bfn.  Coefficient  Atom+Function  
  ----- ------------  ---------------      ----- ------------  ---------------
   506      0.380361  30 O  px              509      0.285738  30 O  px        
   480      0.163894  29 C  s               508     -0.160966  30 O  pz        
   481      0.157058  29 C  px        

 Vector   56  Occ=2.000000D+00  E=-5.970006D-01
              MO Center= -6.7D-01, -2.0D+00,  6.0D-02, r^2= 7.1D+00
   Bfn.  Coefficient  Atom+Function         Bfn.  Coefficient  Atom+Function  
  ----- ------------  ---------------      ----- ------------  ---------------
   446      0.243168  27 C  s               469     -0.220429  28 H  s         
   415     -0.214014  25 C  pz              542     -0.210399  32 C  pz        
   562      0.210339  33 H  s               539     -0.194379  32 C  s         
   434     -0.188738  26 H  s               561      0.188774  33 H  s         
   468     -0.184926  28 H  s               538     -0.175554  32 C  s         

 Vector   57  Occ=2.000000D+00  E=-5.881425D-01
              MO Center= -4.1D-01,  7.5D-01,  4.4D-01, r^2= 1.5D+01
   Bfn.  Coefficient  Atom+Function         Bfn.  Coefficient  Atom+Function  
  ----- ------------  ---------------      ----- ------------  ---------------
   633      0.266098  37 O  px                2     -0.224166   1 H  s         
   608     -0.205208  36 C  px              631     -0.181030  37 O  s         
    16     -0.155826   2 C  pz        

 Vector   58  Occ=2.000000D+00  E=-5.839409D-01
              MO Center=  1.1D+00, -3.0D-01,  5.6D-01, r^2= 1.3D+01
   Bfn.  Coefficient  Atom+Function         Bfn.  Coefficient  Atom+Function  
  ----- ------------  ---------------      ----- ------------  ---------------
     2      0.267771   1 H  s                16      0.247423   2 C  pz        
     1      0.236172   1 H  s               633      0.172829  37 O  px        
    56     -0.162501   5 C  s               176      0.163239  11 C  py        
   196      0.154216  12 H  s                13     -0.151622   2 C  s         

 Vector   59  Occ=2.000000D+00  E=-5.795903D-01
              MO Center= -6.8D-01, -9.5D-01, -1.3D-01, r^2= 1.2D+01
   Bfn.  Coefficient  Atom+Function         Bfn.  Coefficient  Atom+Function  
  ----- ------------  ---------------      ----- ------------  ---------------
   539      0.236967  32 C  s               507      0.192564  30 O  py        
   435     -0.186226  26 H  s               345      0.178333  21 C  px        
   376     -0.175222  23 H  s               317      0.171253  19 C  px        
   375     -0.157852  23 H  s               506     -0.151253  30 O  px        

 Vector   60  Occ=2.000000D+00  E=-5.711839D-01
              MO Center=  3.7D-01,  7.3D-01, -1.9D-01, r^2= 1.3D+01
   Bfn.  Coefficient  Atom+Function         Bfn.  Coefficient  Atom+Function  
  ----- ------------  ---------------      ----- ------------  ---------------
   139      0.200345   9 C  s               174     -0.193160  11 C  s         
   197      0.190438  12 H  s               175     -0.167364  11 C  px        
   539      0.163180  32 C  s               345     -0.160230  21 C  px        
   226      0.157416  15 C  s               205     -0.155340  13 H  s         

 Vector   61  Occ=2.000000D+00  E=-5.629316D-01
              MO Center=  8.8D-01,  1.1D+00, -7.0D-01, r^2= 1.2D+01
   Bfn.  Coefficient  Atom+Function         Bfn.  Coefficient  Atom+Function  
  ----- ------------  ---------------      ----- ------------  ---------------
    56      0.237893   5 C  s               174     -0.226107  11 C  s         
   214     -0.218509  14 H  s               197      0.199519  12 H  s         
   106     -0.176265   7 N  s               176      0.172433  11 C  py        
   309     -0.168412  19 C  s               177      0.164700  11 C  pz        
   225     -0.159995  15 C  s               215     -0.155504  14 H  s         

 Vector   62  Occ=2.000000D+00  E=-5.507148D-01
              MO Center=  1.7D+00,  3.3D-01,  1.5D-01, r^2= 9.9D+00
   Bfn.  Coefficient  Atom+Function         Bfn.  Coefficient  Atom+Function  
  ----- ------------  ---------------      ----- ------------  ---------------
   197      0.188475  12 H  s                14      0.186496   2 C  px        
   139      0.175935   9 C  s                 1     -0.171033   1 H  s         
    44      0.169106   4 H  s               176      0.163852  11 C  py        
    76      0.156321   5 C  dyz             196      0.152623  12 H  s         

 Vector   63  Occ=2.000000D+00  E=-5.442012D-01
              MO Center=  1.6D+00,  1.3D+00, -5.0D-01, r^2= 1.0D+01
   Bfn.  Coefficient  Atom+Function         Bfn.  Coefficient  Atom+Function  
  ----- ------------  ---------------      ----- ------------  ---------------
   206      0.258817  13 H  s               205      0.252341  13 H  s         
   175      0.211068  11 C  px              196     -0.186213  12 H  s         
   176     -0.175199  11 C  py              197     -0.167828  12 H  s         
    55      0.155643   5 C  s         

 Vector   64  Occ=2.000000D+00  E=-5.425387D-01
              MO Center=  4.5D-01,  2.3D-01,  3.0D-01, r^2= 1.3D+01
   Bfn.  Coefficient  Atom+Function         Bfn.  Coefficient  Atom+Function  
  ----- ------------  ---------------      ----- ------------  ---------------
   343      0.167423  21 C  s               276      0.165807  17 N  s         
    35      0.163499   3 H  s                82      0.163286   6 O  px        
   610     -0.155803  36 C  pz               45     -0.153105   4 H  s         

 Vector   65  Occ=2.000000D+00  E=-5.390611D-01
              MO Center=  1.3D-01,  2.2D-01,  1.4D-01, r^2= 1.2D+01
   Bfn.  Coefficient  Atom+Function         Bfn.  Coefficient  Atom+Function  
  ----- ------------  ---------------      ----- ------------  ---------------
   376     -0.190422  23 H  s               345      0.181419  21 C  px        
   375     -0.176695  23 H  s               106      0.174359   7 N  s         
   252     -0.154379  16 O  px              367      0.153217  22 H  s         

 Vector   66  Occ=2.000000D+00  E=-5.224766D-01
              MO Center=  2.2D+00,  1.5D+00, -5.6D-01, r^2= 5.2D+00
   Bfn.  Coefficient  Atom+Function         Bfn.  Coefficient  Atom+Function  
  ----- ------------  ---------------      ----- ------------  ---------------
   143      0.305193   9 C  pz              177     -0.279506  11 C  pz        
   162      0.259523  10 H  s               173     -0.241541  11 C  s         
   214      0.225318  14 H  s               174      0.223109  11 C  s         
   180     -0.222710  11 C  pz              178      0.203606  11 C  px        
   215      0.185351  14 H  s               253     -0.173833  16 O  py        

 Vector   67  Occ=2.000000D+00  E=-5.112270D-01
              MO Center= -1.3D+00, -4.5D-01,  3.1D-04, r^2= 9.2D+00
   Bfn.  Coefficient  Atom+Function         Bfn.  Coefficient  Atom+Function  
  ----- ------------  ---------------      ----- ------------  ---------------
   435      0.303026  26 H  s               349      0.247631  21 C  py        
   486      0.220369  29 C  pz              313      0.200172  19 C  pz        
   332     -0.191583  20 H  s               539     -0.187160  32 C  s         
   538      0.180949  32 C  s               483      0.177541  29 C  pz        
   367     -0.175577  22 H  s               393     -0.170113  24 C  pz        

 Vector   68  Occ=2.000000D+00  E=-4.983051D-01
              MO Center= -1.7D+00, -6.3D-01,  1.2D-01, r^2= 5.3D+00
   Bfn.  Coefficient  Atom+Function         Bfn.  Coefficient  Atom+Function  
  ----- ------------  ---------------      ----- ------------  ---------------
   389      0.299958  24 C  py              346     -0.254010  21 C  py        
   392      0.198351  24 C  py              541      0.175174  32 C  py        
   343      0.160529  21 C  s               347     -0.160552  21 C  pz        
   366     -0.161106  22 H  s               575     -0.157103  34 C  py        
   448      0.151593  27 C  py              445      0.150363  27 C  s         

 Vector   69  Occ=2.000000D+00  E=-4.903932D-01
              MO Center= -1.5D+00, -9.5D-01,  8.5D-02, r^2= 6.8D+00
   Bfn.  Coefficient  Atom+Function         Bfn.  Coefficient  Atom+Function  
  ----- ------------  ---------------      ----- ------------  ---------------
   539      0.305720  32 C  s               596      0.258179  35 H  s         
   367     -0.252356  22 H  s               469      0.235583  28 H  s         
   349      0.203898  21 C  py              562     -0.198170  33 H  s         
   393      0.191069  24 C  pz              390      0.180357  24 C  pz        
   347     -0.178109  21 C  pz              446     -0.176528  27 C  s         

 Vector   70  Occ=2.000000D+00  E=-4.757894D-01
              MO Center= -1.2D+00, -1.8D+00, -2.1D-01, r^2= 6.6D+00
   Bfn.  Coefficient  Atom+Function         Bfn.  Coefficient  Atom+Function  
  ----- ------------  ---------------      ----- ------------  ---------------
   106      0.305924   7 N  s                56     -0.245349   5 C  s         
   480      0.246338  29 C  s               352      0.224047  21 C  py        
   506     -0.199105  30 O  px              388      0.173389  24 C  px        
   540      0.173217  32 C  px              447      0.164783  27 C  px        
   574      0.164499  34 C  px              413      0.156305  25 C  px        

 Vector   71  Occ=2.000000D+00  E=-4.578774D-01
              MO Center=  1.2D+00,  9.6D-01, -7.8D-02, r^2= 6.5D+00
   Bfn.  Coefficient  Atom+Function         Bfn.  Coefficient  Atom+Function  
  ----- ------------  ---------------      ----- ------------  ---------------
   252      0.385103  16 O  px              255      0.312060  16 O  px        
    82     -0.240728   6 O  px              139     -0.231056   9 C  s         
    83     -0.203532   6 O  py               85     -0.189830   6 O  px        
   107      0.168693   7 N  px               86     -0.159834   6 O  py        
   110      0.158519   7 N  px        

 Vector   72  Occ=2.000000D+00  E=-4.419596D-01
              MO Center=  1.4D+00,  1.2D-01,  1.2D+00, r^2= 5.6D+00
   Bfn.  Coefficient  Atom+Function         Bfn.  Coefficient  Atom+Function  
  ----- ------------  ---------------      ----- ------------  ---------------
    83      0.400848   6 O  py               86      0.323106   6 O  py        
    84     -0.250744   6 O  pz               87     -0.217782   6 O  pz        
    18      0.193460   2 C  py               15      0.186206   2 C  py        
    13     -0.154944   2 C  s               105     -0.154966   7 N  s         

 Vector   73  Occ=2.000000D+00  E=-4.338369D-01
              MO Center= -8.3D-01,  2.0D+00,  2.9D-01, r^2= 7.7D+00
   Bfn.  Coefficient  Atom+Function         Bfn.  Coefficient  Atom+Function  
  ----- ------------  ---------------      ----- ------------  ---------------
   634      0.392103  37 O  py              637      0.308453  37 O  py        
   253     -0.203381  16 O  py               83     -0.199910   6 O  py        
   279      0.187474  17 N  pz              276      0.176034  17 N  s         
   226     -0.164279  15 C  s               281      0.161320  17 N  py        
   256     -0.159154  16 O  py              278      0.159598  17 N  py        

 Vector   74  Occ=2.000000D+00  E=-4.083132D-01
              MO Center=  1.5D+00,  1.1D+00, -4.1D-02, r^2= 5.8D+00
   Bfn.  Coefficient  Atom+Function         Bfn.  Coefficient  Atom+Function  
  ----- ------------  ---------------      ----- ------------  ---------------
   107      0.321804   7 N  px              110      0.304961   7 N  px        
   252     -0.290585  16 O  px              255     -0.232701  16 O  px        
   144     -0.215531   9 C  px               82     -0.203351   6 O  px        
    85     -0.168753   6 O  px              141     -0.168693   9 C  px        
   173      0.160211  11 C  s               275     -0.156164  17 N  s         

 Vector   75  Occ=2.000000D+00  E=-3.956949D-01
              MO Center= -1.7D+00,  3.2D+00,  3.2D-01, r^2= 3.8D+00
   Bfn.  Coefficient  Atom+Function         Bfn.  Coefficient  Atom+Function  
  ----- ------------  ---------------      ----- ------------  ---------------
   660     -0.357018  38 N  pz              635      0.326100  37 O  pz        
   663     -0.304488  38 N  pz              638      0.251074  37 O  pz        
   633      0.162003  37 O  px        

 Vector   76  Occ=2.000000D+00  E=-3.859126D-01
              MO Center= -1.1D+00,  2.4D+00,  6.1D-02, r^2= 4.5D+00
   Bfn.  Coefficient  Atom+Function         Bfn.  Coefficient  Atom+Function  
  ----- ------------  ---------------      ----- ------------  ---------------
   634      0.319367  37 O  py              278     -0.280540  17 N  py        
   281     -0.254693  17 N  py              637      0.249044  37 O  py        
   279     -0.204984  17 N  pz              282     -0.183684  17 N  pz        
   606      0.176984  36 C  s               253      0.168706  16 O  py        
   660      0.156841  38 N  pz        

 Vector   77  Occ=2.000000D+00  E=-3.462241D-01
              MO Center= -1.3D+00, -2.3D+00, -1.8D-01, r^2= 3.4D+00
   Bfn.  Coefficient  Atom+Function         Bfn.  Coefficient  Atom+Function  
  ----- ------------  ---------------      ----- ------------  ---------------
   540     -0.254209  32 C  px              447      0.247734  27 C  px        
   413      0.241934  25 C  px              574     -0.230863  34 C  px        
   450      0.193537  27 C  px              543     -0.192924  32 C  px        
    56     -0.181857   5 C  s               416      0.179727  25 C  px        
   577     -0.175736  34 C  px        

 Vector   78  Occ=2.000000D+00  E=-3.120745D-01
              MO Center= -1.3D+00, -2.3D+00, -2.0D-01, r^2= 4.1D+00
   Bfn.  Coefficient  Atom+Function         Bfn.  Coefficient  Atom+Function  
  ----- ------------  ---------------      ----- ------------  ---------------
   388      0.277529  24 C  px              481     -0.253035  29 C  px        
   391      0.223623  24 C  px              484     -0.188861  29 C  px        
   506      0.185061  30 O  px              447     -0.168159  27 C  px        
   315      0.165281  19 C  py              540     -0.155743  32 C  px        
   509      0.152692  30 O  px        

 Vector   79  Occ=0.000000D+00  E= 2.239451D-02
              MO Center=  2.9D+00, -2.4D+00, -1.8D+00, r^2= 2.7D+01
   Bfn.  Coefficient  Atom+Function         Bfn.  Coefficient  Atom+Function  
  ----- ------------  ---------------      ----- ------------  ---------------
   226      3.214857  15 C  s               539     -2.355714  32 C  s         
   106     -2.119124   7 N  s               140      1.891522   9 C  s         
   233      1.833364  15 C  px              446      1.788457  27 C  s         
    46     -1.684476   4 H  s                12      1.631774   2 C  s         
   148     -1.619822   9 C  py              300      1.599988  18 H  s         

 Vector   80  Occ=0.000000D+00  E= 2.936095D-02
              MO Center=  1.4D+00, -2.7D+00, -2.1D+00, r^2= 3.8D+01
   Bfn.  Coefficient  Atom+Function         Bfn.  Coefficient  Atom+Function  
  ----- ------------  ---------------      ----- ------------  ---------------
   539      5.856031  32 C  s               446     -4.703670  27 C  s         
   233      4.365784  15 C  px              563      3.180650  33 H  s         
   317      2.939575  19 C  px              489      2.655181  29 C  pz        
   548      2.306024  32 C  pz              207     -2.180283  13 H  s         
   396      2.162244  24 C  pz               46     -1.994765   4 H  s         

 Vector   81  Occ=0.000000D+00  E= 3.790038D-02
              MO Center=  2.4D+00, -7.8D-02, -4.1D-01, r^2= 4.3D+01
   Bfn.  Coefficient  Atom+Function         Bfn.  Coefficient  Atom+Function  
  ----- ------------  ---------------      ----- ------------  ---------------
    64      3.313512   5 C  py               46      2.466479   4 H  s         
   446      2.359001  27 C  s               470      2.180326  28 H  s         
   148      1.998372   9 C  py               56      1.909527   5 C  s         
   563     -1.890073  33 H  s               276      1.826158  17 N  s         
   149     -1.782169   9 C  pz              198     -1.732944  12 H  s         

 Vector   82  Occ=0.000000D+00  E= 4.167491D-02
              MO Center=  1.4D+00,  8.8D-01,  6.1D-01, r^2= 4.0D+01
   Bfn.  Coefficient  Atom+Function         Bfn.  Coefficient  Atom+Function  
  ----- ------------  ---------------      ----- ------------  ---------------
   164      2.876145  10 H  s               455     -2.117342  27 C  pz        
   480     -2.121846  29 C  s               395      2.035796  24 C  py        
   420     -1.965225  25 C  py              149     -1.924824   9 C  pz        
   573     -1.834369  34 C  s               216     -1.725889  14 H  s         
   233      1.730845  15 C  px              317      1.705574  19 C  px        

 Vector   83  Occ=0.000000D+00  E= 4.716749D-02
              MO Center= -1.2D+00, -1.9D+00, -1.7D+00, r^2= 3.8D+01
   Bfn.  Coefficient  Atom+Function         Bfn.  Coefficient  Atom+Function  
  ----- ------------  ---------------      ----- ------------  ---------------
   226      3.224869  15 C  s               597     -2.878314  35 H  s         
   488      2.761159  29 C  py              529      2.516331  31 H  s         
   140      2.436791   9 C  s                13     -2.201758   2 C  s         
    37      2.046713   3 H  s                64     -1.931674   5 C  py        
   395     -1.798762  24 C  py              581      1.702312  34 C  py        

 Vector   84  Occ=0.000000D+00  E= 4.980189D-02
              MO Center=  1.8D+00,  1.7D-01, -8.7D-01, r^2= 4.3D+01
   Bfn.  Coefficient  Atom+Function         Bfn.  Coefficient  Atom+Function  
  ----- ------------  ---------------      ----- ------------  ---------------
   207      2.866918  13 H  s               216     -2.717671  14 H  s         
    37     -2.598522   3 H  s               563      2.609625  33 H  s         
   470     -2.576466  28 H  s               446     -2.557273  27 C  s         
   548      2.158204  32 C  pz              539      2.139242  32 C  s         
   657     -2.131160  38 N  s               164      1.838499  10 H  s         

 Vector   85  Occ=0.000000D+00  E= 5.236638D-02
              MO Center=  1.2D+00,  4.2D-01,  8.2D-01, r^2= 4.9D+01
   Bfn.  Coefficient  Atom+Function         Bfn.  Coefficient  Atom+Function  
  ----- ------------  ---------------      ----- ------------  ---------------
   470      3.217086  28 H  s               539     -2.987296  32 C  s         
    46     -2.460560   4 H  s               657     -2.389628  38 N  s         
   615      2.283385  36 C  py              233     -2.175713  15 C  px        
   455     -2.121821  27 C  pz              690     -2.020926  40 H  s         
   480     -1.999452  29 C  s               207      1.882742  13 H  s         

 Vector   86  Occ=0.000000D+00  E= 5.913437D-02
              MO Center=  3.8D-01, -1.1D-01,  8.8D-01, r^2= 4.2D+01
   Bfn.  Coefficient  Atom+Function         Bfn.  Coefficient  Atom+Function  
  ----- ------------  ---------------      ----- ------------  ---------------
   420      4.144221  25 C  py              130     -3.604820   8 H  s         
   446      3.452619  27 C  s               436     -3.267696  26 H  s         
   480      3.239194  29 C  s               106     -3.144449   7 N  s         
   377     -2.942881  23 H  s               198      2.732643  12 H  s         
     3      2.482373   1 H  s               351     -2.451334  21 C  px        

 Vector   87  Occ=0.000000D+00  E= 6.078374D-02
              MO Center= -5.1D-02, -1.3D-01,  2.7D-02, r^2= 4.3D+01
   Bfn.  Coefficient  Atom+Function         Bfn.  Coefficient  Atom+Function  
  ----- ------------  ---------------      ----- ------------  ---------------
   539      4.444935  32 C  s               563      4.280301  33 H  s         
   164      4.185878  10 H  s               597     -3.539535  35 H  s         
   421     -3.212506  25 C  pz               56     -3.003483   5 C  s         
   207     -2.973093  13 H  s               377     -2.881991  23 H  s         
[...]

 Vector  196  Occ=0.000000D+00  E= 4.428806D-01
              MO Center= -1.3D-01, -1.2D-01,  5.3D-01, r^2= 2.1D+01
   Bfn.  Coefficient  Atom+Function         Bfn.  Coefficient  Atom+Function  
  ----- ------------  ---------------      ----- ------------  ---------------
   226     14.109630  15 C  s                64    -11.653672   5 C  py        
   387    -10.709295  24 C  s                56    -10.484716   5 C  s         
   420     10.298526  25 C  py              276     -9.608730  17 N  s         
   148     -9.417949   9 C  py              607      8.958112  36 C  s         
   318     -8.471215  19 C  py              344     -7.948467  21 C  s         

 Vector  197  Occ=0.000000D+00  E= 4.496456D-01
              MO Center=  3.9D-01, -3.6D-02, -5.3D-04, r^2= 2.2D+01
   Bfn.  Coefficient  Atom+Function         Bfn.  Coefficient  Atom+Function  
  ----- ------------  ---------------      ----- ------------  ---------------
   106     10.277714   7 N  s               233    -10.281594  15 C  px        
   174      9.219281  11 C  s               657     -7.523894  38 N  s         
   319      7.332814  19 C  pz              539      7.040860  32 C  s         
   148      6.598729   9 C  py               56     -6.540548   5 C  s         
   454      6.488835  27 C  py              226     -6.322762  15 C  s         

 Vector  198  Occ=0.000000D+00  E= 4.505377D-01
              MO Center=  9.1D-01, -5.8D-01, -1.6D-01, r^2= 2.2D+01
   Bfn.  Coefficient  Atom+Function         Bfn.  Coefficient  Atom+Function  
  ----- ------------  ---------------      ----- ------------  ---------------
   539     16.462479  32 C  s               607     11.099232  36 C  s         
   480    -10.651388  29 C  s               446    -10.277279  27 C  s         
   106      9.741955   7 N  s               387     -8.943838  24 C  s         
   318     -8.859067  19 C  py              352     -8.603346  21 C  py        
   310      7.958484  19 C  s               419      7.979848  25 C  px        

 Vector  199  Occ=0.000000D+00  E= 4.534198D-01
              MO Center= -3.2D-01, -1.4D-03, -3.8D-02, r^2= 1.9D+01
   Bfn.  Coefficient  Atom+Function         Bfn.  Coefficient  Atom+Function  
  ----- ------------  ---------------      ----- ------------  ---------------
   317     14.506298  19 C  px              539     14.543528  32 C  s         
   480     11.908025  29 C  s               318     11.064560  19 C  py        
   352     10.017937  21 C  py              420      8.253810  25 C  py        
   226     -7.528807  15 C  s               446     -7.499573  27 C  s         
    12     -7.312638   2 C  s               455      6.969712  27 C  pz        

 Vector  200  Occ=0.000000D+00  E= 4.554748D-01
              MO Center=  4.0D-01, -8.4D-01, -8.8D-02, r^2= 2.1D+01
   Bfn.  Coefficient  Atom+Function         Bfn.  Coefficient  Atom+Function  
  ----- ------------  ---------------      ----- ------------  ---------------
   276     21.408774  17 N  s               446     12.436990  27 C  s         
    64    -11.295514   5 C  py              233      9.828522  15 C  px        
   480      9.555323  29 C  s               539     -9.599621  32 C  s         
   106      9.474020   7 N  s                12      9.278769   2 C  s         
    56     -8.981310   5 C  s               420      8.738156  25 C  py        

 Vector  201  Occ=0.000000D+00  E= 4.582450D-01
              MO Center= -9.0D-01, -1.2D-01,  1.8D-01, r^2= 2.2D+01
   Bfn.  Coefficient  Atom+Function         Bfn.  Coefficient  Atom+Function  
  ----- ------------  ---------------      ----- ------------  ---------------
   226      9.670682  15 C  s               480      9.626513  29 C  s         
   539      7.623642  32 C  s               106     -7.443896   7 N  s         
   436     -6.806895  26 H  s               174     -6.303941  11 C  s         
   387     -6.109973  24 C  s               421      5.955552  25 C  pz        
   582      5.892753  34 C  pz              412     -5.021004  25 C  s         

 Vector  202  Occ=0.000000D+00  E= 4.625924D-01
              MO Center=  6.3D-01, -1.2D-01, -5.1D-02, r^2= 2.1D+01
   Bfn.  Coefficient  Atom+Function         Bfn.  Coefficient  Atom+Function  
  ----- ------------  ---------------      ----- ------------  ---------------
    56     19.183948   5 C  s               115     -8.603548   7 N  pz        
    12      8.391252   2 C  s               233     -7.871941  15 C  px        
   276     -7.601051  17 N  s               148      7.454939   9 C  py        
     2     -6.135905   1 H  s               435     -6.005542  26 H  s         
    13      5.850904   2 C  s               174     -5.030209  11 C  s         

 Vector  203  Occ=0.000000D+00  E= 4.635527D-01
              MO Center= -6.3D-02,  2.9D-01, -4.8D-02, r^2= 2.0D+01
   Bfn.  Coefficient  Atom+Function         Bfn.  Coefficient  Atom+Function  
  ----- ------------  ---------------      ----- ------------  ---------------
   539     14.155682  32 C  s               283     13.323903  17 N  px        
   480    -11.602606  29 C  s               174     -8.883425  11 C  s         
   387     -8.263665  24 C  s               148      8.013391   9 C  py        
   607      7.930972  36 C  s               412      7.236566  25 C  s         
   446     -7.087040  27 C  s               140     -6.771330   9 C  s         

 Vector  204  Occ=0.000000D+00  E= 4.706919D-01
              MO Center=  9.8D-01, -2.7D-01,  3.3D-01, r^2= 2.1D+01
   Bfn.  Coefficient  Atom+Function         Bfn.  Coefficient  Atom+Function  
  ----- ------------  ---------------      ----- ------------  ---------------
   174     19.221810  11 C  s               480    -18.046339  29 C  s         
   300    -12.423646  18 H  s               226    -12.206839  15 C  s         
   147    -12.004412   9 C  px              607     11.574036  36 C  s         
   140    -11.196349   9 C  s               310     10.916144  19 C  s         
   344     10.299104  21 C  s               276    -10.208223  17 N  s         

 Vector  205  Occ=0.000000D+00  E= 4.728514D-01
              MO Center= -8.1D-02, -5.0D-01, -5.1D-01, r^2= 2.3D+01
   Bfn.  Coefficient  Atom+Function         Bfn.  Coefficient  Atom+Function  
  ----- ------------  ---------------      ----- ------------  ---------------
   233     14.325138  15 C  px              480    -13.310161  29 C  s         
   174    -11.777325  11 C  s               412     11.240245  25 C  s         
   446     -7.461056  27 C  s               147      7.340089   9 C  px        
   539      7.235872  32 C  s               454     -6.984798  27 C  py        
   106     -6.557175   7 N  s               226      6.125548  15 C  s         

 Vector  206  Occ=0.000000D+00  E= 4.797186D-01
              MO Center=  1.3D+00,  6.6D-01, -6.8D-01, r^2= 2.2D+01
   Bfn.  Coefficient  Atom+Function         Bfn.  Coefficient  Atom+Function  
  ----- ------------  ---------------      ----- ------------  ---------------
   233     14.927159  15 C  px              317     13.242613  19 C  px        
   539     11.385598  32 C  s               352     10.677291  21 C  py        
   412     10.237498  25 C  s               300    -10.133793  18 H  s         
   387     -9.289475  24 C  s               573     -8.426094  34 C  s         
   420      7.821544  25 C  py              607      7.859465  36 C  s         

 Vector  207  Occ=0.000000D+00  E= 4.802589D-01
              MO Center= -4.8D-01, -3.6D-01, -9.0D-02, r^2= 2.2D+01
   Bfn.  Coefficient  Atom+Function         Bfn.  Coefficient  Atom+Function  
  ----- ------------  ---------------      ----- ------------  ---------------
   276    -18.301481  17 N  s               226     16.919672  15 C  s         
   140     12.004951   9 C  s               233    -10.479615  15 C  px        
   420      8.495030  25 C  py              539     -7.585795  32 C  s         
   284     -6.970646  17 N  py              351     -6.354396  21 C  px        
   395     -6.238130  24 C  py              106     -5.765720   7 N  s         

 Vector  208  Occ=0.000000D+00  E= 4.868771D-01
              MO Center=  9.0D-01, -8.8D-02, -2.9D-01, r^2= 2.3D+01
   Bfn.  Coefficient  Atom+Function         Bfn.  Coefficient  Atom+Function  
  ----- ------------  ---------------      ----- ------------  ---------------
   174     33.587112  11 C  s               233    -15.989691  15 C  px        
   539    -14.992900  32 C  s               147    -11.270026   9 C  px        
   480     11.211999  29 C  s               412    -10.953105  25 C  s         
   226    -10.093725  15 C  s               387      9.330976  24 C  s         
   607     -9.272169  36 C  s               215     -8.834342  14 H  s         

 Vector  209  Occ=0.000000D+00  E= 4.893031D-01
              MO Center=  2.1D-01, -6.8D-01, -2.9D-01, r^2= 2.3D+01
   Bfn.  Coefficient  Atom+Function         Bfn.  Coefficient  Atom+Function  
  ----- ------------  ---------------      ----- ------------  ---------------
   480     16.710493  29 C  s                56    -15.126131   5 C  s         
   539     13.102505  32 C  s               148    -11.118864   9 C  py        
   174     10.591197  11 C  s               505     -8.477889  30 O  s         
   387     -8.254204  24 C  s               455      8.055779  27 C  pz        
   344     -7.394079  21 C  s               573     -6.825662  34 C  s         

 Vector  210  Occ=0.000000D+00  E= 4.907760D-01
              MO Center=  3.6D-02, -1.4D-01, -2.4D-01, r^2= 2.3D+01
   Bfn.  Coefficient  Atom+Function         Bfn.  Coefficient  Atom+Function  
  ----- ------------  ---------------      ----- ------------  ---------------
   480     10.219825  29 C  s               446      9.262861  27 C  s         
   395      7.353813  24 C  py              505     -7.109007  30 O  s         
   318      6.978364  19 C  py              226     -6.507989  15 C  s         
   352      6.472849  21 C  py               56      6.314353   5 C  s         
   573     -5.662150  34 C  s                12      5.360757   2 C  s         

 Vector  211  Occ=0.000000D+00  E= 4.946763D-01
              MO Center=  3.8D-02,  4.3D-01,  2.1D-01, r^2= 2.1D+01
   Bfn.  Coefficient  Atom+Function         Bfn.  Coefficient  Atom+Function  
  ----- ------------  ---------------      ----- ------------  ---------------
    56     15.692907   5 C  s               106     -9.938609   7 N  s         
   276      8.306911  17 N  s                12      8.030508   2 C  s         
   480     -8.059935  29 C  s                 2     -7.237604   1 H  s         
   233      6.745987  15 C  px              174     -6.600046  11 C  s         
    64      6.270308   5 C  py               13      5.798317   2 C  s         

 Vector  212  Occ=0.000000D+00  E= 5.009930D-01
              MO Center= -1.5D-01, -4.6D-01, -2.7D-01, r^2= 2.2D+01
   Bfn.  Coefficient  Atom+Function         Bfn.  Coefficient  Atom+Function  
  ----- ------------  ---------------      ----- ------------  ---------------
   480     20.175419  29 C  s               233     14.807968  15 C  px        
   607    -12.672761  36 C  s               352     11.699942  21 C  py        
   395     10.917970  24 C  py              148     -9.830607   9 C  py        
   387      8.760399  24 C  s               394     -7.668207  24 C  px        
   446      7.516210  27 C  s               276      7.389440  17 N  s         


 center of mass
 --------------
 x =  -0.06511977 y =   0.01715101 z =   0.01458314

 moments of inertia (a.u.)
 ------------------
        7311.143450625575           0.000000000002           0.000000000001
           0.000000000002        4890.242945028236           0.000000000002
           0.000000000001           0.000000000002       10098.594687830833

  Mulliken analysis of the total density
  --------------------------------------

    Atom       Charge   Shell Charges
 -----------   ------   -------------------------------------------------------
    1 H    1     0.92   0.77  0.19 -0.00  0.03 -0.07
    2 C    6     6.41   2.01  0.66  0.41  0.09  2.07  0.98 -0.00  0.06  0.13
    3 H    1     0.73   0.76  0.03 -0.02  0.03 -0.07
    4 H    1     0.86   0.77  0.12  0.02  0.03 -0.08
    5 C    6     5.13   2.01  0.68  0.05  0.05  1.89  0.32 -0.08  0.24 -0.03
    6 O    8     8.83   2.01  0.82  1.01  0.18  2.80  1.88  0.15  0.02 -0.01
    7 N    7     7.56   2.01  0.72  0.80 -0.11  2.45  1.45  0.16  0.05  0.04
    8 H    1     0.97   0.77  0.22 -0.03  0.05 -0.04
    9 C    6     6.64   2.01  0.66  0.06 -0.05  1.99  1.75 -0.11  0.14  0.20
   10 H    1     0.99   0.78  0.17  0.00  0.03  0.01
   11 C    6     5.82   2.01  0.66  0.28  0.31  2.04  0.48 -0.03  0.07  0.01
   12 H    1     0.95   0.77  0.22  0.01  0.03 -0.08
   13 H    1     0.94   0.77  0.22  0.02  0.03 -0.09
   14 H    1     0.89   0.77  0.15  0.02  0.03 -0.08
   15 C    6     4.40   2.01  0.68 -0.08 -0.03  1.88  0.16 -0.00  0.23 -0.44
   16 O    8     8.87   2.01  0.82  1.04  0.18  2.80  1.87  0.15  0.01 -0.00
   17 N    7     7.53   2.01  0.72  0.88 -0.13  2.45  1.44  0.07  0.05  0.05
   18 H    1     0.92   0.74  0.29 -0.01  0.06 -0.15
   19 C    6     6.54   2.01  0.67  0.11 -0.03  1.99  1.37  0.20  0.14  0.09
   20 H    1     1.01   0.79  0.18 -0.03  0.03  0.04
   21 C    6     5.57   2.01  0.66  0.07 -0.06  2.04  0.76  0.05  0.09 -0.07
   22 H    1     1.17   0.78  0.43 -0.01  0.03 -0.05
   23 H    1     0.99   0.78  0.27 -0.01  0.03 -0.07
   24 C    6     6.00   2.01  0.66  0.21 -0.10  2.00  0.87 -0.06  0.12  0.29
   25 C    6     5.37   2.01  0.67  0.26 -0.32  1.99  0.80  0.14  0.09 -0.26
   26 H    1     1.64   0.78  0.82 -0.00  0.03  0.01
   27 C    6     5.32   2.01  0.66  0.12 -0.37  2.02  0.84  0.15  0.09 -0.19
   28 H    1     1.54   0.78  0.72  0.01  0.03  0.01
   29 C    6     5.36   2.01  0.66  0.14 -0.19  1.94  0.40  0.30  0.17 -0.06
   30 O    8     8.74   2.01  0.80  0.97  0.17  2.84  1.84  0.12  0.01 -0.03
   31 H    1     0.87   0.73  0.04 -0.01  0.08  0.02
   32 C    6     5.33   2.01  0.66  0.39 -0.53  2.02  0.71  0.15  0.09 -0.16
   33 H    1     1.59   0.78  0.77 -0.01  0.03  0.01
   34 C    6     5.48   2.01  0.66  0.13 -0.16  1.99  0.75  0.20  0.09 -0.20
   35 H    1     1.62   0.78  0.76  0.04  0.03  0.01
   36 C    6     4.54   2.01  0.68  0.09  0.05  1.89 -0.12 -0.03  0.24 -0.24
   37 O    8     8.76   2.01  0.82  1.03  0.15  2.79  1.83  0.14  0.01 -0.01
   38 N    7     7.25   2.01  0.72  0.83 -0.13  2.47  1.25  0.09  0.04 -0.02
   39 H    1     0.92   0.73  0.19 -0.02  0.06 -0.05
   40 H    1     1.02   0.76  0.23 -0.00  0.05 -0.03

       Multipole analysis of the density wrt the origin
       ------------------------------------------------

     L   x y z        total         open         nuclear
     -   - - -        -----         ----         -------
     0   0 0 0     -0.000000      0.000000    156.000000

     1   1 0 0      2.141643      0.000000     -0.000000
     1   0 1 0     -1.447591      0.000000     -0.000000
     1   0 0 1     -1.202566      0.000000      0.000000

     2   2 0 0    -92.933133      0.000000   2120.790111
     2   1 1 0      6.919607      0.000000      9.155482
     2   1 0 1      4.341808      0.000000     -5.475805
     2   0 2 0    -92.361681      0.000000   3361.070330
     2   0 1 1      5.172252      0.000000    -11.797199
     2   0 0 2    -95.415602      0.000000    596.311323


 Task  times  cpu:    17913.4s     wall:    17971.1s


                                NWChem Input Module
                                -------------------


 Summary of allocated global arrays
-----------------------------------
  No active global arrays


MA_summarize_allocated_blocks: starting scan ...
MA_summarize_allocated_blocks: scan completed: 0 heap blocks, 0 stack blocks
MA usage statistics:

	allocation statistics:
					      heap	     stack
					      ----	     -----
	current number of blocks	         0	         0
	maximum number of blocks	        16	        14
	current total bytes		         0	         0
	maximum total bytes		    148488	  31456168
	maximum total K-bytes		       149	     31457
	maximum total M-bytes		         1	        32


                                     CITATION
                                     --------
                Please cite the following reference when publishing
                           results obtained with NWChem:

          E. Apra, E. J. Bylaska, W. A. de Jong, N. Govind, K. Kowalski,
       T. P. Straatsma, M. Valiev, H. J. J. van Dam, Y. Alexeev, J. Anchell,
       V. Anisimov, F. W. Aquino, R. Atta-Fynn, J. Autschbach, N. P. Bauman,
     J. C. Becca, D. E. Bernholdt, K. Bhaskaran-Nair, S. Bogatko, P. Borowski,
         J. Boschen, J. Brabec, A. Bruner, E. Cauet, Y. Chen, G. N. Chuev,
      C. J. Cramer, J. Daily, M. J. O. Deegan, T. H. Dunning Jr., M. Dupuis,
   K. G. Dyall, G. I. Fann, S. A. Fischer, A. Fonari, H. Fruchtl, L. Gagliardi,
      J. Garza, N. Gawande, S. Ghosh, K. Glaesemann, A. W. Gotz, J. Hammond,
       V. Helms, E. D. Hermes, K. Hirao, S. Hirata, M. Jacquelin, L. Jensen,
   B. G. Johnson, H. Jonsson, R. A. Kendall, M. Klemm, R. Kobayashi, V. Konkov,
      S. Krishnamoorthy, M. Krishnan, Z. Lin, R. D. Lins, R. J. Littlefield,
      A. J. Logsdail, K. Lopata, W. Ma, A. V. Marenich, J. Martin del Campo,
   D. Mejia-Rodriguez, J. E. Moore, J. M. Mullin, T. Nakajima, D. R. Nascimento,
    J. A. Nichols, P. J. Nichols, J. Nieplocha, A. Otero-de-la-Roza, B. Palmer,
    A. Panyala, T. Pirojsirikul, B. Peng, R. Peverati, J. Pittner, L. Pollack,
   R. M. Richard, P. Sadayappan, G. C. Schatz, W. A. Shelton, D. W. Silverstein,
   D. M. A. Smith, T. A. Soares, D. Song, M. Swart, H. L. Taylor, G. S. Thomas,
            V. Tipparaju, D. G. Truhlar, K. Tsemekhman, T. Van Voorhis,
      A. Vazquez-Mayagoitia, P. Verma, O. Villa, A. Vishnu, K. D. Vogiatzis,
        D. Wang, J. H. Weare, M. J. Williamson, T. L. Windus, K. Wolinski,
        A. T. Wong, Q. Wu, C. Yang, Q. Yu, M. Zacharias, Z. Zhang, Y. Zhao,
                                and R. J. Harrison
                        "NWChem: Past, present, and future
                         J. Chem. Phys. 152, 184102 (2020)
                               doi:10.1063/5.0004997

                                      AUTHORS
                                      -------
  E. Apra, E. J. Bylaska, N. Govind, K. Kowalski, M. Valiev, D. Mejia-Rodriguez,
       A. Kunitsa, N. P. Bauman, A. Panyala, W. A. de Jong, T. P. Straatsma,
   H. J. J. van Dam, D. Wang, T. L. Windus, J. Hammond, J. Autschbach, A. Woods,
    K. Bhaskaran-Nair, J. Brabec, K. Lopata, S. A. Fischer, S. Krishnamoorthy,
     M. Jacquelin, W. Ma, M. Klemm, O. Villa, Y. Chen, V. Anisimov, F. Aquino,
     S. Hirata, M. T. Hackler, E. Hermes, L. Jensen, J. E. Moore, J. C. Becca,
      V. Konjkov, T. Risthaus, M. Malagoli, A. Marenich, A. Otero-de-la-Roza,
        J. Mullin, P. Nichols, R. Peverati, J. Pittner, Y. Zhao, P.-D. Fan,
        A. Fonari, M. J. Williamson, R. J. Harrison, J. R. Rehr, M. Dupuis,
     D. Silverstein, D. M. A. Smith, J. Nieplocha, V. Tipparaju, M. Krishnan,
     B. E. Van Kuiken, A. Vazquez-Mayagoitia, M. Swart, Q. Wu, T. Van Voorhis,
     A. A. Auer, M. Nooijen, L. D. Crosby, E. Brown, G. Cisneros, G. I. Fann,
   H. Fruchtl, J. Garza, K. Hirao, R. A. Kendall, J. A. Nichols, K. Tsemekhman,
    K. Wolinski, J. Anchell, D. E. Bernholdt, P. Borowski, T. Clark, D. Clerc,
   H. Dachsel, M. J. O. Deegan, K. Dyall, D. Elwood, E. Glendening, M. Gutowski,
   A. C. Hess, J. Jaffe, B. G. Johnson, J. Ju, R. Kobayashi, R. Kutteh, Z. Lin,
   R. Littlefield, X. Long, B. Meng, T. Nakajima, S. Niu, L. Pollack, M. Rosing,
   K. Glaesemann, G. Sandrone, M. Stave, H. Taylor, G. Thomas, J. H. van Lenthe,
                               A. T. Wong, Z. Zhang.

 Total times  cpu:    17913.4s     wall:    17971.6s
