export TMOUT=5400
export TMPDIR=/tmp
export PTMPDIR=/tmp/ptmp
 argument  1 = ALA_GLN_4.nw
                                         
                                         


             Northwest Computational Chemistry Package (NWChem) 7.2.0
             --------------------------------------------------------


                    Environmental Molecular Sciences Laboratory
                       Pacific Northwest National Laboratory
                                Richland, WA 99352

                              Copyright (c) 1994-2022
                       Pacific Northwest National Laboratory
                            Battelle Memorial Institute

             NWChem is an open-source computational chemistry package
                        distributed under the terms of the
                      Educational Community License (ECL) 2.0
             A copy of the license is included with this distribution
                              in the LICENSE.TXT file

                                  ACKNOWLEDGMENT
                                  --------------

            This software and its documentation were developed at the
            EMSL at Pacific Northwest National Laboratory, a multiprogram
            national laboratory, operated for the U.S. Department of Energy
            by Battelle under Contract Number DE-AC05-76RL01830. Support
            for this work was provided by the Department of Energy Office
            of Biological and Environmental Research, Office of Basic
            Energy Sciences, and the Office of Advanced Scientific Computing.


           Job information
           ---------------

    hostname        = nova18-23
    program         = /opt/rit/el9/20230413/app/linux-rhel9-x86_64_v3/gcc-11.2.1/nwchem-7.2.0-oxtctbuhfuzyfaoziquq6bki22grib3g/bin/nwchem
    date            = Thu Jun 26 11:38:58 2025

    compiled        = Wed_May_17_23:46:39_2023
    source          = /tmp/root/spack-stage/spack-stage-nwchem-7.2.0-oxtctbuhfuzyfaoziquq6bki22grib3g/spack-src
    nwchem branch   = 7.2.0
    nwchem revision = d0d141fd
    ga revision     = 5.8.0
    use scalapack   = T
    input           = ALA_GLN_4.nw
    prefix          = ALA_GLN_4.
    data base       = ./ALA_GLN_4.db
    status          = startup
    nproc           =        8
    time left       =     -1s



           Memory information
           ------------------

    heap     =   26214394 doubles =    200.0 Mbytes
    stack    =   26214399 doubles =    200.0 Mbytes
    global   =   52428800 doubles =    400.0 Mbytes (distinct from heap & stack)
    total    =  104857593 doubles =    800.0 Mbytes
    verify   = yes
    hardfail = no 


           Directory information
           ---------------------

  0 permanent = .
  0 scratch   = .




                                NWChem Input Module
                                -------------------



 Scaling coordinates for geometry "geometry" by  1.889725989
 (inverse scale =  0.529177249)

 C1  symmetry detected

          ------
          auto-z
          ------
  no constraints, skipping    0.0000000000000000     
  no constraints, skipping    0.0000000000000000     


                             Geometry "geometry" -> ""
                             -------------------------

 Output coordinates in angstroms (scale by  1.889725989 to convert to a.u.)

  No.       Tag          Charge          X              Y              Z
 ---- ---------------- ---------- -------------- -------------- --------------
    1 H                    1.0000    -1.35745085    -5.57296954     0.25312871
    2 C                    6.0000    -1.80708583    -4.59689542     0.42334825
    3 H                    1.0000    -2.41706994    -4.62709788     1.32489371
    4 H                    1.0000    -2.42672307    -4.31661086    -0.42642540
    5 C                    6.0000    -0.71754561    -3.56662898     0.60456130
    6 O                    8.0000    -0.64044148    -2.92864564     1.64767117
    7 N                    7.0000     0.12972583    -3.40838521    -0.40992725
    8 H                    1.0000    -0.02043574    -3.93931483    -1.24939746
    9 C                    6.0000     1.16530550    -2.37523667    -0.42377817
   10 H                    1.0000     1.71078983    -2.42748769     0.51965475
   11 C                    6.0000     2.14726382    -2.67092408    -1.56362587
   12 H                    1.0000     2.95041766    -1.93230399    -1.55625829
   13 H                    1.0000     2.58054093    -3.66339999    -1.43353158
   14 H                    1.0000     1.62989661    -2.62204101    -2.52330947
   15 C                    6.0000     0.55998571    -0.96243924    -0.54371719
   16 O                    8.0000    -0.41649760    -0.75382544    -1.26390233
   17 N                    7.0000     1.17146264     0.01509614     0.13149578
   18 H                    1.0000     1.99833790    -0.20774207     0.66555704
   19 C                    6.0000     0.73710273     1.41427155     0.16064452
   20 H                    1.0000     0.28630845     1.65617330    -0.80145374
   21 C                    6.0000    -0.30030386     1.62091817     1.28811369
   22 H                    1.0000    -0.17274309     0.85706257     2.05745229
   23 H                    1.0000    -0.14123435     2.58788267     1.76931692
   24 C                    6.0000    -1.74957692     1.58477855     0.77541738
   25 H                    1.0000    -1.94991215     0.61452687     0.32416969
   26 H                    1.0000    -2.42505585     1.70193986     1.62220569
   27 C                    6.0000    -2.05797689     2.68698970    -0.23952599
   28 O                    8.0000    -1.31863376     3.64233973    -0.42520329
   29 N                    7.0000    -3.16286289     2.59834505    -0.94421390
   30 H                    1.0000    -3.31969236     3.33196575    -1.61184117
   31 H                    1.0000    -3.76443647     1.80148603    -0.84863184
   32 C                    6.0000     1.92462856     2.37304576     0.32978765
   33 O                    8.0000     3.01397770     1.97490697     0.73064917
   34 N                    7.0000     1.72325433     3.64965960     0.03129888
   35 H                    1.0000     0.80379236     3.95250034    -0.26620098
   36 H                    1.0000     2.48558864     4.29694039     0.13902532

      Atomic Mass 
      ----------- 

      H                  1.007825
      C                 12.000000
      O                 15.994910
      N                 14.003070


 Effective nuclear repulsion energy (a.u.)    1405.3241499099

            Nuclear Dipole moment (a.u.) 
            ----------------------------
        X                 Y               Z
 ---------------- ---------------- ----------------
     0.0000000000     0.0000000000    -0.0000000000



                                Z-matrix (autoz)
                                -------- 

 Units are Angstrom for bonds and degrees for angles

      Type          Name      I     J     K     L     M      Value
      ----------- --------  ----- ----- ----- ----- ----- ----------
    1 Stretch                  1     2                       1.08806
    2 Stretch                  2     3                       1.08893
    3 Stretch                  2     4                       1.08840
    4 Stretch                  2     5                       1.51043
    5 Stretch                  5     6                       1.22517
    6 Stretch                  5     7                       1.33120
    7 Stretch                  7     8                       1.00456
    8 Stretch                  7     9                       1.46288
    9 Stretch                  9    10                       1.09103
   10 Stretch                  9    11                       1.53327
   11 Stretch                  9    15                       1.54169
   12 Stretch                 11    12                       1.09118
   13 Stretch                 11    13                       1.09072
   14 Stretch                 11    14                       1.09135
   15 Stretch                 15    16                       1.23114
   16 Stretch                 15    17                       1.33619
   17 Stretch                 17    18                       1.00926
   18 Stretch                 17    19                       1.46534
   19 Stretch                 19    20                       1.08966
   20 Stretch                 19    21                       1.54600
   21 Stretch                 19    32                       1.53560
   22 Stretch                 21    22                       1.09162
   23 Stretch                 21    23                       1.09173
   24 Stretch                 21    24                       1.53771
   25 Stretch                 24    25                       1.08864
   26 Stretch                 24    26                       1.08952
   27 Stretch                 24    27                       1.52974
   28 Stretch                 27    28                       1.22221
   29 Stretch                 27    29                       1.31347
   30 Stretch                 29    30                       1.00425
   31 Stretch                 29    31                       1.00300
   32 Stretch                 32    33                       1.22715
   33 Stretch                 32    34                       1.32642
   34 Stretch                 34    35                       1.01273
   35 Stretch                 34    36                       1.00585
   36 Bend                     1     2     3               109.64111
   37 Bend                     1     2     4               110.12903
   38 Bend                     1     2     5               109.42528
   39 Bend                     2     5     6               120.18109
   40 Bend                     2     5     7               116.66473
   41 Bend                     3     2     4               109.55015
   42 Bend                     3     2     5               108.88464
   43 Bend                     4     2     5               109.18894
   44 Bend                     5     7     8               118.61204
   45 Bend                     5     7     9               122.80151
   46 Bend                     6     5     7               123.15339
   47 Bend                     7     9    10               108.17510
   48 Bend                     7     9    11               108.91757
   49 Bend                     7     9    15               111.71490
   50 Bend                     8     7     9               118.11014
   51 Bend                     9    11    12               109.62289
   52 Bend                     9    11    13               109.95087
   53 Bend                     9    11    14               109.96682
   54 Bend                     9    15    16               120.81121
   55 Bend                     9    15    17               116.83547
   56 Bend                    10     9    11               108.26448
   57 Bend                    10     9    15               107.90662
   58 Bend                    11     9    15               111.73696
   59 Bend                    12    11    13               108.82880
   60 Bend                    12    11    14               108.93812
   61 Bend                    13    11    14               109.50914
   62 Bend                    15    17    18               118.73779
   63 Bend                    15    17    19               124.95656
   64 Bend                    16    15    17               122.31737
   65 Bend                    17    19    20               108.48406
   66 Bend                    17    19    21               109.94062
   67 Bend                    17    19    32               111.66206
   68 Bend                    18    17    19               116.30541
   69 Bend                    19    21    22               110.00071
   70 Bend                    19    21    23               110.00274
   71 Bend                    19    21    24               112.71452
   72 Bend                    19    32    33               121.32570
   73 Bend                    19    32    34               117.30500
   74 Bend                    20    19    21               109.67167
   75 Bend                    20    19    32               106.17505
   76 Bend                    21    19    32               110.80206
   77 Bend                    21    24    25               109.42588
   78 Bend                    21    24    26               108.82391
   79 Bend                    21    24    27               113.22157
   80 Bend                    22    21    23               106.98425
   81 Bend                    22    21    24               109.18803
   82 Bend                    23    21    24               107.76416
   83 Bend                    24    27    28               122.82285
   84 Bend                    24    27    29               118.48442
   85 Bend                    25    24    26               107.69250
   86 Bend                    25    24    27               109.27193
   87 Bend                    26    24    27               108.25167
   88 Bend                    27    29    30               116.02313
   89 Bend                    27    29    31               120.46531
   90 Bend                    28    27    29               118.69222
   91 Bend                    30    29    31               123.37145
   92 Bend                    32    34    35               119.45539
   93 Bend                    32    34    36               118.69778
   94 Bend                    33    32    34               121.36851
   95 Bend                    35    34    36               121.81166
   96 Torsion                  1     2     5     6        -119.96029
   97 Torsion                  1     2     5     7          59.72758
   98 Torsion                  2     5     7     8           2.92777
   99 Torsion                  2     5     7     9         174.85285
  100 Torsion                  3     2     5     6          -0.13700
  101 Torsion                  3     2     5     7         179.55086
  102 Torsion                  4     2     5     6         119.43552
  103 Torsion                  4     2     5     7         -60.87662
  104 Torsion                  5     7     9    10          49.80295
  105 Torsion                  5     7     9    11         167.26823
  106 Torsion                  5     7     9    15         -68.82220
  107 Torsion                  6     5     7     8        -177.39452
  108 Torsion                  6     5     7     9          -5.46944
  109 Torsion                  7     9    11    12        -177.45032
  110 Torsion                  7     9    11    13         -57.85051
  111 Torsion                  7     9    11    14          62.80556
  112 Torsion                  7     9    15    16         -38.34661
  113 Torsion                  7     9    15    17         143.78475
  114 Torsion                  8     7     9    10        -138.23363
  115 Torsion                  8     7     9    11         -20.76834
  116 Torsion                  8     7     9    15         103.14122
  117 Torsion                  9    15    17    18           1.18403
  118 Torsion                  9    15    17    19        -179.00191
  119 Torsion                 10     9    11    12         -60.04170
  120 Torsion                 10     9    11    13          59.55812
  121 Torsion                 10     9    11    14        -179.78582
  122 Torsion                 10     9    15    16        -157.13146
  123 Torsion                 10     9    15    17          24.99990
  124 Torsion                 11     9    15    16          83.96108
  125 Torsion                 11     9    15    17         -93.90756
  126 Torsion                 12    11     9    15          58.65320
  127 Torsion                 13    11     9    15         178.25301
  128 Torsion                 14    11     9    15         -61.09092
  129 Torsion                 15    17    19    20         -32.61513
  130 Torsion                 15    17    19    21          87.30917
  131 Torsion                 15    17    19    32        -149.28300
  132 Torsion                 16    15    17    18        -176.64989
  133 Torsion                 16    15    17    19           3.16417
  134 Torsion                 17    19    21    22          24.24771
  135 Torsion                 17    19    21    23         141.84875
  136 Torsion                 17    19    21    24         -97.86178
  137 Torsion                 17    19    32    33         -17.21145
  138 Torsion                 17    19    32    34         163.10760
  139 Torsion                 18    17    19    20         147.20300
  140 Torsion                 18    17    19    21         -92.87270
  141 Torsion                 18    17    19    32          30.53513
  142 Torsion                 19    21    24    25          60.65214
  143 Torsion                 19    21    24    26         178.08339
  144 Torsion                 19    21    24    27         -61.49775
  145 Torsion                 19    32    34    35           1.80434
  146 Torsion                 19    32    34    36         179.68694
  147 Torsion                 20    19    21    22         143.44786
  148 Torsion                 20    19    21    23         -98.95110
  149 Torsion                 20    19    21    24          21.33837
  150 Torsion                 20    19    32    33        -135.27152
  151 Torsion                 20    19    32    34          45.04752
  152 Torsion                 21    19    32    33         105.70687
  153 Torsion                 21    19    32    34         -73.97409
  154 Torsion                 21    24    27    28         -13.29552
  155 Torsion                 21    24    27    29         166.44325
  156 Torsion                 22    21    19    32         -99.66191
  157 Torsion                 22    21    24    25         -61.91430
  158 Torsion                 22    21    24    26          55.51694
  159 Torsion                 22    21    24    27         175.93580
  160 Torsion                 23    21    19    32          17.93913
  161 Torsion                 23    21    24    25        -177.78031
  162 Torsion                 23    21    24    26         -60.34907
  163 Torsion                 23    21    24    27          60.06979
  164 Torsion                 24    21    19    32         138.22860
  165 Torsion                 24    27    29    30        -178.84472
  166 Torsion                 24    27    29    31          -3.00461
  167 Torsion                 25    24    27    28        -135.53129
  168 Torsion                 25    24    27    29          44.20749
  169 Torsion                 26    24    27    28         107.44805
  170 Torsion                 26    24    27    29         -72.81317
  171 Torsion                 28    27    29    30           0.90503
  172 Torsion                 28    27    29    31         176.74514
  173 Torsion                 33    32    34    35        -177.87647
  174 Torsion                 33    32    34    36           0.00613


            XYZ format geometry
            -------------------
    36
 geometry
 H                    -1.35745085    -5.57296954     0.25312871
 C                    -1.80708583    -4.59689542     0.42334825
 H                    -2.41706994    -4.62709788     1.32489371
 H                    -2.42672307    -4.31661086    -0.42642540
 C                    -0.71754561    -3.56662898     0.60456130
 O                    -0.64044148    -2.92864564     1.64767117
 N                     0.12972583    -3.40838521    -0.40992725
 H                    -0.02043574    -3.93931483    -1.24939746
 C                     1.16530550    -2.37523667    -0.42377817
 H                     1.71078983    -2.42748769     0.51965475
 C                     2.14726382    -2.67092408    -1.56362587
 H                     2.95041766    -1.93230399    -1.55625829
 H                     2.58054093    -3.66339999    -1.43353158
 H                     1.62989661    -2.62204101    -2.52330947
 C                     0.55998571    -0.96243924    -0.54371719
 O                    -0.41649760    -0.75382544    -1.26390233
 N                     1.17146264     0.01509614     0.13149578
 H                     1.99833790    -0.20774207     0.66555704
 C                     0.73710273     1.41427155     0.16064452
 H                     0.28630845     1.65617330    -0.80145374
 C                    -0.30030386     1.62091817     1.28811369
 H                    -0.17274309     0.85706257     2.05745229
 H                    -0.14123435     2.58788267     1.76931692
 C                    -1.74957692     1.58477855     0.77541738
 H                    -1.94991215     0.61452687     0.32416969
 H                    -2.42505585     1.70193986     1.62220569
 C                    -2.05797689     2.68698970    -0.23952599
 O                    -1.31863376     3.64233973    -0.42520329
 N                    -3.16286289     2.59834505    -0.94421390
 H                    -3.31969236     3.33196575    -1.61184117
 H                    -3.76443647     1.80148603    -0.84863184
 C                     1.92462856     2.37304576     0.32978765
 O                     3.01397770     1.97490697     0.73064917
 N                     1.72325433     3.64965960     0.03129888
 H                     0.80379236     3.95250034    -0.26620098
 H                     2.48558864     4.29694039     0.13902532

 ==============================================================================
                                internuclear distances
 ------------------------------------------------------------------------------
       center one      |      center two      | atomic units |  angstroms
 ------------------------------------------------------------------------------
    2 C                |   1 H                |     2.05613  |     1.08806
    3 H                |   2 C                |     2.05779  |     1.08893
    4 H                |   2 C                |     2.05679  |     1.08840
    5 C                |   2 C                |     2.85429  |     1.51043
    6 O                |   5 C                |     2.31524  |     1.22517
    7 N                |   5 C                |     2.51561  |     1.33120
    8 H                |   7 N                |     1.89835  |     1.00456
    9 C                |   7 N                |     2.76444  |     1.46288
   10 H                |   9 C                |     2.06175  |     1.09103
   11 C                |   9 C                |     2.89747  |     1.53327
   12 H                |  11 C                |     2.06203  |     1.09118
   13 H                |  11 C                |     2.06115  |     1.09072
   14 H                |  11 C                |     2.06236  |     1.09135
   15 C                |   9 C                |     2.91336  |     1.54169
   16 O                |  15 C                |     2.32652  |     1.23114
   17 N                |  15 C                |     2.52502  |     1.33619
   18 H                |  17 N                |     1.90722  |     1.00926
   19 C                |  17 N                |     2.76908  |     1.46534
   20 H                |  19 C                |     2.05916  |     1.08966
   21 C                |  19 C                |     2.92151  |     1.54600
   22 H                |  21 C                |     2.06286  |     1.09162
   23 H                |  21 C                |     2.06308  |     1.09173
   24 C                |  21 C                |     2.90585  |     1.53771
   25 H                |  24 C                |     2.05724  |     1.08864
   26 H                |  24 C                |     2.05889  |     1.08952
   27 C                |  24 C                |     2.89078  |     1.52974
   28 O                |  27 C                |     2.30964  |     1.22221
   29 N                |  27 C                |     2.48211  |     1.31347
   30 H                |  29 N                |     1.89776  |     1.00425
   31 H                |  29 N                |     1.89540  |     1.00300
   32 C                |  19 C                |     2.90187  |     1.53560
   33 O                |  32 C                |     2.31897  |     1.22715
   34 N                |  32 C                |     2.50657  |     1.32642
   35 H                |  34 N                |     1.91379  |     1.01273
   36 H                |  34 N                |     1.90078  |     1.00585
 ------------------------------------------------------------------------------
                         number of included internuclear distances:         35
 ==============================================================================



 ==============================================================================
                                 internuclear angles
 ------------------------------------------------------------------------------
        center 1       |       center 2       |       center 3       |  degrees
 ------------------------------------------------------------------------------
    1 H                |   2 C                |   3 H                |   109.64
    1 H                |   2 C                |   4 H                |   110.13
    1 H                |   2 C                |   5 C                |   109.43
    3 H                |   2 C                |   4 H                |   109.55
    3 H                |   2 C                |   5 C                |   108.88
    4 H                |   2 C                |   5 C                |   109.19
    2 C                |   5 C                |   6 O                |   120.18
    2 C                |   5 C                |   7 N                |   116.66
    6 O                |   5 C                |   7 N                |   123.15
    5 C                |   7 N                |   8 H                |   118.61
    5 C                |   7 N                |   9 C                |   122.80
    8 H                |   7 N                |   9 C                |   118.11
    7 N                |   9 C                |  10 H                |   108.18
    7 N                |   9 C                |  11 C                |   108.92
    7 N                |   9 C                |  15 C                |   111.71
   10 H                |   9 C                |  11 C                |   108.26
   10 H                |   9 C                |  15 C                |   107.91
   11 C                |   9 C                |  15 C                |   111.74
    9 C                |  11 C                |  12 H                |   109.62
    9 C                |  11 C                |  13 H                |   109.95
    9 C                |  11 C                |  14 H                |   109.97
   12 H                |  11 C                |  13 H                |   108.83
   12 H                |  11 C                |  14 H                |   108.94
   13 H                |  11 C                |  14 H                |   109.51
    9 C                |  15 C                |  16 O                |   120.81
    9 C                |  15 C                |  17 N                |   116.84
   16 O                |  15 C                |  17 N                |   122.32
   15 C                |  17 N                |  18 H                |   118.74
   15 C                |  17 N                |  19 C                |   124.96
   18 H                |  17 N                |  19 C                |   116.31
   17 N                |  19 C                |  20 H                |   108.48
   17 N                |  19 C                |  21 C                |   109.94
   17 N                |  19 C                |  32 C                |   111.66
   20 H                |  19 C                |  21 C                |   109.67
   20 H                |  19 C                |  32 C                |   106.18
   21 C                |  19 C                |  32 C                |   110.80
   19 C                |  21 C                |  22 H                |   110.00
   19 C                |  21 C                |  23 H                |   110.00
   19 C                |  21 C                |  24 C                |   112.71
   22 H                |  21 C                |  23 H                |   106.98
   22 H                |  21 C                |  24 C                |   109.19
   23 H                |  21 C                |  24 C                |   107.76
   21 C                |  24 C                |  25 H                |   109.43
   21 C                |  24 C                |  26 H                |   108.82
   21 C                |  24 C                |  27 C                |   113.22
   25 H                |  24 C                |  26 H                |   107.69
   25 H                |  24 C                |  27 C                |   109.27
   26 H                |  24 C                |  27 C                |   108.25
   24 C                |  27 C                |  28 O                |   122.82
   24 C                |  27 C                |  29 N                |   118.48
   28 O                |  27 C                |  29 N                |   118.69
   27 C                |  29 N                |  30 H                |   116.02
   27 C                |  29 N                |  31 H                |   120.47
   30 H                |  29 N                |  31 H                |   123.37
   19 C                |  32 C                |  33 O                |   121.33
   19 C                |  32 C                |  34 N                |   117.30
   33 O                |  32 C                |  34 N                |   121.37
   32 C                |  34 N                |  35 H                |   119.46
   32 C                |  34 N                |  36 H                |   118.70
   35 H                |  34 N                |  36 H                |   121.81
 ------------------------------------------------------------------------------
                            number of included internuclear angles:         60
 ==============================================================================



  library name resolved from: environment
  library file name is: </opt/rit/el9/20230413/app/linux-rhel9-x86_64_v3/gcc-11.2.1/nwchem-7.2.0-oxtctbuhfuzyfaoziquq6bki22grib3g/share/nwchem/libraries/>
  


 Summary of "ao basis" -> "" (cartesian)
 ------------------------------------------------------------------------------
       Tag                 Description            Shells   Functions and Types
 ---------------- ------------------------------  ------  ---------------------
 *                        aug-cc-pvdz                 on all atoms 


                      Basis "ao basis" -> "ao basis" (cartesian)
                      -----
  H (Hydrogen)
  ------------
            Exponent  Coefficients 
       -------------- ---------------------------------------------------------
  1 S  1.30100000E+01  0.019685
  1 S  1.96200000E+00  0.137977
  1 S  4.44600000E-01  0.478148

  2 S  1.22000000E-01  1.000000

  3 S  2.97400000E-02  1.000000

  4 P  7.27000000E-01  1.000000

  5 P  1.41000000E-01  1.000000

  C (Carbon)
  ----------
            Exponent  Coefficients 
       -------------- ---------------------------------------------------------
  1 S  6.66500000E+03  0.000692
  1 S  1.00000000E+03  0.005329
  1 S  2.28000000E+02  0.027077
  1 S  6.47100000E+01  0.101718
  1 S  2.10600000E+01  0.274740
  1 S  7.49500000E+00  0.448564
  1 S  2.79700000E+00  0.285074
  1 S  5.21500000E-01  0.015204

  2 S  6.66500000E+03 -0.000146
  2 S  1.00000000E+03 -0.001154
  2 S  2.28000000E+02 -0.005725
  2 S  6.47100000E+01 -0.023312
  2 S  2.10600000E+01 -0.063955
  2 S  7.49500000E+00 -0.149981
  2 S  2.79700000E+00 -0.127262
  2 S  5.21500000E-01  0.544529

  3 S  1.59600000E-01  1.000000

  4 S  4.69000000E-02  1.000000

  5 P  9.43900000E+00  0.038109
  5 P  2.00200000E+00  0.209480
  5 P  5.45600000E-01  0.508557

  6 P  1.51700000E-01  1.000000

  7 P  4.04100000E-02  1.000000

  8 D  5.50000000E-01  1.000000

  9 D  1.51000000E-01  1.000000

  O (Oxygen)
  ----------
            Exponent  Coefficients 
       -------------- ---------------------------------------------------------
  1 S  1.17200000E+04  0.000710
  1 S  1.75900000E+03  0.005470
  1 S  4.00800000E+02  0.027837
  1 S  1.13700000E+02  0.104800
  1 S  3.70300000E+01  0.283062
  1 S  1.32700000E+01  0.448719
  1 S  5.02500000E+00  0.270952
  1 S  1.01300000E+00  0.015458

  2 S  1.17200000E+04 -0.000160
  2 S  1.75900000E+03 -0.001263
  2 S  4.00800000E+02 -0.006267
  2 S  1.13700000E+02 -0.025716
  2 S  3.70300000E+01 -0.070924
  2 S  1.32700000E+01 -0.165411
  2 S  5.02500000E+00 -0.116955
  2 S  1.01300000E+00  0.557368

  3 S  3.02300000E-01  1.000000

  4 S  7.89600000E-02  1.000000

  5 P  1.77000000E+01  0.043018
  5 P  3.85400000E+00  0.228913
  5 P  1.04600000E+00  0.508728

  6 P  2.75300000E-01  1.000000

  7 P  6.85600000E-02  1.000000

  8 D  1.18500000E+00  1.000000

  9 D  3.32000000E-01  1.000000

  N (Nitrogen)
  ------------
            Exponent  Coefficients 
       -------------- ---------------------------------------------------------
  1 S  9.04600000E+03  0.000700
  1 S  1.35700000E+03  0.005389
  1 S  3.09300000E+02  0.027406
  1 S  8.77300000E+01  0.103207
  1 S  2.85600000E+01  0.278723
  1 S  1.02100000E+01  0.448540
  1 S  3.83800000E+00  0.278238
  1 S  7.46600000E-01  0.015440

  2 S  9.04600000E+03 -0.000153
  2 S  1.35700000E+03 -0.001208
  2 S  3.09300000E+02 -0.005992
  2 S  8.77300000E+01 -0.024544
  2 S  2.85600000E+01 -0.067459
  2 S  1.02100000E+01 -0.158078
  2 S  3.83800000E+00 -0.121831
  2 S  7.46600000E-01  0.549003

  3 S  2.24800000E-01  1.000000

  4 S  6.12400000E-02  1.000000

  5 P  1.35500000E+01  0.039919
  5 P  2.91700000E+00  0.217169
  5 P  7.97300000E-01  0.510319

  6 P  2.18500000E-01  1.000000

  7 P  5.61100000E-02  1.000000

  8 D  8.17000000E-01  1.000000

  9 D  2.30000000E-01  1.000000



 Summary of "ao basis" -> "ao basis" (cartesian)
 ------------------------------------------------------------------------------
       Tag                 Description            Shells   Functions and Types
 ---------------- ------------------------------  ------  ---------------------
 H                        aug-cc-pvdz                5        9   3s2p
 C                        aug-cc-pvdz                9       25   4s3p2d
 O                        aug-cc-pvdz                9       25   4s3p2d
 N                        aug-cc-pvdz                9       25   4s3p2d


                                 NWChem SCF Module
                                 -----------------



  ao basis        = "ao basis"
  functions       =   612
  atoms           =    36
  closed shells   =    69
  open shells     =     0
  charge          =   0.00
  wavefunction    = RHF 
  input vectors   = atomic
  output vectors  = ./ALA_GLN_4.movecs
  use symmetry    = F
  symmetry adapt  = F


 Summary of "ao basis" -> "ao basis" (cartesian)
 ------------------------------------------------------------------------------
       Tag                 Description            Shells   Functions and Types
 ---------------- ------------------------------  ------  ---------------------
 H                        aug-cc-pvdz                5        9   3s2p
 C                        aug-cc-pvdz                9       25   4s3p2d
 O                        aug-cc-pvdz                9       25   4s3p2d
 N                        aug-cc-pvdz                9       25   4s3p2d



 Forming initial guess at       1.1s


 !! The overlap matrix has   5 vectors deemed linearly dependent with
    eigenvalues:
 2.52D-06 3.08D-06 6.19D-06 7.79D-06 8.59D-06


      Superposition of Atomic Density Guess
      -------------------------------------

 Sum of atomic energies:        -901.93634758

      Non-variational initial energy
      ------------------------------

 Total energy =    -913.509980
 1-e energy   =   -4019.183999
 2-e energy   =    1700.349869
 HOMO         =      -0.315087
 LUMO         =       0.012771


 Starting SCF solution at     258.0s



 ----------------------------------------------
         Quadratically convergent ROHF

 Convergence threshold     :          1.000E-04
 Maximum no. of iterations :           30
 Final Fock-matrix accuracy:          1.000E-10
 ----------------------------------------------


              iter       energy          gnorm     gmax       time
             ----- ------------------- --------- --------- --------
                 1     -906.2006616863  2.66D+00  1.63D-01    541.4
                 2     -906.5737872372  8.69D-01  4.52D-02   1051.5
                 3     -906.6393788697  6.80D-02  6.06D-03   1892.2
                 4     -906.6400959978  4.04D-03  3.97D-04   3003.1
                 5     -906.6400990244  7.75D-06  5.29D-07   4934.2


       Final RHF  results 
       ------------------ 

         Total SCF energy =   -906.640099024447
      One-electron energy =  -4032.970852577871
      Two-electron energy =   1721.006603643547
 Nuclear repulsion energy =   1405.324149909878

        Time for solution =   4684.1s


             Final eigenvalues
             -----------------

              1      
    1  -20.5329
    2  -20.5241
    3  -20.5236
    4  -20.5213
    5  -15.6017
    6  -15.5992
    7  -15.5946
    8  -15.5821
    9  -11.3631
   10  -11.3569
   11  -11.3539
   12  -11.3535
   13  -11.2993
   14  -11.2903
   15  -11.2500
   16  -11.2486
   17  -11.2433
   18  -11.2423
   19   -1.4019
   20   -1.3894
   21   -1.3824
   22   -1.3761
   23   -1.2470
   24   -1.2386
   25   -1.2340
   26   -1.2132
   27   -1.0851
   28   -1.0595
   29   -0.9971
   30   -0.9868
   31   -0.8986
   32   -0.8749
   33   -0.8183
   34   -0.7997
   35   -0.7944
   36   -0.7845
   37   -0.7471
   38   -0.7351
   39   -0.7105
   40   -0.6886
   41   -0.6805
   42   -0.6705
   43   -0.6654
   44   -0.6378
   45   -0.6352
   46   -0.6200
   47   -0.6127
   48   -0.6025
   49   -0.6015
   50   -0.5845
   51   -0.5819
   52   -0.5717
   53   -0.5601
   54   -0.5533
   55   -0.5447
   56   -0.5412
   57   -0.5227
   58   -0.5179
   59   -0.5128
   60   -0.5052
   61   -0.4954
   62   -0.4345
   63   -0.4302
   64   -0.4244
   65   -0.4207
   66   -0.4173
   67   -0.4052
   68   -0.3976
   69   -0.3879
   70    0.0267
   71    0.0319
   72    0.0409
   73    0.0444
   74    0.0481
   75    0.0507
   76    0.0544
   77    0.0605
   78    0.0655
   79    0.0713

                       ROHF Final Molecular Orbital Analysis
                       -------------------------------------

 Vector   19  Occ=2.000000D+00  E=-1.401924D+00
              MO Center= -1.7D+00,  3.2D+00, -4.2D-01, r^2= 9.2D-01
   Bfn.  Coefficient  Atom+Function         Bfn.  Coefficient  Atom+Function  
  ----- ------------  ---------------      ----- ------------  ---------------
   454      0.369375  28 O  s               453      0.349794  28 O  s         
   428      0.246510  27 C  s         

 Vector   20  Occ=2.000000D+00  E=-1.389372D+00
              MO Center=  4.0D-03, -1.6D+00,  1.5D-01, r^2= 5.3D+00
   Bfn.  Coefficient  Atom+Function         Bfn.  Coefficient  Atom+Function  
  ----- ------------  ---------------      ----- ------------  ---------------
   250      0.241074  16 O  s                80      0.237429   6 O  s         
    79      0.231191   6 O  s               249      0.221828  16 O  s         
    54      0.170533   5 C  s               224      0.164846  15 C  s         

 Vector   21  Occ=2.000000D+00  E=-1.382402D+00
              MO Center=  1.4D+00,  3.6D-01,  6.5D-01, r^2= 9.4D+00
   Bfn.  Coefficient  Atom+Function         Bfn.  Coefficient  Atom+Function  
  ----- ------------  ---------------      ----- ------------  ---------------
   547      0.300734  33 O  s               546      0.277748  33 O  s         
    79     -0.198626   6 O  s                80     -0.198986   6 O  s         
   521      0.195218  32 C  s         

 Vector   22  Occ=2.000000D+00  E=-1.376139D+00
              MO Center=  6.0D-01, -3.9D-01, -7.0D-02, r^2= 6.9D+00
   Bfn.  Coefficient  Atom+Function         Bfn.  Coefficient  Atom+Function  
  ----- ------------  ---------------      ----- ------------  ---------------
   250      0.276640  16 O  s               249      0.259113  16 O  s         
   547     -0.207164  33 O  s               546     -0.192578  33 O  s         
   224      0.174583  15 C  s                79     -0.167548   6 O  s         
    80     -0.165980   6 O  s         

 Vector   23  Occ=2.000000D+00  E=-1.246987D+00
              MO Center=  5.4D-02, -3.2D+00, -9.8D-02, r^2= 1.8D+00
   Bfn.  Coefficient  Atom+Function         Bfn.  Coefficient  Atom+Function  
  ----- ------------  ---------------      ----- ------------  ---------------
   105      0.420278   7 N  s               104      0.339469   7 N  s         
    80     -0.216622   6 O  s                79     -0.186112   6 O  s         
    59     -0.180341   5 C  pz              128      0.156883   8 H  s         

 Vector   24  Occ=2.000000D+00  E=-1.238600D+00
              MO Center=  8.8D-01, -1.6D-02, -5.5D-02, r^2= 2.0D+00
   Bfn.  Coefficient  Atom+Function         Bfn.  Coefficient  Atom+Function  
  ----- ------------  ---------------      ----- ------------  ---------------
   275      0.430883  17 N  s               274      0.341246  17 N  s         
   250     -0.214445  16 O  s               249     -0.174261  16 O  s         
   298      0.152060  18 H  s         

 Vector   25  Occ=2.000000D+00  E=-1.234044D+00
              MO Center= -2.7D+00,  2.7D+00, -7.5D-01, r^2= 1.5D+00
   Bfn.  Coefficient  Atom+Function         Bfn.  Coefficient  Atom+Function  
  ----- ------------  ---------------      ----- ------------  ---------------
   479      0.414260  29 N  s               478      0.366276  29 N  s         
   454     -0.225857  28 O  s               453     -0.191495  28 O  s         
   431     -0.187398  27 C  px              511      0.169215  31 H  s         
   502      0.154762  30 H  s         

 Vector   26  Occ=2.000000D+00  E=-1.213203D+00
              MO Center=  1.8D+00,  3.2D+00,  1.4D-01, r^2= 1.5D+00
   Bfn.  Coefficient  Atom+Function         Bfn.  Coefficient  Atom+Function  
  ----- ------------  ---------------      ----- ------------  ---------------
   572      0.386238  34 N  s               571      0.367342  34 N  s         
   547     -0.212430  33 O  s               546     -0.178140  33 O  s         
   525      0.169713  32 C  py              595      0.161725  35 H  s         
   604      0.155843  36 H  s               528     -0.151392  32 C  py        

 Vector   27  Occ=2.000000D+00  E=-1.085059D+00
              MO Center= -1.6D-01,  6.9D-01,  4.3D-01, r^2= 6.2D+00
   Bfn.  Coefficient  Atom+Function         Bfn.  Coefficient  Atom+Function  
  ----- ------------  ---------------      ----- ------------  ---------------
   386      0.256485  24 C  s               342      0.224101  21 C  s         
   385      0.196899  24 C  s               308      0.165535  19 C  s         

 Vector   28  Occ=2.000000D+00  E=-1.059489D+00
              MO Center=  3.6D-01, -1.9D+00, -2.5D-01, r^2= 8.1D+00
   Bfn.  Coefficient  Atom+Function         Bfn.  Coefficient  Atom+Function  
  ----- ------------  ---------------      ----- ------------  ---------------
   138      0.210518   9 C  s               172      0.200689  11 C  s         
    12     -0.174597   2 C  s         

 Vector   29  Occ=2.000000D+00  E=-9.971363D-01
              MO Center= -9.6D-01, -2.7D+00,  2.5D-01, r^2= 1.0D+01
   Bfn.  Coefficient  Atom+Function         Bfn.  Coefficient  Atom+Function  
  ----- ------------  ---------------      ----- ------------  ---------------
    11      0.292013   2 C  s                56     -0.223215   5 C  s         
    13      0.170059   2 C  s         

 Vector   30  Occ=2.000000D+00  E=-9.867822D-01
              MO Center=  4.2D-03, -1.5D-01, -2.1D-02, r^2= 1.1D+01
   Bfn.  Coefficient  Atom+Function         Bfn.  Coefficient  Atom+Function  
  ----- ------------  ---------------      ----- ------------  ---------------
   139      0.242420   9 C  s               308     -0.197461  19 C  s         
   225     -0.185685  15 C  s               385      0.182806  24 C  s         
   144     -0.181813   9 C  px              386      0.176985  24 C  s         
   172     -0.163151  11 C  s               231      0.163683  15 C  py        

 Vector   31  Occ=2.000000D+00  E=-8.986209D-01
              MO Center=  6.6D-01, -1.2D+00, -4.7D-01, r^2= 8.9D+00
   Bfn.  Coefficient  Atom+Function         Bfn.  Coefficient  Atom+Function  
  ----- ------------  ---------------      ----- ------------  ---------------
   139      0.360185   9 C  s               145      0.284845   9 C  py        
   225     -0.271195  15 C  s               144     -0.232422   9 C  px        
   231      0.216597  15 C  py              172     -0.213300  11 C  s         
   386     -0.168579  24 C  s               138      0.166810   9 C  s         
   245     -0.152885  15 C  dyy       

 Vector   32  Occ=2.000000D+00  E=-8.748715D-01
              MO Center= -6.5D-02,  1.1D+00,  1.6D-01, r^2= 9.4D+00
   Bfn.  Coefficient  Atom+Function         Bfn.  Coefficient  Atom+Function  
  ----- ------------  ---------------      ----- ------------  ---------------
   309      0.268056  19 C  s               386      0.259266  24 C  s         
   342     -0.205246  21 C  s               314      0.189487  19 C  px        

 Vector   33  Occ=2.000000D+00  E=-8.182562D-01
              MO Center=  5.9D-01, -1.3D+00, -9.8D-02, r^2= 1.0D+01
   Bfn.  Coefficient  Atom+Function         Bfn.  Coefficient  Atom+Function  
  ----- ------------  ---------------      ----- ------------  ---------------
   109      0.203815   7 N  pz              107     -0.173465   7 N  px        
    54      0.165874   5 C  s               309      0.166043  19 C  s         
   575     -0.165722  34 N  py              225      0.157454  15 C  s         

 Vector   34  Occ=2.000000D+00  E=-7.997464D-01
              MO Center= -2.0D+00,  2.2D+00, -3.7D-01, r^2= 6.1D+00
   Bfn.  Coefficient  Atom+Function         Bfn.  Coefficient  Atom+Function  
  ----- ------------  ---------------      ----- ------------  ---------------
   481      0.296393  29 N  px              511     -0.237323  31 H  s         
   428      0.189824  27 C  s               309     -0.174398  19 C  s         
   454     -0.164224  28 O  s               479     -0.161190  29 N  s         
   429      0.151502  27 C  s         

 Vector   35  Occ=2.000000D+00  E=-7.944088D-01
              MO Center=  3.7D-01, -1.0D+00, -1.4D-01, r^2= 1.1D+01
   Bfn.  Coefficient  Atom+Function         Bfn.  Coefficient  Atom+Function  
  ----- ------------  ---------------      ----- ------------  ---------------
   109      0.255684   7 N  pz              128     -0.246780   8 H  s         
    55      0.173399   5 C  s               105     -0.172369   7 N  s         
   575      0.160051  34 N  py        

 Vector   36  Occ=2.000000D+00  E=-7.844769D-01
              MO Center=  1.0D+00,  1.1D+00,  1.1D-01, r^2= 4.3D+00
   Bfn.  Coefficient  Atom+Function         Bfn.  Coefficient  Atom+Function  
  ----- ------------  ---------------      ----- ------------  ---------------
   225      0.293368  15 C  s               298     -0.272312  18 H  s         
   333      0.258671  20 H  s               275     -0.256576  17 N  s         
   277     -0.237711  17 N  px              279     -0.176659  17 N  pz        
   575      0.175230  34 N  py              315     -0.170768  19 C  py        
   332      0.164579  20 H  s         

 Vector   37  Occ=2.000000D+00  E=-7.470804D-01
              MO Center= -6.7D-01,  1.7D+00, -2.5D-01, r^2= 1.0D+01
   Bfn.  Coefficient  Atom+Function         Bfn.  Coefficient  Atom+Function  
  ----- ------------  ---------------      ----- ------------  ---------------
   482      0.225311  29 N  py              502      0.214811  30 H  s         
   225      0.207156  15 C  s               574      0.186683  34 N  px        
   145     -0.175094   9 C  py              595     -0.174997  35 H  s         
   511     -0.167899  31 H  s         

 Vector   38  Occ=2.000000D+00  E=-7.350962D-01
              MO Center= -7.9D-01,  2.1D+00, -3.5D-01, r^2= 1.0D+01
   Bfn.  Coefficient  Atom+Function         Bfn.  Coefficient  Atom+Function  
  ----- ------------  ---------------      ----- ------------  ---------------
   482      0.259988  29 N  py              502      0.221731  30 H  s         
   511     -0.218807  31 H  s               574     -0.212798  34 N  px        
   595      0.198838  35 H  s               386      0.165031  24 C  s         
   522     -0.154368  32 C  s         

 Vector   39  Occ=2.000000D+00  E=-7.104988D-01
              MO Center=  9.2D-01,  9.5D-02, -2.7D-01, r^2= 1.1D+01
   Bfn.  Coefficient  Atom+Function         Bfn.  Coefficient  Atom+Function  
  ----- ------------  ---------------      ----- ------------  ---------------
   225      0.312571  15 C  s               145     -0.280799   9 C  py        
   574     -0.240738  34 N  px              139     -0.229768   9 C  s         
   604     -0.214430  36 H  s               228      0.206424  15 C  py        
    55      0.182136   5 C  s               142     -0.174827   9 C  py        
   595      0.164385  35 H  s         

 Vector   40  Occ=2.000000D+00  E=-6.886031D-01
              MO Center= -8.8D-01,  1.3D+00, -9.3D-02, r^2= 8.6D+00
   Bfn.  Coefficient  Atom+Function         Bfn.  Coefficient  Atom+Function  
  ----- ------------  ---------------      ----- ------------  ---------------
   457     -0.215896  28 O  py              431      0.204199  27 C  px        
   454     -0.203560  28 O  s         

 Vector   41  Occ=2.000000D+00  E=-6.805484D-01
              MO Center= -5.6D-01, -1.8D+00, -4.3D-02, r^2= 1.1D+01
   Bfn.  Coefficient  Atom+Function         Bfn.  Coefficient  Atom+Function  
  ----- ------------  ---------------      ----- ------------  ---------------
   139      0.219892   9 C  s               141      0.163774   9 C  px        
   145      0.163007   9 C  py              231      0.159101  15 C  py        
   108     -0.154860   7 N  py        

 Vector   42  Occ=2.000000D+00  E=-6.704564D-01
              MO Center= -3.9D-01, -2.1D+00,  5.4D-01, r^2= 8.4D+00
   Bfn.  Coefficient  Atom+Function         Bfn.  Coefficient  Atom+Function  
  ----- ------------  ---------------      ----- ------------  ---------------
    80      0.237163   6 O  s                84      0.198620   6 O  pz        
    83      0.197522   6 O  py               59     -0.190923   5 C  pz        
   309      0.188855  19 C  s               145      0.154741   9 C  py        

 Vector   43  Occ=2.000000D+00  E=-6.654131D-01
              MO Center=  9.5D-01,  1.3D+00,  2.9D-01, r^2= 8.4D+00
   Bfn.  Coefficient  Atom+Function         Bfn.  Coefficient  Atom+Function  
  ----- ------------  ---------------      ----- ------------  ---------------
   525      0.239847  32 C  py              309      0.223181  19 C  s         
   549      0.218891  33 O  px              575     -0.190115  34 N  py        
   275      0.166689  17 N  s               311     -0.164128  19 C  px        
   547      0.162981  33 O  s               231     -0.160799  15 C  py        
   528      0.153872  32 C  py        

 Vector   44  Occ=2.000000D+00  E=-6.378392D-01
              MO Center=  3.7D-01,  6.1D-01,  1.2D-01, r^2= 9.9D+00
   Bfn.  Coefficient  Atom+Function         Bfn.  Coefficient  Atom+Function  
  ----- ------------  ---------------      ----- ------------  ---------------
   309      0.271681  19 C  s               315      0.234454  19 C  py        
   278     -0.210011  17 N  py              139     -0.183740   9 C  s         
   312      0.175405  19 C  py              549     -0.171334  33 O  px        
   333     -0.163233  20 H  s               522     -0.156997  32 C  s         
   525     -0.156357  32 C  py        

 Vector   45  Occ=2.000000D+00  E=-6.351870D-01
              MO Center=  7.6D-02,  1.2D+00,  1.0D-01, r^2= 7.1D+00
   Bfn.  Coefficient  Atom+Function         Bfn.  Coefficient  Atom+Function  
  ----- ------------  ---------------      ----- ------------  ---------------
   313      0.192824  19 C  pz              333     -0.183570  20 H  s         
   309      0.182569  19 C  s               332     -0.167326  20 H  s         
   549     -0.152154  33 O  px        

 Vector   46  Occ=2.000000D+00  E=-6.200046D-01
              MO Center= -9.3D-01, -2.9D+00,  9.9D-02, r^2= 7.5D+00
   Bfn.  Coefficient  Atom+Function         Bfn.  Coefficient  Atom+Function  
  ----- ------------  ---------------      ----- ------------  ---------------
   139      0.320416   9 C  s               225     -0.255713  15 C  s         
    15      0.207550   2 C  py                1     -0.203207   1 H  s         
    44      0.189152   4 H  s               252     -0.177597  16 O  px        

 Vector   47  Occ=2.000000D+00  E=-6.126969D-01
              MO Center= -7.8D-02,  1.7D+00,  4.5D-02, r^2= 8.7D+00
   Bfn.  Coefficient  Atom+Function         Bfn.  Coefficient  Atom+Function  
  ----- ------------  ---------------      ----- ------------  ---------------
   457      0.214361  28 O  py        

 Vector   48  Occ=2.000000D+00  E=-6.024770D-01
              MO Center= -2.8D-01,  1.6D+00,  4.2D-02, r^2= 9.6D+00
   Bfn.  Coefficient  Atom+Function         Bfn.  Coefficient  Atom+Function  
  ----- ------------  ---------------      ----- ------------  ---------------
   456      0.253193  28 O  px              343      0.237028  21 C  s         
   432     -0.230435  27 C  py              309     -0.217312  19 C  s         
   524      0.179276  32 C  px              459      0.155959  28 O  px        
   174     -0.153896  11 C  s         

 Vector   49  Occ=2.000000D+00  E=-6.015157D-01
              MO Center=  3.4D-01, -8.7D-01, -5.9D-01, r^2= 1.0D+01
   Bfn.  Coefficient  Atom+Function         Bfn.  Coefficient  Atom+Function  
  ----- ------------  ---------------      ----- ------------  ---------------
   252      0.211371  16 O  px              333     -0.198868  20 H  s         
   250     -0.183238  16 O  s               254      0.177186  16 O  pz        
   227     -0.163422  15 C  px              205      0.159101  13 H  s         

 Vector   50  Occ=2.000000D+00  E=-5.845487D-01
              MO Center=  7.5D-01, -2.1D-01, -4.6D-02, r^2= 1.2D+01
   Bfn.  Coefficient  Atom+Function         Bfn.  Coefficient  Atom+Function  
  ----- ------------  ---------------      ----- ------------  ---------------
   551      0.189223  33 O  pz              524     -0.166402  32 C  px        

 Vector   51  Occ=2.000000D+00  E=-5.818517D-01
              MO Center=  4.8D-01, -2.5D+00, -2.1D-01, r^2= 9.7D+00
   Bfn.  Coefficient  Atom+Function         Bfn.  Coefficient  Atom+Function  
  ----- ------------  ---------------      ----- ------------  ---------------
   196      0.240724  12 H  s               175      0.216979  11 C  px        
    84     -0.204340   6 O  pz              145      0.197194   9 C  py        
   197      0.196650  12 H  s               139      0.176632   9 C  s         
   163     -0.170146  10 H  s                35      0.167247   3 H  s         
   176      0.155852  11 C  py               59      0.153035   5 C  pz        

 Vector   52  Occ=2.000000D+00  E=-5.717291D-01
              MO Center= -8.0D-01, -3.3D+00,  4.6D-01, r^2= 8.1D+00
   Bfn.  Coefficient  Atom+Function         Bfn.  Coefficient  Atom+Function  
  ----- ------------  ---------------      ----- ------------  ---------------
    16      0.279389   2 C  pz               36      0.270735   3 H  s         
    84      0.262767   6 O  pz               35      0.228323   3 H  s         
    44     -0.162824   4 H  s         

 Vector   53  Occ=2.000000D+00  E=-5.601228D-01
              MO Center= -3.0D-01,  8.7D-01,  1.8D-02, r^2= 1.1D+01
   Bfn.  Coefficient  Atom+Function         Bfn.  Coefficient  Atom+Function  
  ----- ------------  ---------------      ----- ------------  ---------------
   347     -0.164060  21 C  pz              432      0.159765  27 C  py        
   456     -0.159478  28 O  px              483      0.155048  29 N  pz        
   252      0.154018  16 O  px              311     -0.153033  19 C  px        

 Vector   54  Occ=2.000000D+00  E=-5.532943D-01
              MO Center=  3.8D-01,  1.3D+00,  1.5D-01, r^2= 1.1D+01
   Bfn.  Coefficient  Atom+Function         Bfn.  Coefficient  Atom+Function  
  ----- ------------  ---------------      ----- ------------  ---------------
   333      0.217036  20 H  s               526      0.186410  32 C  pz        
   390      0.169074  24 C  pz              576      0.153094  34 N  pz        

 Vector   55  Occ=2.000000D+00  E=-5.446877D-01
              MO Center=  5.9D-01, -2.6D+00, -5.7D-01, r^2= 8.3D+00
   Bfn.  Coefficient  Atom+Function         Bfn.  Coefficient  Atom+Function  
  ----- ------------  ---------------      ----- ------------  ---------------
   197      0.266830  12 H  s               176      0.261655  11 C  py        
    55     -0.220820   5 C  s                12      0.217391   2 C  s         
   196      0.214842  12 H  s               205     -0.215510  13 H  s         
   206     -0.212339  13 H  s                35     -0.201264   3 H  s         
   309      0.198926  19 C  s                16     -0.166589   2 C  pz        

 Vector   56  Occ=2.000000D+00  E=-5.412021D-01
              MO Center=  3.4D-01, -1.8D+00, -5.6D-01, r^2= 1.1D+01
   Bfn.  Coefficient  Atom+Function         Bfn.  Coefficient  Atom+Function  
  ----- ------------  ---------------      ----- ------------  ---------------
   214      0.240730  14 H  s               177     -0.195396  11 C  pz        
   215      0.189936  14 H  s               174      0.181935  11 C  s         
   309      0.174337  19 C  s               108     -0.169983   7 N  py        
   175     -0.164112  11 C  px              162      0.153574  10 H  s         
   206     -0.153104  13 H  s               197     -0.152288  12 H  s         

 Vector   57  Occ=2.000000D+00  E=-5.227413D-01
              MO Center=  9.8D-02, -1.6D+00,  3.8D-02, r^2= 9.5D+00
   Bfn.  Coefficient  Atom+Function         Bfn.  Coefficient  Atom+Function  
  ----- ------------  ---------------      ----- ------------  ---------------
   333      0.242774  20 H  s               367      0.190620  22 H  s         
   366      0.164070  22 H  s               175      0.162752  11 C  px        
   309     -0.160468  19 C  s                83     -0.156995   6 O  py        
   107      0.154840   7 N  px              143      0.154333   9 C  pz        
   254     -0.154345  16 O  pz              346     -0.150473  21 C  py        

 Vector   58  Occ=2.000000D+00  E=-5.179035D-01
              MO Center=  1.8D-02,  5.2D-01,  2.6D-01, r^2= 8.3D+00
   Bfn.  Coefficient  Atom+Function         Bfn.  Coefficient  Atom+Function  
  ----- ------------  ---------------      ----- ------------  ---------------
   388      0.229062  24 C  px              343      0.205260  21 C  s         
   418     -0.195357  26 H  s               345     -0.186666  21 C  px        
   143      0.185406   9 C  pz              177     -0.161145  11 C  pz        
   278      0.151405  17 N  py        

 Vector   59  Occ=2.000000D+00  E=-5.127938D-01
              MO Center=  3.5D-02, -9.0D-01,  3.7D-01, r^2= 1.0D+01
   Bfn.  Coefficient  Atom+Function         Bfn.  Coefficient  Atom+Function  
  ----- ------------  ---------------      ----- ------------  ---------------
   367      0.212640  22 H  s               366      0.191080  22 H  s         
   333      0.157524  20 H  s                83      0.151588   6 O  py        
   347      0.151721  21 C  pz        

 Vector   60  Occ=2.000000D+00  E=-5.051664D-01
              MO Center= -2.9D-01,  1.6D+00,  8.2D-01, r^2= 5.0D+00
   Bfn.  Coefficient  Atom+Function         Bfn.  Coefficient  Atom+Function  
  ----- ------------  ---------------      ----- ------------  ---------------
   376      0.330188  23 H  s               348      0.284943  21 C  px        
   386      0.260833  24 C  s               375      0.250061  23 H  s         
   409      0.230466  25 H  s               430      0.226872  27 C  s         
   345      0.224639  21 C  px              388     -0.216659  24 C  px        
   346      0.203433  21 C  py              419     -0.190243  26 H  s         

 Vector   61  Occ=2.000000D+00  E=-4.954090D-01
              MO Center=  5.7D-02, -1.1D-01,  2.4D-02, r^2= 8.0D+00
   Bfn.  Coefficient  Atom+Function         Bfn.  Coefficient  Atom+Function  
  ----- ------------  ---------------      ----- ------------  ---------------
   343      0.245592  21 C  s               313     -0.222445  19 C  pz        
   347      0.195238  21 C  pz              254      0.193339  16 O  pz        
   419     -0.184279  26 H  s               314      0.174832  19 C  px        
   252     -0.172454  16 O  px              163     -0.157627  10 H  s         
   174     -0.155329  11 C  s               257      0.155118  16 O  pz        

 Vector   62  Occ=2.000000D+00  E=-4.345337D-01
              MO Center= -1.3D+00,  2.8D+00, -2.2D-01, r^2= 4.3D+00
   Bfn.  Coefficient  Atom+Function         Bfn.  Coefficient  Atom+Function  
  ----- ------------  ---------------      ----- ------------  ---------------
   458      0.336327  28 O  pz              386      0.317695  24 C  s         
   456      0.309656  28 O  px              461      0.264594  28 O  pz        
   459      0.262516  28 O  px              457     -0.220129  28 O  py        
   343     -0.212330  21 C  s               429     -0.181763  27 C  s         
   389     -0.174333  24 C  py               13      0.167153   2 C  s         

 Vector   63  Occ=2.000000D+00  E=-4.301838D-01
              MO Center= -1.1D-01, -9.3D-01, -5.0D-01, r^2= 6.2D+00
   Bfn.  Coefficient  Atom+Function         Bfn.  Coefficient  Atom+Function  
  ----- ------------  ---------------      ----- ------------  ---------------
   253      0.445439  16 O  py              256      0.349709  16 O  py        
    82      0.158628   6 O  px        

 Vector   64  Occ=2.000000D+00  E=-4.243556D-01
              MO Center= -2.0D+00,  2.9D+00, -5.9D-01, r^2= 4.0D+00
   Bfn.  Coefficient  Atom+Function         Bfn.  Coefficient  Atom+Function  
  ----- ------------  ---------------      ----- ------------  ---------------
   483     -0.301340  29 N  pz              458      0.274358  28 O  pz        
   486     -0.239547  29 N  pz              480     -0.238262  29 N  s         
   481      0.221905  29 N  px              484      0.220734  29 N  px        
   461      0.218244  28 O  pz              482     -0.215925  29 N  py        
   457      0.202787  28 O  py              485     -0.186562  29 N  py        

 Vector   65  Occ=2.000000D+00  E=-4.206550D-01
              MO Center= -7.1D-01, -3.2D+00,  1.2D+00, r^2= 2.4D+00
   Bfn.  Coefficient  Atom+Function         Bfn.  Coefficient  Atom+Function  
  ----- ------------  ---------------      ----- ------------  ---------------
    82     -0.445960   6 O  px               13      0.408404   2 C  s         
    85     -0.352798   6 O  px               83     -0.275684   6 O  py        
    56     -0.259952   5 C  s                86     -0.214598   6 O  py        
    63      0.192561   5 C  px              105      0.187621   7 N  s         
    18     -0.177779   2 C  py               17     -0.176049   2 C  px        

 Vector   66  Occ=2.000000D+00  E=-4.172838D-01
              MO Center=  1.7D+00,  1.7D+00,  3.5D-01, r^2= 5.8D+00
   Bfn.  Coefficient  Atom+Function         Bfn.  Coefficient  Atom+Function  
  ----- ------------  ---------------      ----- ------------  ---------------
   550     -0.433027  33 O  py              309      0.419721  19 C  s         
   553     -0.350426  33 O  py              522     -0.291850  32 C  s         
   528      0.224750  32 C  py              139     -0.215386   9 C  s         
   549     -0.209186  33 O  px              540     -0.200680  32 C  dxy       
   333     -0.193507  20 H  s               311     -0.188498  19 C  px        

 Vector   67  Occ=2.000000D+00  E=-4.052168D-01
              MO Center=  2.1D+00,  2.7D+00,  3.0D-01, r^2= 3.1D+00
   Bfn.  Coefficient  Atom+Function         Bfn.  Coefficient  Atom+Function  
  ----- ------------  ---------------      ----- ------------  ---------------
   576      0.409210  34 N  pz              551     -0.358691  33 O  pz        
   579      0.351232  34 N  pz              554     -0.280193  33 O  pz        
    56     -0.157911   5 C  s         

 Vector   68  Occ=2.000000D+00  E=-3.975875D-01
              MO Center=  6.7D-02, -2.5D+00,  2.2D-02, r^2= 3.9D+00
   Bfn.  Coefficient  Atom+Function         Bfn.  Coefficient  Atom+Function  
  ----- ------------  ---------------      ----- ------------  ---------------
   108      0.263913   7 N  py              107     -0.254892   7 N  px        
   111      0.247553   7 N  py               83     -0.231964   6 O  py        
   253     -0.229497  16 O  py              110     -0.217462   7 N  px        
   256     -0.196812  16 O  py               86     -0.185092   6 O  py        
   228      0.154805  15 C  py        

 Vector   69  Occ=2.000000D+00  E=-3.878680D-01
              MO Center=  6.5D-01,  1.9D-01, -1.4D-01, r^2= 4.2D+00
   Bfn.  Coefficient  Atom+Function         Bfn.  Coefficient  Atom+Function  
  ----- ------------  ---------------      ----- ------------  ---------------
   279      0.326358  17 N  pz              282      0.301531  17 N  pz        
   254     -0.248328  16 O  pz              277     -0.243304  17 N  px        
   280     -0.239327  17 N  px              252      0.202816  16 O  px        
   257     -0.202544  16 O  pz              317      0.169465  19 C  px        
   255      0.160962  16 O  px        

 Vector   70  Occ=0.000000D+00  E= 2.671383D-02
              MO Center= -3.2D+00, -1.3D+00, -1.2D+00, r^2= 3.3D+01
   Bfn.  Coefficient  Atom+Function         Bfn.  Coefficient  Atom+Function  
  ----- ------------  ---------------      ----- ------------  ---------------
    56      2.310477   5 C  s               480     -2.239973  29 N  s         
   411      2.198935  25 H  s                63     -1.885932   5 C  px        
   513     -1.846311  31 H  s                64     -1.825620   5 C  py        
   430      1.687442  27 C  s               437     -1.607072  27 C  px        
   439     -1.587711  27 C  pz               46     -1.562955   4 H  s         

 Vector   71  Occ=0.000000D+00  E= 3.193394D-02
              MO Center= -1.0D+00, -2.5D+00, -1.4D+00, r^2= 4.2D+01
   Bfn.  Coefficient  Atom+Function         Bfn.  Coefficient  Atom+Function  
  ----- ------------  ---------------      ----- ------------  ---------------
   234      2.688760  15 C  py              106      2.352753   7 N  s         
   207      2.245783  13 H  s               430      1.934611  27 C  s         
   480     -1.814496  29 N  s               318      1.676995  19 C  py        
     3      1.633474   1 H  s               420     -1.474361  26 H  s         
    13     -1.463615   2 C  s               173     -1.450978  11 C  s         

 Vector   72  Occ=0.000000D+00  E= 4.092417D-02
              MO Center= -1.5D-01, -8.4D-01, -1.1D+00, r^2= 4.8D+01
   Bfn.  Coefficient  Atom+Function         Bfn.  Coefficient  Atom+Function  
  ----- ------------  ---------------      ----- ------------  ---------------
    63      3.219126   5 C  px               64      3.096200   5 C  py        
   147      3.081754   9 C  px              149     -2.732573   9 C  pz        
   387      2.667332  24 C  s               317      2.240088  19 C  px        
   344      1.942592  21 C  s               573     -1.853630  34 N  s         
    12     -1.828096   2 C  s               531      1.773099  32 C  py        

 Vector   73  Occ=0.000000D+00  E= 4.440013D-02
              MO Center= -8.8D-01,  1.8D+00,  1.5D+00, r^2= 3.7D+01
   Bfn.  Coefficient  Atom+Function         Bfn.  Coefficient  Atom+Function  
  ----- ------------  ---------------      ----- ------------  ---------------
   430      3.375394  27 C  s               174      3.313156  11 C  s         
   420     -2.735376  26 H  s               523      2.641824  32 C  s         
   573     -2.261161  34 N  s               387     -2.180775  24 C  s         
   149      2.086356   9 C  pz              234      2.088896  15 C  py        
   344     -1.946050  21 C  s               396      1.896551  24 C  pz        

 Vector   74  Occ=0.000000D+00  E= 4.811478D-02
              MO Center=  1.1D+00,  6.0D-01, -3.0D-01, r^2= 4.9D+01
   Bfn.  Coefficient  Atom+Function         Bfn.  Coefficient  Atom+Function  
  ----- ------------  ---------------      ----- ------------  ---------------
   573      2.797339  34 N  s               207     -2.471744  13 H  s         
   531     -2.455935  32 C  py               56      2.433417   5 C  s         
   606      2.164439  36 H  s               420     -2.044108  26 H  s         
   317     -2.020275  19 C  px               13     -1.815125   2 C  s         
    12     -1.765689   2 C  s                46      1.615825   4 H  s         

 Vector   75  Occ=0.000000D+00  E= 5.074779D-02
              MO Center= -8.8D-01, -2.0D+00, -1.5D+00, r^2= 4.2D+01
   Bfn.  Coefficient  Atom+Function         Bfn.  Coefficient  Atom+Function  
  ----- ------------  ---------------      ----- ------------  ---------------
   216     -2.765269  14 H  s                 3      2.564326   1 H  s         
   164      2.161709  10 H  s               504      2.159449  30 H  s         
   149     -2.146413   9 C  pz              480      2.058473  29 N  s         
   420     -2.034019  26 H  s               173      2.000119  11 C  s         
    46     -1.761181   4 H  s               387     -1.727082  24 C  s         

 Vector   76  Occ=0.000000D+00  E= 5.437524D-02
              MO Center= -3.6D-01, -1.7D+00,  2.1D-01, r^2= 4.3D+01
   Bfn.  Coefficient  Atom+Function         Bfn.  Coefficient  Atom+Function  
  ----- ------------  ---------------      ----- ------------  ---------------
   130      3.082933   8 H  s               420      2.824145  26 H  s         
    37     -2.721308   3 H  s               198     -2.504899  12 H  s         
   106      2.398843   7 N  s               396     -2.140085  24 C  pz        
   164     -2.093839  10 H  s                56     -1.965150   5 C  s         
   377      1.810176  23 H  s                 3      1.611266   1 H  s         

 Vector   77  Occ=0.000000D+00  E= 6.045164D-02
              MO Center= -1.2D+00, -5.8D-01, -5.7D-01, r^2= 4.6D+01
   Bfn.  Coefficient  Atom+Function         Bfn.  Coefficient  Atom+Function  
  ----- ------------  ---------------      ----- ------------  ---------------
    56      4.809602   5 C  s               106     -3.207769   7 N  s         
    37      3.055795   3 H  s               216      2.761615  14 H  s         
   513     -2.657371  31 H  s               334      2.123315  20 H  s         
   387     -2.120609  24 C  s                13     -1.920119   2 C  s         
   504      1.826191  30 H  s                46     -1.811693   4 H  s         

 Vector   78  Occ=0.000000D+00  E= 6.552424D-02
              MO Center=  4.4D-01, -6.3D-01,  9.9D-01, r^2= 3.9D+01
   Bfn.  Coefficient  Atom+Function         Bfn.  Coefficient  Atom+Function  
  ----- ------------  ---------------      ----- ------------  ---------------
   164     -4.129372  10 H  s                13      3.989451   2 C  s         
   207      2.831396  13 H  s                63      2.736836   5 C  px        
   387      2.569875  24 C  s               377     -2.551267  23 H  s         
   368     -2.485253  22 H  s               420      2.223009  26 H  s         
   353      2.004795  21 C  pz               46     -1.982949   4 H  s         

 Vector   79  Occ=0.000000D+00  E= 7.131241D-02
              MO Center=  1.9D-01, -2.8D+00, -7.1D-01, r^2= 4.5D+01
   Bfn.  Coefficient  Atom+Function         Bfn.  Coefficient  Atom+Function  
  ----- ------------  ---------------      ----- ------------  ---------------
     3      4.517450   1 H  s               207     -3.692826  13 H  s         
   198      3.656074  12 H  s               334      3.652234  20 H  s         
    56     -3.543263   5 C  s               411     -3.531579  25 H  s         
    37     -3.375329   3 H  s               234     -2.917930  15 C  py        
   148     -2.733284   9 C  py              113     -2.518295   7 N  px        

 Vector   80  Occ=0.000000D+00  E= 7.302173D-02
              MO Center= -1.3D-01, -2.0D+00, -5.7D-01, r^2= 4.1D+01
   Bfn.  Coefficient  Atom+Function         Bfn.  Coefficient  Atom+Function  
  ----- ------------  ---------------      ----- ------------  ---------------
    13      4.546671   2 C  s                56     -4.318636   5 C  s         
   164      3.863659  10 H  s                46     -3.582757   4 H  s         
   377     -3.353486  23 H  s               198     -3.091397  12 H  s         
   216      3.102632  14 H  s               149     -2.604907   9 C  pz        
   352      2.325728  21 C  py              368      2.321905  22 H  s         

 Vector   81  Occ=0.000000D+00  E= 7.598356D-02
              MO Center= -5.9D-01,  1.2D+00,  5.8D-01, r^2= 4.1D+01
   Bfn.  Coefficient  Atom+Function         Bfn.  Coefficient  Atom+Function  
  ----- ------------  ---------------      ----- ------------  ---------------
   377      5.207479  23 H  s                56      4.726392   5 C  s         
   420     -4.131851  26 H  s               597     -3.274151  35 H  s         
   164     -3.107903  10 H  s               334     -2.346640  20 H  s         
   318      2.312874  19 C  py              352     -2.288660  21 C  py        
   430      2.227827  27 C  s                37      2.215742   3 H  s         

 Vector   82  Occ=0.000000D+00  E= 8.282200D-02
              MO Center=  2.6D-01,  1.4D+00, -1.6D-01, r^2= 4.0D+01
   Bfn.  Coefficient  Atom+Function         Bfn.  Coefficient  Atom+Function  
  ----- ------------  ---------------      ----- ------------  ---------------
   430     -5.586131  27 C  s               377      5.185484  23 H  s         
   130     -3.305545   8 H  s               420     -3.131346  26 H  s         
   334      2.863968  20 H  s               164      2.840599  10 H  s         
   352     -2.809354  21 C  py              411      2.753851  25 H  s         
   300     -2.485593  18 H  s               597      2.423051  35 H  s         

 Vector   83  Occ=0.000000D+00  E= 8.664862D-02
              MO Center=  3.9D-01, -3.2D-01,  4.8D-01, r^2= 3.6D+01
   Bfn.  Coefficient  Atom+Function         Bfn.  Coefficient  Atom+Function  
  ----- ------------  ---------------      ----- ------------  ---------------
   368      6.579937  22 H  s               234     -5.992821  15 C  py        
   164     -5.623521  10 H  s               334      4.689966  20 H  s         
   216     -4.230041  14 H  s               523     -4.050755  32 C  s         
   207      3.490954  13 H  s               147      3.429259   9 C  px        
    56     -3.408989   5 C  s               352      3.337371  21 C  py        

 Vector   84  Occ=0.000000D+00  E= 9.324231D-02
              MO Center=  4.3D-01,  1.6D-01, -7.9D-01, r^2= 4.5D+01
   Bfn.  Coefficient  Atom+Function         Bfn.  Coefficient  Atom+Function  
  ----- ------------  ---------------      ----- ------------  ---------------
    56      7.624296   5 C  s               334      7.456092  20 H  s         
   411     -6.517080  25 H  s               597     -5.188501  35 H  s         
    13     -4.910428   2 C  s               198     -4.840652  12 H  s         
   430      4.593440  27 C  s               319      4.067265  19 C  pz        
   344     -3.650507  21 C  s               130     -3.617783   8 H  s         

 Vector   85  Occ=0.000000D+00  E= 9.432274D-02
              MO Center=  1.2D-01, -2.8D-02, -1.8D-01, r^2= 4.3D+01
   Bfn.  Coefficient  Atom+Function         Bfn.  Coefficient  Atom+Function  
  ----- ------------  ---------------      ----- ------------  ---------------
   368      6.469741  22 H  s               334     -5.324205  20 H  s         
   377     -5.293787  23 H  s               597      4.733165  35 H  s         
    13     -4.364971   2 C  s               352      4.014688  21 C  py        
    56      3.841696   5 C  s               130     -3.358994   8 H  s         
   216      3.306029  14 H  s               174     -3.224536  11 C  s         

 Vector   86  Occ=0.000000D+00  E= 9.981492D-02
              MO Center= -1.7D+00, -2.6D-01, -4.3D-01, r^2= 3.9D+01
   Bfn.  Coefficient  Atom+Function         Bfn.  Coefficient  Atom+Function  
  ----- ------------  ---------------      ----- ------------  ---------------
    56     12.163586   5 C  s               411    -11.391343  25 H  s         
    13     -5.511984   2 C  s               334      4.979963  20 H  s         
   430      4.361130  27 C  s               513      4.003728  31 H  s         
   395     -3.777513  24 C  py              319      3.071279  19 C  pz        
   174     -3.029315  11 C  s               351     -3.016540  21 C  px        

 Vector   87  Occ=0.000000D+00  E= 1.054518D-01
              MO Center=  1.3D+00, -9.6D-01,  1.0D+00, r^2= 3.4D+01
   Bfn.  Coefficient  Atom+Function         Bfn.  Coefficient  Atom+Function  
  ----- ------------  ---------------      ----- ------------  ---------------
   300      8.752390  18 H  s               411      6.310020  25 H  s         
   164     -5.401622  10 H  s               198     -4.765307  12 H  s         
   234     -4.716347  15 C  py               56      4.489320   5 C  s         
   430     -3.990020  27 C  s               344      3.915891  21 C  s         
   174     -3.579747  11 C  s               233      3.251820  15 C  px        

 Vector   88  Occ=0.000000D+00  E= 1.184285D-01
              MO Center= -1.0D+00, -2.0D-01,  5.4D-01, r^2= 4.1D+01
   Bfn.  Coefficient  Atom+Function         Bfn.  Coefficient  Atom+Function  
  ----- ------------  ---------------      ----- ------------  ---------------
    56     22.420521   5 C  s                13    -19.899847   2 C  s         
   430     10.804467  27 C  s               387    -10.032839  24 C  s         
    63     -8.136419   5 C  px              344     -7.937924  21 C  s         
   523      7.081209  32 C  s                64     -6.340470   5 C  py        
    20     -4.867089   2 C  px               21     -4.644853   2 C  py        

 Vector   89  Occ=0.000000D+00  E= 1.253767D-01
              MO Center= -2.2D+00,  1.1D+00,  1.6D-02, r^2= 3.6D+01
   Bfn.  Coefficient  Atom+Function         Bfn.  Coefficient  Atom+Function  
  ----- ------------  ---------------      ----- ------------  ---------------
    13     15.722914   2 C  s                56    -13.133531   5 C  s         
    63      8.442603   5 C  px              344     -7.260956  21 C  s         
   437      6.046774  27 C  px               64      6.004080   5 C  py        
   276      5.955052  17 N  s               523     -5.398472  32 C  s         
   310     -5.299253  19 C  s               368     -5.233036  22 H  s         

 Vector   90  Occ=0.000000D+00  E= 1.308507D-01
              MO Center= -3.6D-01, -1.3D+00, -6.4D-01, r^2= 3.2D+01
   Bfn.  Coefficient  Atom+Function         Bfn.  Coefficient  Atom+Function  
[...]
   430     10.393215  27 C  s               276      8.412514  17 N  s         
    63      6.948299   5 C  px              480     -6.755581  29 N  s         
   419      5.916750  26 H  s               106     -5.645827   7 N  s         
   140     -5.509952   9 C  s               283     -5.383630  17 N  px        

 Vector  173  Occ=0.000000D+00  E= 4.414837D-01
              MO Center=  1.2D-02, -3.9D-01, -1.3D-01, r^2= 2.2D+01
   Bfn.  Coefficient  Atom+Function         Bfn.  Coefficient  Atom+Function  
  ----- ------------  ---------------      ----- ------------  ---------------
   234     11.878199  15 C  py              573    -10.815290  34 N  s         
   173      9.231259  11 C  s               317     -8.024570  19 C  px        
   523      6.948609  32 C  s                56      6.566091   5 C  s         
   318      6.459491  19 C  py              386     -6.341067  24 C  s         
   319      5.865910  19 C  pz              334     -5.562463  20 H  s         

 Vector  174  Occ=0.000000D+00  E= 4.424540D-01
              MO Center=  3.3D-01,  1.8D-01, -1.4D-01, r^2= 2.3D+01
   Bfn.  Coefficient  Atom+Function         Bfn.  Coefficient  Atom+Function  
  ----- ------------  ---------------      ----- ------------  ---------------
   317     11.663201  19 C  px              573    -11.526255  34 N  s         
   351    -10.601101  21 C  px              234      9.499276  15 C  py        
   319      9.173674  19 C  pz              523      9.169583  32 C  s         
   318      6.142485  19 C  py              530     -5.920986  32 C  px        
   106      5.320895   7 N  s               344     -4.821262  21 C  s         

 Vector  175  Occ=0.000000D+00  E= 4.477475D-01
              MO Center= -4.6D-01,  1.8D-01, -5.3D-01, r^2= 2.1D+01
   Bfn.  Coefficient  Atom+Function         Bfn.  Coefficient  Atom+Function  
  ----- ------------  ---------------      ----- ------------  ---------------
   318     12.832763  19 C  py              317     10.565676  19 C  px        
    13      9.960994   2 C  s               174     -8.472115  11 C  s         
   233     -8.293854  15 C  px              276      8.323305  17 N  s         
   147      8.138000   9 C  px              411     -8.092318  25 H  s         
   573     -8.112990  34 N  s               173     -6.582931  11 C  s         

 Vector  176  Occ=0.000000D+00  E= 4.505687D-01
              MO Center= -2.1D-01, -2.3D+00,  2.1D-01, r^2= 2.1D+01
   Bfn.  Coefficient  Atom+Function         Bfn.  Coefficient  Atom+Function  
  ----- ------------  ---------------      ----- ------------  ---------------
    13     15.471564   2 C  s                12      8.656340   2 C  s         
     2     -7.657143   1 H  s               284      6.543236  17 N  py        
    36     -6.010172   3 H  s               174      5.528075  11 C  s         
    56     -5.100368   5 C  s               430     -4.247537  27 C  s         
    63      4.075500   5 C  px              148      3.913887   9 C  py        

 Vector  177  Occ=0.000000D+00  E= 4.538276D-01
              MO Center= -1.1D+00, -2.2D+00,  1.9D-01, r^2= 2.3D+01
   Bfn.  Coefficient  Atom+Function         Bfn.  Coefficient  Atom+Function  
  ----- ------------  ---------------      ----- ------------  ---------------
    56     16.505866   5 C  s               174    -14.365128  11 C  s         
   430     10.979154  27 C  s                13     -9.444231   2 C  s         
   233      7.768863  15 C  px              317     -7.238499  19 C  px        
   573      7.201261  34 N  s               344     -7.030141  21 C  s         
    45      6.368483   4 H  s               394      5.088495  24 C  px        

 Vector  178  Occ=0.000000D+00  E= 4.584177D-01
              MO Center= -1.1D-01,  6.6D-01, -1.7D-01, r^2= 2.4D+01
   Bfn.  Coefficient  Atom+Function         Bfn.  Coefficient  Atom+Function  
  ----- ------------  ---------------      ----- ------------  ---------------
    13     12.631755   2 C  s                56     -9.135616   5 C  s         
   573      8.298111  34 N  s               276      7.032289  17 N  s         
   233      6.670037  15 C  px              455     -6.070250  28 O  s         
    45     -5.682551   4 H  s                12      5.361050   2 C  s         
   523     -5.295942  32 C  s               387      4.779387  24 C  s         

 Vector  179  Occ=0.000000D+00  E= 4.601426D-01
              MO Center=  4.1D-01, -4.4D-01,  1.0D-01, r^2= 2.1D+01
   Bfn.  Coefficient  Atom+Function         Bfn.  Coefficient  Atom+Function  
  ----- ------------  ---------------      ----- ------------  ---------------
   276    -12.160269  17 N  s               430    -11.525438  27 C  s         
   173     11.257939  11 C  s               344      9.596137  21 C  s         
    56     -9.095405   5 C  s               174      8.674520  11 C  s         
   284     -8.192468  17 N  py              197     -7.112339  12 H  s         
   206     -6.882114  13 H  s               411      5.907097  25 H  s         

 Vector  180  Occ=0.000000D+00  E= 4.673298D-01
              MO Center= -2.6D-01,  1.0D-01, -1.2D-01, r^2= 2.1D+01
   Bfn.  Coefficient  Atom+Function         Bfn.  Coefficient  Atom+Function  
  ----- ------------  ---------------      ----- ------------  ---------------
   430     27.775674  27 C  s               344    -12.373793  21 C  s         
   480    -11.367667  29 N  s               376      8.579739  23 H  s         
   343     -8.389159  21 C  s               233     -7.678882  15 C  px        
   310     -7.682147  19 C  s               318     -7.434509  19 C  py        
   386      7.409014  24 C  s               319     -7.058480  19 C  pz        

 Vector  181  Occ=0.000000D+00  E= 4.718187D-01
              MO Center=  1.0D-01,  1.9D-01, -7.4D-02, r^2= 2.2D+01
   Bfn.  Coefficient  Atom+Function         Bfn.  Coefficient  Atom+Function  
  ----- ------------  ---------------      ----- ------------  ---------------
   480      9.574152  29 N  s                56      8.966094   5 C  s         
   333      8.347562  20 H  s               234      7.564783  15 C  py        
   387     -6.795651  24 C  s                12     -6.588737   2 C  s         
   233     -6.451464  15 C  px              573      6.404156  34 N  s         
   113      6.069646   7 N  px              147      5.757569   9 C  px        

 Vector  182  Occ=0.000000D+00  E= 4.783981D-01
              MO Center=  4.8D-01, -2.8D-01, -2.9D-01, r^2= 2.3D+01
   Bfn.  Coefficient  Atom+Function         Bfn.  Coefficient  Atom+Function  
  ----- ------------  ---------------      ----- ------------  ---------------
    56     16.740842   5 C  s               174    -13.820104  11 C  s         
    13    -10.644432   2 C  s               173     -9.569040  11 C  s         
   215      9.571507  14 H  s               430     -7.332016  27 C  s         
   344      7.253543  21 C  s               352     -6.682289  21 C  py        
   233      6.423188  15 C  px              181      5.299307  11 C  px        

 Vector  183  Occ=0.000000D+00  E= 4.811896D-01
              MO Center=  1.9D-01, -9.5D-02,  3.0D-01, r^2= 2.2D+01
   Bfn.  Coefficient  Atom+Function         Bfn.  Coefficient  Atom+Function  
  ----- ------------  ---------------      ----- ------------  ---------------
    13     26.308473   2 C  s                56    -23.123236   5 C  s         
   174     21.461757  11 C  s               318     15.220728  19 C  py        
    63     11.057524   5 C  px              317    -10.242031  19 C  px        
    12     10.136448   2 C  s                64      9.040015   5 C  py        
   387     -7.604119  24 C  s                 2     -7.422283   1 H  s         

 Vector  184  Occ=0.000000D+00  E= 4.840120D-01
              MO Center= -7.1D-01,  1.0D+00,  7.6D-02, r^2= 2.2D+01
   Bfn.  Coefficient  Atom+Function         Bfn.  Coefficient  Atom+Function  
  ----- ------------  ---------------      ----- ------------  ---------------
   430     23.636782  27 C  s               480    -13.661072  29 N  s         
   573      9.743797  34 N  s               387      9.094674  24 C  s         
   396      9.017421  24 C  pz              310     -7.963795  19 C  s         
   351      7.629398  21 C  px              419     -7.422752  26 H  s         
   344     -7.068497  21 C  s                13      6.444537   2 C  s         

 Vector  185  Occ=0.000000D+00  E= 4.849701D-01
              MO Center= -5.0D-01, -5.4D-01, -1.8D-01, r^2= 2.3D+01
   Bfn.  Coefficient  Atom+Function         Bfn.  Coefficient  Atom+Function  
  ----- ------------  ---------------      ----- ------------  ---------------
    56     22.507549   5 C  s                12    -14.051393   2 C  s         
    13    -13.470090   2 C  s               387    -11.453340  24 C  s         
     2      8.814174   1 H  s                45      8.193393   4 H  s         
   317     -7.485164  19 C  px              113      7.240798   7 N  px        
   523      6.220840  32 C  s               149     -6.041953   9 C  pz        

 Vector  186  Occ=0.000000D+00  E= 4.893240D-01
              MO Center= -3.3D-02, -6.6D-02, -4.2D-01, r^2= 2.0D+01
   Bfn.  Coefficient  Atom+Function         Bfn.  Coefficient  Atom+Function  
  ----- ------------  ---------------      ----- ------------  ---------------
   234     15.328333  15 C  py              174     14.532521  11 C  s         
   344     -9.501822  21 C  s               387     -9.026813  24 C  s         
   233     -7.459185  15 C  px              106      7.171526   7 N  s         
   386     -7.157272  24 C  s               430     -6.724088  27 C  s         
   419      6.176266  26 H  s                56     -6.062535   5 C  s         

 Vector  187  Occ=0.000000D+00  E= 4.944875D-01
              MO Center=  4.2D-01, -1.1D+00, -4.5D-01, r^2= 2.2D+01
   Bfn.  Coefficient  Atom+Function         Bfn.  Coefficient  Atom+Function  
  ----- ------------  ---------------      ----- ------------  ---------------
    56     25.604175   5 C  s                13    -16.206766   2 C  s         
   387    -13.551652  24 C  s               386    -11.094588  24 C  s         
   344    -10.094187  21 C  s               410      9.361974  25 H  s         
   367      8.759409  22 H  s               343     -8.436189  21 C  s         
   318      7.720865  19 C  py              419      7.652772  26 H  s         

 Vector  188  Occ=0.000000D+00  E= 4.956257D-01
              MO Center= -3.8D-01, -4.7D-01,  1.1D-02, r^2= 2.1D+01
   Bfn.  Coefficient  Atom+Function         Bfn.  Coefficient  Atom+Function  
  ----- ------------  ---------------      ----- ------------  ---------------
   174     10.783113  11 C  s                13     -8.132027   2 C  s         
    56     -7.749086   5 C  s               113     -6.509083   7 N  px        
   139      6.488231   9 C  s               276     -5.541461  17 N  s         
   410     -5.558191  25 H  s               386      5.509414  24 C  s         
    63     -5.220429   5 C  px               64     -5.193414   5 C  py        

 Vector  189  Occ=0.000000D+00  E= 5.028558D-01
              MO Center= -1.3D-01, -1.0D+00, -3.6D-02, r^2= 2.3D+01
   Bfn.  Coefficient  Atom+Function         Bfn.  Coefficient  Atom+Function  
  ----- ------------  ---------------      ----- ------------  ---------------
    13     36.884962   2 C  s                56    -26.795021   5 C  s         
   106     19.191850   7 N  s                63     14.629730   5 C  px        
   276     13.968600  17 N  s               147     11.977321   9 C  px        
   310    -11.414420  19 C  s               317     11.136134  19 C  px        
    64     10.266451   5 C  py              523    -10.085119  32 C  s         


 center of mass
 --------------
 x =   0.02575174 y =   0.06179320 z =   0.01477697

 moments of inertia (a.u.)
 ------------------
        7323.217228363374           0.000000000000          -0.000000000001
           0.000000000000        3288.380097524856           0.000000000000
          -0.000000000001           0.000000000000        9211.815115976829

  Mulliken analysis of the total density
  --------------------------------------

    Atom       Charge   Shell Charges
 -----------   ------   -------------------------------------------------------
    1 H    1     0.80   0.76  0.06  0.01  0.03 -0.06
    2 C    6     6.53   2.01  0.66  0.33  0.26  2.07  1.05 -0.03  0.06  0.12
    3 H    1     0.96   0.76  0.22  0.01  0.03 -0.06
    4 H    1     0.82   0.76  0.08  0.01  0.03 -0.06
    5 C    6     4.94   2.01  0.68  0.09 -0.13  1.89  0.30 -0.14  0.24  0.00
    6 O    8     8.74   2.01  0.82  0.99  0.16  2.79  1.83  0.14  0.01 -0.02
    7 N    7     7.60   2.01  0.72  0.82 -0.09  2.45  1.44  0.15  0.05  0.05
    8 H    1     0.96   0.77  0.21 -0.02  0.05 -0.05
    9 C    6     6.67   2.01  0.66  0.25  0.01  2.00  1.47 -0.06  0.14  0.20
   10 H    1     1.11   0.79  0.29  0.00  0.03  0.01
   11 C    6     5.82   2.01  0.66  0.23  0.28  2.04  0.55 -0.02  0.07  0.01
   12 H    1     0.95   0.77  0.22  0.00  0.03 -0.08
   13 H    1     0.94   0.77  0.22  0.01  0.03 -0.09
   14 H    1     0.90   0.77  0.14  0.03  0.03 -0.08
   15 C    6     4.27   2.01  0.68 -0.16  0.06  1.88 -0.02 -0.01  0.23 -0.41
   16 O    8     8.91   2.01  0.82  1.04  0.19  2.79  1.88  0.18  0.01  0.00
   17 N    7     7.67   2.01  0.72  0.90 -0.09  2.45  1.45  0.10  0.05  0.09
   18 H    1     1.01   0.76  0.22  0.00  0.06 -0.03
   19 C    6     5.93   2.01  0.66  0.08  0.00  2.00  1.21 -0.15  0.14 -0.02
   20 H    1     1.16   0.78  0.30 -0.02  0.03  0.08
   21 C    6     5.81   2.01  0.66  0.28  0.11  2.03  0.57  0.00  0.09  0.06
   22 H    1     0.91   0.78  0.21 -0.00  0.03 -0.11
   23 H    1     1.06   0.78  0.29  0.01  0.03 -0.05
   24 C    6     6.82   2.01  0.66  0.79  0.01  2.05  0.89  0.03  0.09  0.29
   25 H    1     0.67   0.77  0.03 -0.06  0.03 -0.10
   26 H    1     0.71   0.78  0.03  0.00  0.03 -0.12
   27 C    6     4.79   2.01  0.68  0.05  0.19  1.89 -0.08 -0.05  0.24 -0.13
   28 O    8     8.78   2.01  0.81  1.01  0.13  2.81  1.86  0.15  0.02 -0.01
   29 N    7     7.32   2.01  0.72  0.86 -0.13  2.47  1.27  0.08  0.04 -0.01
   30 H    1     0.97   0.75  0.19 -0.01  0.06 -0.02
   31 H    1     0.98   0.76  0.20 -0.00  0.05 -0.04
   32 C    6     4.57   2.01  0.68  0.05  0.05  1.89 -0.21  0.01  0.24 -0.14
   33 O    8     8.81   2.01  0.82  1.03  0.17  2.79  1.85  0.14  0.01 -0.00
   34 N    7     7.22   2.01  0.72  0.84 -0.15  2.47  1.24  0.07  0.04 -0.02
   35 H    1     0.87   0.73  0.18 -0.02  0.06 -0.08
   36 H    1     1.01   0.76  0.23 -0.01  0.05 -0.03

       Multipole analysis of the density wrt the origin
       ------------------------------------------------

     L   x y z        total         open         nuclear
     -   - - -        -----         ----         -------
     0   0 0 0      0.000000      0.000000    138.000000

     1   1 0 0     -1.304954      0.000000      0.000000
     1   0 1 0     -0.841165      0.000000      0.000000
     1   0 0 1     -1.053785      0.000000     -0.000000

     2   2 0 0    -75.037074      0.000000   1436.692039
     2   1 1 0     -5.677202      0.000000     -6.911684
     2   1 0 1     -0.973412      0.000000    -16.589845
     2   0 2 0    -68.341034      0.000000   3628.385947
     2   0 1 1      5.495602      0.000000     23.679413
     2   0 0 2    -84.353446      0.000000    401.867541


 Task  times  cpu:     4941.7s     wall:     5020.7s


                                NWChem Input Module
                                -------------------


 Summary of allocated global arrays
-----------------------------------
  No active global arrays


MA_summarize_allocated_blocks: starting scan ...
MA_summarize_allocated_blocks: scan completed: 0 heap blocks, 0 stack blocks
MA usage statistics:

	allocation statistics:
					      heap	     stack
					      ----	     -----
	current number of blocks	         0	         0
	maximum number of blocks	        16	        14
	current total bytes		         0	         0
	maximum total bytes		    129872	  28238872
	maximum total K-bytes		       130	     28239
	maximum total M-bytes		         1	        29


                                     CITATION
                                     --------
                Please cite the following reference when publishing
                           results obtained with NWChem:

          E. Apra, E. J. Bylaska, W. A. de Jong, N. Govind, K. Kowalski,
       T. P. Straatsma, M. Valiev, H. J. J. van Dam, Y. Alexeev, J. Anchell,
       V. Anisimov, F. W. Aquino, R. Atta-Fynn, J. Autschbach, N. P. Bauman,
     J. C. Becca, D. E. Bernholdt, K. Bhaskaran-Nair, S. Bogatko, P. Borowski,
         J. Boschen, J. Brabec, A. Bruner, E. Cauet, Y. Chen, G. N. Chuev,
      C. J. Cramer, J. Daily, M. J. O. Deegan, T. H. Dunning Jr., M. Dupuis,
   K. G. Dyall, G. I. Fann, S. A. Fischer, A. Fonari, H. Fruchtl, L. Gagliardi,
      J. Garza, N. Gawande, S. Ghosh, K. Glaesemann, A. W. Gotz, J. Hammond,
       V. Helms, E. D. Hermes, K. Hirao, S. Hirata, M. Jacquelin, L. Jensen,
   B. G. Johnson, H. Jonsson, R. A. Kendall, M. Klemm, R. Kobayashi, V. Konkov,
      S. Krishnamoorthy, M. Krishnan, Z. Lin, R. D. Lins, R. J. Littlefield,
      A. J. Logsdail, K. Lopata, W. Ma, A. V. Marenich, J. Martin del Campo,
   D. Mejia-Rodriguez, J. E. Moore, J. M. Mullin, T. Nakajima, D. R. Nascimento,
    J. A. Nichols, P. J. Nichols, J. Nieplocha, A. Otero-de-la-Roza, B. Palmer,
    A. Panyala, T. Pirojsirikul, B. Peng, R. Peverati, J. Pittner, L. Pollack,
   R. M. Richard, P. Sadayappan, G. C. Schatz, W. A. Shelton, D. W. Silverstein,
   D. M. A. Smith, T. A. Soares, D. Song, M. Swart, H. L. Taylor, G. S. Thomas,
            V. Tipparaju, D. G. Truhlar, K. Tsemekhman, T. Van Voorhis,
      A. Vazquez-Mayagoitia, P. Verma, O. Villa, A. Vishnu, K. D. Vogiatzis,
        D. Wang, J. H. Weare, M. J. Williamson, T. L. Windus, K. Wolinski,
        A. T. Wong, Q. Wu, C. Yang, Q. Yu, M. Zacharias, Z. Zhang, Y. Zhao,
                                and R. J. Harrison
                        "NWChem: Past, present, and future
                         J. Chem. Phys. 152, 184102 (2020)
                               doi:10.1063/5.0004997

                                      AUTHORS
                                      -------
  E. Apra, E. J. Bylaska, N. Govind, K. Kowalski, M. Valiev, D. Mejia-Rodriguez,
       A. Kunitsa, N. P. Bauman, A. Panyala, W. A. de Jong, T. P. Straatsma,
   H. J. J. van Dam, D. Wang, T. L. Windus, J. Hammond, J. Autschbach, A. Woods,
    K. Bhaskaran-Nair, J. Brabec, K. Lopata, S. A. Fischer, S. Krishnamoorthy,
     M. Jacquelin, W. Ma, M. Klemm, O. Villa, Y. Chen, V. Anisimov, F. Aquino,
     S. Hirata, M. T. Hackler, E. Hermes, L. Jensen, J. E. Moore, J. C. Becca,
      V. Konjkov, T. Risthaus, M. Malagoli, A. Marenich, A. Otero-de-la-Roza,
        J. Mullin, P. Nichols, R. Peverati, J. Pittner, Y. Zhao, P.-D. Fan,
        A. Fonari, M. J. Williamson, R. J. Harrison, J. R. Rehr, M. Dupuis,
     D. Silverstein, D. M. A. Smith, J. Nieplocha, V. Tipparaju, M. Krishnan,
     B. E. Van Kuiken, A. Vazquez-Mayagoitia, M. Swart, Q. Wu, T. Van Voorhis,
     A. A. Auer, M. Nooijen, L. D. Crosby, E. Brown, G. Cisneros, G. I. Fann,
   H. Fruchtl, J. Garza, K. Hirao, R. A. Kendall, J. A. Nichols, K. Tsemekhman,
    K. Wolinski, J. Anchell, D. E. Bernholdt, P. Borowski, T. Clark, D. Clerc,
   H. Dachsel, M. J. O. Deegan, K. Dyall, D. Elwood, E. Glendening, M. Gutowski,
   A. C. Hess, J. Jaffe, B. G. Johnson, J. Ju, R. Kobayashi, R. Kutteh, Z. Lin,
   R. Littlefield, X. Long, B. Meng, T. Nakajima, S. Niu, L. Pollack, M. Rosing,
   K. Glaesemann, G. Sandrone, M. Stave, H. Taylor, G. Thomas, J. H. van Lenthe,
                               A. T. Wong, Z. Zhang.

 Total times  cpu:     4941.7s     wall:     5020.9s
