export TMOUT=5400
export TMPDIR=/tmp
export PTMPDIR=/tmp/ptmp
 argument  1 = ALA_HIS_3.nw
                                         
                                         


             Northwest Computational Chemistry Package (NWChem) 7.2.0
             --------------------------------------------------------


                    Environmental Molecular Sciences Laboratory
                       Pacific Northwest National Laboratory
                                Richland, WA 99352

                              Copyright (c) 1994-2022
                       Pacific Northwest National Laboratory
                            Battelle Memorial Institute

             NWChem is an open-source computational chemistry package
                        distributed under the terms of the
                      Educational Community License (ECL) 2.0
             A copy of the license is included with this distribution
                              in the LICENSE.TXT file

                                  ACKNOWLEDGMENT
                                  --------------

            This software and its documentation were developed at the
            EMSL at Pacific Northwest National Laboratory, a multiprogram
            national laboratory, operated for the U.S. Department of Energy
            by Battelle under Contract Number DE-AC05-76RL01830. Support
            for this work was provided by the Department of Energy Office
            of Biological and Environmental Research, Office of Basic
            Energy Sciences, and the Office of Advanced Scientific Computing.


           Job information
           ---------------

    hostname        = nova18-23
    program         = /opt/rit/el9/20230413/app/linux-rhel9-x86_64_v3/gcc-11.2.1/nwchem-7.2.0-oxtctbuhfuzyfaoziquq6bki22grib3g/bin/nwchem
    date            = Fri Jun 27 01:55:42 2025

    compiled        = Wed_May_17_23:46:39_2023
    source          = /tmp/root/spack-stage/spack-stage-nwchem-7.2.0-oxtctbuhfuzyfaoziquq6bki22grib3g/spack-src
    nwchem branch   = 7.2.0
    nwchem revision = d0d141fd
    ga revision     = 5.8.0
    use scalapack   = T
    input           = ALA_HIS_3.nw
    prefix          = ALA_HIS_3.
    data base       = ./ALA_HIS_3.db
    status          = startup
    nproc           =        8
    time left       =     -1s



           Memory information
           ------------------

    heap     =   26214398 doubles =    200.0 Mbytes
    stack    =   26214395 doubles =    200.0 Mbytes
    global   =   52428800 doubles =    400.0 Mbytes (distinct from heap & stack)
    total    =  104857593 doubles =    800.0 Mbytes
    verify   = yes
    hardfail = no 


           Directory information
           ---------------------

  0 permanent = .
  0 scratch   = .




                                NWChem Input Module
                                -------------------



 Scaling coordinates for geometry "geometry" by  1.889725989
 (inverse scale =  0.529177249)

 C1  symmetry detected

          ------
          auto-z
          ------
  no constraints, skipping    0.0000000000000000     
  no constraints, skipping    0.0000000000000000     


                             Geometry "geometry" -> ""
                             -------------------------

 Output coordinates in angstroms (scale by  1.889725989 to convert to a.u.)

  No.       Tag          Charge          X              Y              Z
 ---- ---------------- ---------- -------------- -------------- --------------
    1 H                    1.0000    -2.96337029    -2.66728570    -0.25366477
    2 C                    6.0000    -2.57446775    -2.64033637     0.76244229
    3 H                    1.0000    -3.07640076    -3.39387669     1.36677765
    4 H                    1.0000    -2.72970372    -1.65630911     1.19734015
    5 C                    6.0000    -1.09347302    -2.93997703     0.73937533
    6 O                    8.0000    -0.63728551    -3.82357394     1.45034260
    7 N                    7.0000    -0.34918572    -2.18733641    -0.06710995
    8 H                    1.0000    -0.81974149    -1.47145595    -0.60872922
    9 C                    6.0000     1.10002946    -2.34989275    -0.26095732
   10 H                    1.0000     1.51172122    -2.87458497     0.60315550
   11 C                    6.0000     1.32633855    -3.23435092    -1.49721940
   12 H                    1.0000     0.81071784    -4.18688967    -1.37012012
   13 H                    1.0000     0.94867397    -2.73225366    -2.38936110
   14 H                    1.0000     2.39269385    -3.42703649    -1.62120589
   15 C                    6.0000     1.84561709    -0.99802676    -0.34387556
   16 O                    8.0000     2.95321632    -0.90853217    -0.86585990
   17 N                    7.0000     1.20538923     0.07240152     0.13547149
   18 H                    1.0000     0.28401211    -0.09164017     0.51349732
   19 C                    6.0000     1.50878710     1.46404882    -0.22285312
   20 H                    1.0000     2.52225341     1.52315514    -0.62344330
   21 C                    6.0000     0.52785097     1.87628654    -1.33402834
   22 H                    1.0000     0.75137864     2.89361386    -1.65671163
   23 H                    1.0000     0.67217085     1.22162596    -2.19439704
   24 C                    6.0000    -0.92115694     1.79438381    -0.91068212
   25 N                    7.0000    -1.65719700     0.61547639    -0.73679039
   26 C                    6.0000    -2.87580904     1.00561279    -0.33217416
   27 H                    1.0000    -3.69833198     0.33367889    -0.12245568
   28 N                    7.0000    -2.93115758     2.34375101    -0.22173574
   29 H                    1.0000    -3.73877686     2.87684578     0.07220144
   30 C                    6.0000    -1.70537877     2.85862194    -0.57610875
   31 H                    1.0000    -1.39911934     3.89660452    -0.57668055
   32 C                    6.0000     1.46043307     2.42986316     0.97616419
   33 O                    8.0000     1.33029393     3.63735622     0.81249277
   34 N                    7.0000     1.53400500     1.92901222     2.20133459
   35 H                    1.0000     1.65623461     0.93786858     2.32923770
   36 H                    1.0000     1.50018824     2.56540631     2.98006753

      Atomic Mass 
      ----------- 

      H                  1.007825
      C                 12.000000
      O                 15.994910
      N                 14.003070


 Effective nuclear repulsion energy (a.u.)    1520.0198536183

            Nuclear Dipole moment (a.u.) 
            ----------------------------
        X                 Y               Z
 ---------------- ---------------- ----------------
     0.0000000000     0.0000000000     0.0000000000



                                Z-matrix (autoz)
                                -------- 

 Units are Angstrom for bonds and degrees for angles

      Type          Name      I     J     K     L     M      Value
      ----------- --------  ----- ----- ----- ----- ----- ----------
    1 Stretch                  1     2                       1.08832
    2 Stretch                  2     3                       1.08857
    3 Stretch                  2     4                       1.08699
    4 Stretch                  2     5                       1.51118
    5 Stretch                  5     6                       1.22243
    6 Stretch                  5     7                       1.33073
    7 Stretch                  7     8                       1.01354
    8 Stretch                  7     9                       1.47113
    9 Stretch                  9    10                       1.09155
   10 Stretch                  9    11                       1.53682
   11 Stretch                  9    15                       1.54607
   12 Stretch                 11    12                       1.09057
   13 Stretch                 11    13                       1.09117
   14 Stretch                 11    14                       1.09069
   15 Stretch                 15    16                       1.22770
   16 Stretch                 15    17                       1.33622
   17 Stretch                 17    18                       1.00933
   18 Stretch                 17    19                       1.46872
   19 Stretch                 19    20                       1.09137
   20 Stretch                 19    21                       1.53847
   21 Stretch                 19    32                       1.54038
   22 Stretch                 21    22                       1.09043
   23 Stretch                 21    23                       1.09071
   24 Stretch                 21    24                       1.51180
   25 Stretch                 24    25                       1.40065
   26 Stretch                 24    30                       1.36365
   27 Stretch                 25    26                       1.34199
   28 Stretch                 26    27                       1.08260
   29 Stretch                 26    28                       1.34383
   30 Stretch                 28    29                       1.01135
   31 Stretch                 28    30                       1.37594
   32 Stretch                 30    31                       1.08222
   33 Stretch                 32    33                       1.22546
   34 Stretch                 32    34                       1.32563
   35 Stretch                 34    35                       1.00681
   36 Stretch                 34    36                       1.00626
   37 Bend                     1     2     3               109.65880
   38 Bend                     1     2     4               110.17752
   39 Bend                     1     2     5               109.33207
   40 Bend                     2     5     6               120.01149
   41 Bend                     2     5     7               116.43870
   42 Bend                     3     2     4               109.79725
   43 Bend                     3     2     5               108.85060
   44 Bend                     4     2     5               109.00002
   45 Bend                     5     7     8               117.62447
   46 Bend                     5     7     9               124.63426
   47 Bend                     6     5     7               123.54363
   48 Bend                     7     9    10               108.68385
   49 Bend                     7     9    11               108.33992
   50 Bend                     7     9    15               112.67560
   51 Bend                     8     7     9               117.70932
   52 Bend                     9    11    12               109.83388
   53 Bend                     9    11    13               109.99356
   54 Bend                     9    11    14               109.69954
   55 Bend                     9    15    16               121.44055
   56 Bend                     9    15    17               116.75412
   57 Bend                    10     9    11               107.73622
   58 Bend                    10     9    15               106.31261
   59 Bend                    11     9    15               112.89626
   60 Bend                    12    11    13               109.48448
   61 Bend                    12    11    14               108.73508
   62 Bend                    13    11    14               109.07074
   63 Bend                    15    17    18               116.20230
   64 Bend                    15    17    19               124.92851
   65 Bend                    16    15    17               121.76178
   66 Bend                    17    19    20               109.43246
   67 Bend                    17    19    21               107.36099
   68 Bend                    17    19    32               113.43487
   69 Bend                    18    17    19               115.71812
   70 Bend                    19    21    22               109.45213
   71 Bend                    19    21    23               108.93740
   72 Bend                    19    21    24               113.22556
   73 Bend                    19    32    33               121.14290
   74 Bend                    19    32    34               118.73536
   75 Bend                    20    19    21               108.20839
   76 Bend                    20    19    32               106.31418
   77 Bend                    21    19    32               111.97359
   78 Bend                    21    24    25               125.73490
   79 Bend                    21    24    30               125.28376
   80 Bend                    22    21    23               107.42301
   81 Bend                    22    21    24               109.26177
   82 Bend                    23    21    24               108.37256
   83 Bend                    24    25    26               105.65999
   84 Bend                    24    30    28               106.46825
   85 Bend                    24    30    31               125.84928
   86 Bend                    25    24    30               108.91772
   87 Bend                    25    26    27               124.60296
   88 Bend                    25    26    28               110.58906
   89 Bend                    26    28    29               125.56690
   90 Bend                    26    28    30               108.34594
   91 Bend                    27    26    28               124.80788
   92 Bend                    28    30    31               127.67227
   93 Bend                    29    28    30               126.08717
   94 Bend                    32    34    35               119.74160
   95 Bend                    32    34    36               118.32195
   96 Bend                    33    32    34               120.10654
   97 Bend                    35    34    36               121.89467
   98 Torsion                  1     2     5     6        -127.10052
   99 Torsion                  1     2     5     7          53.77142
  100 Torsion                  2     5     7     8          -0.12881
  101 Torsion                  2     5     7     9        -178.02015
  102 Torsion                  3     2     5     6          -7.33167
  103 Torsion                  3     2     5     7         173.54027
  104 Torsion                  4     2     5     6         112.40856
  105 Torsion                  4     2     5     7         -66.71950
  106 Torsion                  5     7     9    10         -21.98605
  107 Torsion                  5     7     9    11          94.81478
  108 Torsion                  5     7     9    15        -139.54311
  109 Torsion                  6     5     7     8        -179.22292
  110 Torsion                  6     5     7     9           2.88574
  111 Torsion                  7     9    11    12         -56.61264
  112 Torsion                  7     9    11    13          63.95540
  113 Torsion                  7     9    11    14        -176.07265
  114 Torsion                  7     9    15    16        -159.13600
  115 Torsion                  7     9    15    17          18.50420
  116 Torsion                  8     7     9    10         160.12425
  117 Torsion                  8     7     9    11         -83.07492
  118 Torsion                  8     7     9    15          42.56719
  119 Torsion                  9    15    17    18          -0.00140
  120 Torsion                  9    15    17    19        -158.99967
  121 Torsion                 10     9    11    12          60.79727
  122 Torsion                 10     9    11    13        -178.63470
  123 Torsion                 10     9    11    14         -58.66275
  124 Torsion                 10     9    15    16          81.91568
  125 Torsion                 10     9    15    17        -100.44413
  126 Torsion                 11     9    15    16         -35.99941
  127 Torsion                 11     9    15    17         141.64078
  128 Torsion                 12    11     9    15         177.87483
  129 Torsion                 13    11     9    15         -61.55714
  130 Torsion                 14    11     9    15          58.41481
  131 Torsion                 15    17    19    20         -20.60358
  132 Torsion                 15    17    19    21          96.61974
  133 Torsion                 15    17    19    32        -139.13067
  134 Torsion                 16    15    17    18         177.63064
  135 Torsion                 16    15    17    19          18.63237
  136 Torsion                 17    19    21    22        -177.59778
  137 Torsion                 17    19    21    23         -60.41061
  138 Torsion                 17    19    21    24          60.24353
  139 Torsion                 17    19    32    33        -160.14371
  140 Torsion                 17    19    32    34          18.43972
  141 Torsion                 18    17    19    20        -179.69213
  142 Torsion                 18    17    19    21         -62.46882
  143 Torsion                 18    17    19    32          61.78077
  144 Torsion                 19    21    24    25         -73.61241
  145 Torsion                 19    21    24    30         103.16136
  146 Torsion                 19    32    34    35           2.41278
  147 Torsion                 19    32    34    36        -179.89316
  148 Torsion                 20    19    21    22         -59.57718
  149 Torsion                 20    19    21    23          57.60999
  150 Torsion                 20    19    21    24         178.26413
  151 Torsion                 20    19    32    33          79.54567
  152 Torsion                 20    19    32    34        -101.87090
  153 Torsion                 21    19    32    33         -38.43572
  154 Torsion                 21    19    32    34         140.14771
  155 Torsion                 21    24    25    26         178.64058
  156 Torsion                 21    24    30    28        -178.39857
  157 Torsion                 21    24    30    31           0.51038
  158 Torsion                 22    21    19    32          57.26934
  159 Torsion                 22    21    24    25         164.12276
  160 Torsion                 22    21    24    30         -19.10348
  161 Torsion                 23    21    19    32         174.45651
  162 Torsion                 23    21    24    25          47.36145
  163 Torsion                 23    21    24    30        -135.86479
  164 Torsion                 24    21    19    32         -64.88935
  165 Torsion                 24    25    26    27         178.97271
  166 Torsion                 24    25    26    28          -1.13904
  167 Torsion                 24    30    28    26           0.46577
  168 Torsion                 24    30    28    29        -179.53040
  169 Torsion                 25    24    30    28          -1.16654
  170 Torsion                 25    24    30    31         177.74241
  171 Torsion                 25    26    28    29        -179.55909
  172 Torsion                 25    26    28    30           0.44471
  173 Torsion                 26    25    24    30           1.42416
  174 Torsion                 26    28    30    31        -178.41693
  175 Torsion                 27    26    28    29           0.32888
  176 Torsion                 27    26    28    30        -179.66731
  177 Torsion                 29    28    30    31           1.58690
  178 Torsion                 33    32    34    35        -178.98869
  179 Torsion                 33    32    34    36          -1.29464


            XYZ format geometry
            -------------------
    36
 geometry
 H                    -2.96337029    -2.66728570    -0.25366477
 C                    -2.57446775    -2.64033637     0.76244229
 H                    -3.07640076    -3.39387669     1.36677765
 H                    -2.72970372    -1.65630911     1.19734015
 C                    -1.09347302    -2.93997703     0.73937533
 O                    -0.63728551    -3.82357394     1.45034260
 N                    -0.34918572    -2.18733641    -0.06710995
 H                    -0.81974149    -1.47145595    -0.60872922
 C                     1.10002946    -2.34989275    -0.26095732
 H                     1.51172122    -2.87458497     0.60315550
 C                     1.32633855    -3.23435092    -1.49721940
 H                     0.81071784    -4.18688967    -1.37012012
 H                     0.94867397    -2.73225366    -2.38936110
 H                     2.39269385    -3.42703649    -1.62120589
 C                     1.84561709    -0.99802676    -0.34387556
 O                     2.95321632    -0.90853217    -0.86585990
 N                     1.20538923     0.07240152     0.13547149
 H                     0.28401211    -0.09164017     0.51349732
 C                     1.50878710     1.46404882    -0.22285312
 H                     2.52225341     1.52315514    -0.62344330
 C                     0.52785097     1.87628654    -1.33402834
 H                     0.75137864     2.89361386    -1.65671163
 H                     0.67217085     1.22162596    -2.19439704
 C                    -0.92115694     1.79438381    -0.91068212
 N                    -1.65719700     0.61547639    -0.73679039
 C                    -2.87580904     1.00561279    -0.33217416
 H                    -3.69833198     0.33367889    -0.12245568
 N                    -2.93115758     2.34375101    -0.22173574
 H                    -3.73877686     2.87684578     0.07220144
 C                    -1.70537877     2.85862194    -0.57610875
 H                    -1.39911934     3.89660452    -0.57668055
 C                     1.46043307     2.42986316     0.97616419
 O                     1.33029393     3.63735622     0.81249277
 N                     1.53400500     1.92901222     2.20133459
 H                     1.65623461     0.93786858     2.32923770
 H                     1.50018824     2.56540631     2.98006753

 ==============================================================================
                                internuclear distances
 ------------------------------------------------------------------------------
       center one      |      center two      | atomic units |  angstroms
 ------------------------------------------------------------------------------
    2 C                |   1 H                |     2.05663  |     1.08832
    3 H                |   2 C                |     2.05710  |     1.08857
    4 H                |   2 C                |     2.05411  |     1.08699
    5 C                |   2 C                |     2.85571  |     1.51118
    6 O                |   5 C                |     2.31005  |     1.22243
    7 N                |   5 C                |     2.51472  |     1.33073
    8 H                |   7 N                |     1.91531  |     1.01354
    9 C                |   7 N                |     2.78003  |     1.47113
   10 H                |   9 C                |     2.06273  |     1.09155
   11 C                |   9 C                |     2.90418  |     1.53682
   12 H                |  11 C                |     2.06088  |     1.09057
   13 H                |  11 C                |     2.06201  |     1.09117
   14 H                |  11 C                |     2.06111  |     1.09069
   15 C                |   9 C                |     2.92164  |     1.54607
   16 O                |  15 C                |     2.32002  |     1.22770
   17 N                |  15 C                |     2.52509  |     1.33622
   18 H                |  17 N                |     1.90736  |     1.00933
   19 C                |  17 N                |     2.77547  |     1.46872
   20 H                |  19 C                |     2.06238  |     1.09137
   21 C                |  19 C                |     2.90728  |     1.53847
   22 H                |  21 C                |     2.06062  |     1.09043
   23 H                |  21 C                |     2.06114  |     1.09071
   24 C                |  21 C                |     2.85690  |     1.51180
   25 N                |  24 C                |     2.64684  |     1.40065
   26 C                |  25 N                |     2.53599  |     1.34199
   27 H                |  26 C                |     2.04582  |     1.08260
   28 N                |  26 C                |     2.53947  |     1.34383
   29 H                |  28 N                |     1.91118  |     1.01135
   30 C                |  24 C                |     2.57693  |     1.36365
   30 C                |  28 N                |     2.60015  |     1.37594
   31 H                |  30 C                |     2.04510  |     1.08222
   32 C                |  19 C                |     2.91090  |     1.54038
   33 O                |  32 C                |     2.31579  |     1.22546
   34 N                |  32 C                |     2.50509  |     1.32563
   35 H                |  34 N                |     1.90259  |     1.00681
   36 H                |  34 N                |     1.90156  |     1.00626
 ------------------------------------------------------------------------------
                         number of included internuclear distances:         36
 ==============================================================================



 ==============================================================================
                                 internuclear angles
 ------------------------------------------------------------------------------
        center 1       |       center 2       |       center 3       |  degrees
 ------------------------------------------------------------------------------
    1 H                |   2 C                |   3 H                |   109.66
    1 H                |   2 C                |   4 H                |   110.18
    1 H                |   2 C                |   5 C                |   109.33
    3 H                |   2 C                |   4 H                |   109.80
    3 H                |   2 C                |   5 C                |   108.85
    4 H                |   2 C                |   5 C                |   109.00
    2 C                |   5 C                |   6 O                |   120.01
    2 C                |   5 C                |   7 N                |   116.44
    6 O                |   5 C                |   7 N                |   123.54
    5 C                |   7 N                |   8 H                |   117.62
    5 C                |   7 N                |   9 C                |   124.63
    8 H                |   7 N                |   9 C                |   117.71
    7 N                |   9 C                |  10 H                |   108.68
    7 N                |   9 C                |  11 C                |   108.34
    7 N                |   9 C                |  15 C                |   112.68
   10 H                |   9 C                |  11 C                |   107.74
   10 H                |   9 C                |  15 C                |   106.31
   11 C                |   9 C                |  15 C                |   112.90
    9 C                |  11 C                |  12 H                |   109.83
    9 C                |  11 C                |  13 H                |   109.99
    9 C                |  11 C                |  14 H                |   109.70
   12 H                |  11 C                |  13 H                |   109.48
   12 H                |  11 C                |  14 H                |   108.74
   13 H                |  11 C                |  14 H                |   109.07
    9 C                |  15 C                |  16 O                |   121.44
    9 C                |  15 C                |  17 N                |   116.75
   16 O                |  15 C                |  17 N                |   121.76
   15 C                |  17 N                |  18 H                |   116.20
   15 C                |  17 N                |  19 C                |   124.93
   18 H                |  17 N                |  19 C                |   115.72
   17 N                |  19 C                |  20 H                |   109.43
   17 N                |  19 C                |  21 C                |   107.36
   17 N                |  19 C                |  32 C                |   113.43
   20 H                |  19 C                |  21 C                |   108.21
   20 H                |  19 C                |  32 C                |   106.31
   21 C                |  19 C                |  32 C                |   111.97
   19 C                |  21 C                |  22 H                |   109.45
   19 C                |  21 C                |  23 H                |   108.94
   19 C                |  21 C                |  24 C                |   113.23
   22 H                |  21 C                |  23 H                |   107.42
   22 H                |  21 C                |  24 C                |   109.26
   23 H                |  21 C                |  24 C                |   108.37
   21 C                |  24 C                |  25 N                |   125.73
   21 C                |  24 C                |  30 C                |   125.28
   25 N                |  24 C                |  30 C                |   108.92
   24 C                |  25 N                |  26 C                |   105.66
   25 N                |  26 C                |  27 H                |   124.60
   25 N                |  26 C                |  28 N                |   110.59
   27 H                |  26 C                |  28 N                |   124.81
   26 C                |  28 N                |  29 H                |   125.57
   26 C                |  28 N                |  30 C                |   108.35
   29 H                |  28 N                |  30 C                |   126.09
   24 C                |  30 C                |  28 N                |   106.47
   24 C                |  30 C                |  31 H                |   125.85
   28 N                |  30 C                |  31 H                |   127.67
   19 C                |  32 C                |  33 O                |   121.14
   19 C                |  32 C                |  34 N                |   118.74
   33 O                |  32 C                |  34 N                |   120.11
   32 C                |  34 N                |  35 H                |   119.74
   32 C                |  34 N                |  36 H                |   118.32
   35 H                |  34 N                |  36 H                |   121.89
 ------------------------------------------------------------------------------
                            number of included internuclear angles:         61
 ==============================================================================



  library name resolved from: environment
  library file name is: </opt/rit/el9/20230413/app/linux-rhel9-x86_64_v3/gcc-11.2.1/nwchem-7.2.0-oxtctbuhfuzyfaoziquq6bki22grib3g/share/nwchem/libraries/>
  


 Summary of "ao basis" -> "" (cartesian)
 ------------------------------------------------------------------------------
       Tag                 Description            Shells   Functions and Types
 ---------------- ------------------------------  ------  ---------------------
 *                        aug-cc-pvdz                 on all atoms 


                      Basis "ao basis" -> "ao basis" (cartesian)
                      -----
  H (Hydrogen)
  ------------
            Exponent  Coefficients 
       -------------- ---------------------------------------------------------
  1 S  1.30100000E+01  0.019685
  1 S  1.96200000E+00  0.137977
  1 S  4.44600000E-01  0.478148

  2 S  1.22000000E-01  1.000000

  3 S  2.97400000E-02  1.000000

  4 P  7.27000000E-01  1.000000

  5 P  1.41000000E-01  1.000000

  C (Carbon)
  ----------
            Exponent  Coefficients 
       -------------- ---------------------------------------------------------
  1 S  6.66500000E+03  0.000692
  1 S  1.00000000E+03  0.005329
  1 S  2.28000000E+02  0.027077
  1 S  6.47100000E+01  0.101718
  1 S  2.10600000E+01  0.274740
  1 S  7.49500000E+00  0.448564
  1 S  2.79700000E+00  0.285074
  1 S  5.21500000E-01  0.015204

  2 S  6.66500000E+03 -0.000146
  2 S  1.00000000E+03 -0.001154
  2 S  2.28000000E+02 -0.005725
  2 S  6.47100000E+01 -0.023312
  2 S  2.10600000E+01 -0.063955
  2 S  7.49500000E+00 -0.149981
  2 S  2.79700000E+00 -0.127262
  2 S  5.21500000E-01  0.544529

  3 S  1.59600000E-01  1.000000

  4 S  4.69000000E-02  1.000000

  5 P  9.43900000E+00  0.038109
  5 P  2.00200000E+00  0.209480
  5 P  5.45600000E-01  0.508557

  6 P  1.51700000E-01  1.000000

  7 P  4.04100000E-02  1.000000

  8 D  5.50000000E-01  1.000000

  9 D  1.51000000E-01  1.000000

  O (Oxygen)
  ----------
            Exponent  Coefficients 
       -------------- ---------------------------------------------------------
  1 S  1.17200000E+04  0.000710
  1 S  1.75900000E+03  0.005470
  1 S  4.00800000E+02  0.027837
  1 S  1.13700000E+02  0.104800
  1 S  3.70300000E+01  0.283062
  1 S  1.32700000E+01  0.448719
  1 S  5.02500000E+00  0.270952
  1 S  1.01300000E+00  0.015458

  2 S  1.17200000E+04 -0.000160
  2 S  1.75900000E+03 -0.001263
  2 S  4.00800000E+02 -0.006267
  2 S  1.13700000E+02 -0.025716
  2 S  3.70300000E+01 -0.070924
  2 S  1.32700000E+01 -0.165411
  2 S  5.02500000E+00 -0.116955
  2 S  1.01300000E+00  0.557368

  3 S  3.02300000E-01  1.000000

  4 S  7.89600000E-02  1.000000

  5 P  1.77000000E+01  0.043018
  5 P  3.85400000E+00  0.228913
  5 P  1.04600000E+00  0.508728

  6 P  2.75300000E-01  1.000000

  7 P  6.85600000E-02  1.000000

  8 D  1.18500000E+00  1.000000

  9 D  3.32000000E-01  1.000000

  N (Nitrogen)
  ------------
            Exponent  Coefficients 
       -------------- ---------------------------------------------------------
  1 S  9.04600000E+03  0.000700
  1 S  1.35700000E+03  0.005389
  1 S  3.09300000E+02  0.027406
  1 S  8.77300000E+01  0.103207
  1 S  2.85600000E+01  0.278723
  1 S  1.02100000E+01  0.448540
  1 S  3.83800000E+00  0.278238
  1 S  7.46600000E-01  0.015440

  2 S  9.04600000E+03 -0.000153
  2 S  1.35700000E+03 -0.001208
  2 S  3.09300000E+02 -0.005992
  2 S  8.77300000E+01 -0.024544
  2 S  2.85600000E+01 -0.067459
  2 S  1.02100000E+01 -0.158078
  2 S  3.83800000E+00 -0.121831
  2 S  7.46600000E-01  0.549003

  3 S  2.24800000E-01  1.000000

  4 S  6.12400000E-02  1.000000

  5 P  1.35500000E+01  0.039919
  5 P  2.91700000E+00  0.217169
  5 P  7.97300000E-01  0.510319

  6 P  2.18500000E-01  1.000000

  7 P  5.61100000E-02  1.000000

  8 D  8.17000000E-01  1.000000

  9 D  2.30000000E-01  1.000000



 Summary of "ao basis" -> "ao basis" (cartesian)
 ------------------------------------------------------------------------------
       Tag                 Description            Shells   Functions and Types
 ---------------- ------------------------------  ------  ---------------------
 H                        aug-cc-pvdz                5        9   3s2p
 C                        aug-cc-pvdz                9       25   4s3p2d
 O                        aug-cc-pvdz                9       25   4s3p2d
 N                        aug-cc-pvdz                9       25   4s3p2d


                                 NWChem SCF Module
                                 -----------------



  ao basis        = "ao basis"
  functions       =   628
  atoms           =    36
  closed shells   =    71
  open shells     =     0
  charge          =   0.00
  wavefunction    = RHF 
  input vectors   = atomic
  output vectors  = ./ALA_HIS_3.movecs
  use symmetry    = F
  symmetry adapt  = F


 Summary of "ao basis" -> "ao basis" (cartesian)
 ------------------------------------------------------------------------------
       Tag                 Description            Shells   Functions and Types
 ---------------- ------------------------------  ------  ---------------------
 H                        aug-cc-pvdz                5        9   3s2p
 C                        aug-cc-pvdz                9       25   4s3p2d
 O                        aug-cc-pvdz                9       25   4s3p2d
 N                        aug-cc-pvdz                9       25   4s3p2d



 Forming initial guess at       2.6s


 !! The overlap matrix has   7 vectors deemed linearly dependent with
    eigenvalues:
 3.03D-06 3.48D-06 3.72D-06 4.13D-06 6.28D-06 7.65D-06 9.25D-06


      Superposition of Atomic Density Guess
      -------------------------------------

 Sum of atomic energies:        -918.63993171

      Non-variational initial energy
      ------------------------------

 Total energy =    -931.274283
 1-e energy   =   -4268.780541
 2-e energy   =    1817.486405
 HOMO         =      -0.243521
 LUMO         =       0.012529


 Starting SCF solution at     302.9s



 ----------------------------------------------
         Quadratically convergent ROHF

 Convergence threshold     :          1.000E-04
 Maximum no. of iterations :           30
 Final Fock-matrix accuracy:          1.000E-10
 ----------------------------------------------


              iter       energy          gnorm     gmax       time
             ----- ------------------- --------- --------- --------
                 1     -923.0399425833  2.56D+00  1.52D-01    678.3
                 2     -923.3986800111  9.02D-01  4.46D-02   1303.5
                 3     -923.4696628780  7.18D-02  5.09D-03   2318.7
                 4     -923.4704041845  4.70D-03  3.64D-04   3604.9
                 5     -923.4704082762  1.42D-05  2.23D-06   5778.4


       Final RHF  results 
       ------------------ 

         Total SCF energy =   -923.470408276244
      One-electron energy =  -4281.414375695579
      Two-electron energy =   1837.924113801007
 Nuclear repulsion energy =   1520.019853618329

        Time for solution =   5485.2s


             Final eigenvalues
             -----------------

              1      
    1  -20.5307
    2  -20.5306
    3  -20.5186
    4  -15.6591
    5  -15.6042
    6  -15.6031
    7  -15.5905
    8  -15.5853
    9  -11.3670
   10  -11.3640
   11  -11.3508
   12  -11.3355
   13  -11.3054
   14  -11.2929
   15  -11.2824
   16  -11.2771
   17  -11.2569
   18  -11.2426
   19  -11.2259
   20   -1.3959
   21   -1.3894
   22   -1.3807
   23   -1.3693
   24   -1.2628
   25   -1.2391
   26   -1.2240
   27   -1.1896
   28   -1.0841
   29   -1.0531
   30   -1.0192
   31   -0.9892
   32   -0.9304
   33   -0.8844
   34   -0.8557
   35   -0.8171
   36   -0.8098
   37   -0.7972
   38   -0.7859
   39   -0.7643
   40   -0.7537
   41   -0.7258
   42   -0.6954
   43   -0.6694
   44   -0.6560
   45   -0.6431
   46   -0.6377
   47   -0.6311
   48   -0.6247
   49   -0.6217
   50   -0.6108
   51   -0.6053
   52   -0.5881
   53   -0.5836
   54   -0.5699
   55   -0.5692
   56   -0.5585
   57   -0.5448
   58   -0.5423
   59   -0.5270
   60   -0.5235
   61   -0.5192
   62   -0.4971
   63   -0.4643
   64   -0.4404
   65   -0.4326
   66   -0.4212
   67   -0.4201
   68   -0.4162
   69   -0.3991
   70   -0.3884
   71   -0.3385
   72    0.0158
   73    0.0328
   74    0.0342
   75    0.0412
   76    0.0523
   77    0.0531
   78    0.0548
   79    0.0606
   80    0.0638
   81    0.0692

                       ROHF Final Molecular Orbital Analysis
                       -------------------------------------

 Vector   20  Occ=2.000000D+00  E=-1.395947D+00
              MO Center=  1.6D+00,  2.0D+00,  5.8D-01, r^2= 4.8D+00
   Bfn.  Coefficient  Atom+Function         Bfn.  Coefficient  Atom+Function  
  ----- ------------  ---------------      ----- ------------  ---------------
   563      0.314015  33 O  s               562      0.291442  33 O  s         
   537      0.212774  32 C  s               250      0.170944  16 O  s         
   249      0.168757  16 O  s         

 Vector   21  Occ=2.000000D+00  E=-1.389398D+00
              MO Center=  1.9D+00,  5.5D-02, -2.3D-02, r^2= 6.5D+00
   Bfn.  Coefficient  Atom+Function         Bfn.  Coefficient  Atom+Function  
  ----- ------------  ---------------      ----- ------------  ---------------
   250      0.294196  16 O  s               249      0.277551  16 O  s         
   563     -0.210219  33 O  s               224      0.198406  15 C  s         
   562     -0.190351  33 O  s         

 Vector   22  Occ=2.000000D+00  E=-1.380653D+00
              MO Center= -4.1D-01, -3.1D+00,  9.1D-01, r^2= 2.8D+00
   Bfn.  Coefficient  Atom+Function         Bfn.  Coefficient  Atom+Function  
  ----- ------------  ---------------      ----- ------------  ---------------
    80      0.340004   6 O  s                79      0.333474   6 O  s         
    54      0.234801   5 C  s         

 Vector   23  Occ=2.000000D+00  E=-1.369340D+00
              MO Center= -2.4D+00,  1.8D+00, -4.2D-01, r^2= 1.3D+00
   Bfn.  Coefficient  Atom+Function         Bfn.  Coefficient  Atom+Function  
  ----- ------------  ---------------      ----- ------------  ---------------
   470      0.346687  28 N  s               469      0.295297  28 N  s         
   411      0.194569  25 N  s               435      0.193466  26 C  s         
   410      0.167395  25 N  s         

 Vector   24  Occ=2.000000D+00  E=-1.262842D+00
              MO Center=  1.2D+00, -2.5D-01,  5.8D-02, r^2= 4.0D+00
   Bfn.  Coefficient  Atom+Function         Bfn.  Coefficient  Atom+Function  
  ----- ------------  ---------------      ----- ------------  ---------------
   274      0.280227  17 N  s               275      0.281580  17 N  s         
   250     -0.221841  16 O  s               249     -0.180741  16 O  s         
   139     -0.177504   9 C  s               105      0.150630   7 N  s         

 Vector   25  Occ=2.000000D+00  E=-1.239115D+00
              MO Center=  1.8D-01, -1.2D+00,  4.9D-01, r^2= 6.5D+00
   Bfn.  Coefficient  Atom+Function         Bfn.  Coefficient  Atom+Function  
  ----- ------------  ---------------      ----- ------------  ---------------
   105      0.357043   7 N  s               104      0.292699   7 N  s         
    80     -0.182390   6 O  s               587     -0.161983  34 N  s         
    79     -0.156085   6 O  s               588     -0.153379  34 N  s         

 Vector   26  Occ=2.000000D+00  E=-1.224038D+00
              MO Center=  1.3D+00,  1.3D+00,  1.3D+00, r^2= 4.8D+00
   Bfn.  Coefficient  Atom+Function         Bfn.  Coefficient  Atom+Function  
  ----- ------------  ---------------      ----- ------------  ---------------
   588      0.355828  34 N  s               587      0.321775  34 N  s         
   275     -0.227348  17 N  s               563     -0.162904  33 O  s         
   545     -0.159244  32 C  pz              274     -0.158295  17 N  s         

 Vector   27  Occ=2.000000D+00  E=-1.189620D+00
              MO Center= -2.0D+00,  1.5D+00, -5.2D-01, r^2= 2.3D+00
   Bfn.  Coefficient  Atom+Function         Bfn.  Coefficient  Atom+Function  
  ----- ------------  ---------------      ----- ------------  ---------------
   411      0.373670  25 N  s               470     -0.371531  28 N  s         
   410      0.295010  25 N  s               469     -0.258149  28 N  s         
   385      0.150501  24 C  s         

 Vector   28  Occ=2.000000D+00  E=-1.084143D+00
              MO Center=  6.3D-02,  1.2D+00, -6.3D-01, r^2= 4.9D+00
   Bfn.  Coefficient  Atom+Function         Bfn.  Coefficient  Atom+Function  
  ----- ------------  ---------------      ----- ------------  ---------------
   342      0.230681  21 C  s               309      0.184419  19 C  s         
   308      0.173101  19 C  s               411     -0.156178  25 N  s         

 Vector   29  Occ=2.000000D+00  E=-1.053079D+00
              MO Center= -9.0D-02, -1.8D+00, -3.0D-01, r^2= 7.1D+00
   Bfn.  Coefficient  Atom+Function         Bfn.  Coefficient  Atom+Function  
  ----- ------------  ---------------      ----- ------------  ---------------
   138      0.226411   9 C  s                12     -0.194102   2 C  s         
   172      0.176414  11 C  s               225      0.172007  15 C  s         
    11     -0.151131   2 C  s         

 Vector   30  Occ=2.000000D+00  E=-1.019216D+00
              MO Center= -5.5D-01,  1.2D+00, -3.4D-01, r^2= 7.5D+00
   Bfn.  Coefficient  Atom+Function         Bfn.  Coefficient  Atom+Function  
  ----- ------------  ---------------      ----- ------------  ---------------
   503     -0.205817  30 C  s               308      0.193688  19 C  s         
   435      0.158620  26 C  s         

 Vector   31  Occ=2.000000D+00  E=-9.892383D-01
              MO Center= -1.3D+00, -2.7D+00,  2.2D-01, r^2= 4.9D+00
   Bfn.  Coefficient  Atom+Function         Bfn.  Coefficient  Atom+Function  
  ----- ------------  ---------------      ----- ------------  ---------------
    11      0.309320   2 C  s                55      0.188771   5 C  s         
   172      0.171090  11 C  s                57     -0.165041   5 C  px        

 Vector   32  Occ=2.000000D+00  E=-9.303700D-01
              MO Center=  3.1D-01,  1.3D+00, -5.1D-01, r^2= 6.9D+00
   Bfn.  Coefficient  Atom+Function         Bfn.  Coefficient  Atom+Function  
  ----- ------------  ---------------      ----- ------------  ---------------
   316      0.261864  19 C  pz              342     -0.234133  21 C  s         

 Vector   33  Occ=2.000000D+00  E=-8.844348D-01
              MO Center=  9.8D-01, -1.6D+00, -5.0D-01, r^2= 7.7D+00
   Bfn.  Coefficient  Atom+Function         Bfn.  Coefficient  Atom+Function  
  ----- ------------  ---------------      ----- ------------  ---------------
   145      0.266503   9 C  py              172     -0.239299  11 C  s         
   138      0.161526   9 C  s         

 Vector   34  Occ=2.000000D+00  E=-8.557427D-01
              MO Center= -2.3D+00,  1.7D+00, -3.8D-01, r^2= 3.6D+00
   Bfn.  Coefficient  Atom+Function         Bfn.  Coefficient  Atom+Function  
  ----- ------------  ---------------      ----- ------------  ---------------
   493      0.268796  29 H  s               411      0.256853  25 N  s         
   473      0.244845  28 N  py              470      0.233012  28 N  s         
   435     -0.211320  26 C  s               509      0.195864  30 C  px        
   389     -0.191445  24 C  py              504     -0.180458  30 C  s         
   386     -0.173272  24 C  s               404     -0.170288  24 C  dxy       

 Vector   35  Occ=2.000000D+00  E=-8.170621D-01
              MO Center=  5.9D-01,  1.7D+00,  6.8D-01, r^2= 6.2D+00
   Bfn.  Coefficient  Atom+Function         Bfn.  Coefficient  Atom+Function  
  ----- ------------  ---------------      ----- ------------  ---------------
   592      0.263810  34 N  pz              545     -0.239414  32 C  pz        
   537     -0.185696  32 C  s               620      0.169425  36 H  s         
   315     -0.164142  19 C  py              559      0.157482  32 C  dyz       
   588      0.158186  34 N  s               316     -0.154163  19 C  pz        

 Vector   36  Occ=2.000000D+00  E=-8.097763D-01
              MO Center=  6.7D-01, -5.7D-01,  1.9D-01, r^2= 6.1D+00
   Bfn.  Coefficient  Atom+Function         Bfn.  Coefficient  Atom+Function  
  ----- ------------  ---------------      ----- ------------  ---------------
   277      0.214254  17 N  px              298     -0.200888  18 H  s         
   225      0.185702  15 C  s               309      0.178060  19 C  s         
   224      0.176323  15 C  s               250     -0.164025  16 O  s         
   278     -0.164607  17 N  py              275     -0.150880  17 N  s         

 Vector   37  Occ=2.000000D+00  E=-7.972392D-01
              MO Center= -7.1D-01, -2.0D-01, -1.3D-01, r^2= 8.8D+00
   Bfn.  Coefficient  Atom+Function         Bfn.  Coefficient  Atom+Function  
  ----- ------------  ---------------      ----- ------------  ---------------
   128      0.209232   8 H  s               108      0.175352   7 N  py        
   439     -0.173256  26 C  py              109     -0.156756   7 N  pz        
    55     -0.150162   5 C  s         

 Vector   38  Occ=2.000000D+00  E=-7.859261D-01
              MO Center= -1.2D+00,  2.5D-01, -1.9D-01, r^2= 8.6D+00
   Bfn.  Coefficient  Atom+Function         Bfn.  Coefficient  Atom+Function  
  ----- ------------  ---------------      ----- ------------  ---------------
   439      0.211735  26 C  py              473     -0.172815  28 N  py        
    55     -0.171289   5 C  s               128      0.169623   8 H  s         
   225      0.169217  15 C  s               527     -0.165626  31 H  s         
   109     -0.150767   7 N  pz        

 Vector   39  Occ=2.000000D+00  E=-7.643416D-01
              MO Center= -2.4D-01,  1.7D+00,  3.0D-01, r^2= 7.6D+00
   Bfn.  Coefficient  Atom+Function         Bfn.  Coefficient  Atom+Function  
  ----- ------------  ---------------      ----- ------------  ---------------
   591      0.227708  34 N  py              472      0.219682  28 N  px        
   611     -0.204572  35 H  s               506     -0.172359  30 C  px        
   542      0.160804  32 C  pz              538      0.154058  32 C  s         
   493     -0.150490  29 H  s         

 Vector   40  Occ=2.000000D+00  E=-7.536744D-01
              MO Center=  5.1D-01,  6.5D-01,  5.4D-01, r^2= 8.4D+00
   Bfn.  Coefficient  Atom+Function         Bfn.  Coefficient  Atom+Function  
  ----- ------------  ---------------      ----- ------------  ---------------
   591      0.246934  34 N  py              611     -0.203930  35 H  s         
   315     -0.174608  19 C  py        

 Vector   41  Occ=2.000000D+00  E=-7.257769D-01
              MO Center=  7.5D-01,  3.2D-02,  5.7D-01, r^2= 9.3D+00
   Bfn.  Coefficient  Atom+Function         Bfn.  Coefficient  Atom+Function  
  ----- ------------  ---------------      ----- ------------  ---------------
   620      0.227572  36 H  s               144      0.220039   9 C  px        
   226      0.220808  15 C  s               276     -0.219747  17 N  s         
   591      0.201385  34 N  py              228     -0.178489  15 C  py        
   592      0.175563  34 N  pz              107     -0.150113   7 N  px        

 Vector   42  Occ=2.000000D+00  E=-6.953669D-01
              MO Center=  1.1D+00,  8.5D-01,  3.4D-01, r^2= 7.7D+00
   Bfn.  Coefficient  Atom+Function         Bfn.  Coefficient  Atom+Function  
  ----- ------------  ---------------      ----- ------------  ---------------
   315      0.266809  19 C  py              312      0.204360  19 C  py        
   278     -0.202252  17 N  py              542     -0.192489  32 C  pz        
   592      0.179164  34 N  pz              566     -0.171369  33 O  py        
   620      0.163889  36 H  s               563     -0.153335  33 O  s         

 Vector   43  Occ=2.000000D+00  E=-6.693659D-01
              MO Center= -6.3D-01, -2.9D+00,  7.2D-01, r^2= 5.2D+00
   Bfn.  Coefficient  Atom+Function         Bfn.  Coefficient  Atom+Function  
  ----- ------------  ---------------      ----- ------------  ---------------
    80      0.251067   6 O  s                82      0.244815   6 O  px        
    12     -0.222069   2 C  s                17     -0.211153   2 C  px        
    83     -0.169634   6 O  py               58      0.163585   5 C  py        
    85      0.153765   6 O  px        

 Vector   44  Occ=2.000000D+00  E=-6.560005D-01
              MO Center=  1.0D+00,  1.4D-01, -2.1D-01, r^2= 8.5D+00
   Bfn.  Coefficient  Atom+Function         Bfn.  Coefficient  Atom+Function  
  ----- ------------  ---------------      ----- ------------  ---------------
   139      0.216644   9 C  s               311     -0.207388  19 C  px        
   252     -0.203070  16 O  px              332     -0.182062  20 H  s         
   250     -0.167781  16 O  s         

 Vector   45  Occ=2.000000D+00  E=-6.431324D-01
              MO Center= -6.5D-01,  1.7D-01, -2.8D-01, r^2= 9.2D+00
   Bfn.  Coefficient  Atom+Function         Bfn.  Coefficient  Atom+Function  
  ----- ------------  ---------------      ----- ------------  ---------------
   438      0.214403  26 C  px              459     -0.197396  27 H  s         
   139      0.184612   9 C  s               413     -0.176307  25 N  px        

 Vector   46  Occ=2.000000D+00  E=-6.377346D-01
              MO Center= -3.8D-01,  5.0D-01, -9.1D-02, r^2= 1.1D+01
   Bfn.  Coefficient  Atom+Function         Bfn.  Coefficient  Atom+Function  
  ----- ------------  ---------------      ----- ------------  ---------------
   566      0.197054  33 O  py              506      0.167213  30 C  px        
   145      0.151898   9 C  py              438      0.151046  26 C  px        
   459     -0.151201  27 H  s         

 Vector   47  Occ=2.000000D+00  E=-6.311246D-01
              MO Center= -1.2D+00,  5.2D-01, -2.6D-01, r^2= 9.0D+00
   Bfn.  Coefficient  Atom+Function         Bfn.  Coefficient  Atom+Function  
  ----- ------------  ---------------      ----- ------------  ---------------
   474      0.243651  28 N  pz              477      0.198474  28 N  pz        
   440      0.170932  26 C  pz              508      0.150986  30 C  pz        

 Vector   48  Occ=2.000000D+00  E=-6.247225D-01
              MO Center= -1.5D+00,  1.5D+00, -2.7D-01, r^2= 8.5D+00
   Bfn.  Coefficient  Atom+Function         Bfn.  Coefficient  Atom+Function  
  ----- ------------  ---------------      ----- ------------  ---------------
   507      0.297997  30 C  py              527      0.291846  31 H  s         
   528      0.257493  31 H  s               437     -0.232498  26 C  s         
   473     -0.207297  28 N  py              439      0.197564  26 C  py        
   392     -0.154041  24 C  py              522     -0.153051  30 C  dxy       

 Vector   49  Occ=2.000000D+00  E=-6.216554D-01
              MO Center= -1.3D+00, -5.4D-01,  8.8D-02, r^2= 1.0D+01
   Bfn.  Coefficient  Atom+Function         Bfn.  Coefficient  Atom+Function  
  ----- ------------  ---------------      ----- ------------  ---------------
   173      0.212018  11 C  s                16      0.195823   2 C  pz        
   507      0.173758  30 C  py              139     -0.162264   9 C  s         
     1     -0.158589   1 H  s               106      0.158479   7 N  s         
    59      0.157211   5 C  pz              527      0.155198  31 H  s         

 Vector   50  Occ=2.000000D+00  E=-6.108229D-01
              MO Center=  7.6D-01,  8.5D-01,  1.4D-01, r^2= 1.0D+01
   Bfn.  Coefficient  Atom+Function         Bfn.  Coefficient  Atom+Function  
  ----- ------------  ---------------      ----- ------------  ---------------
   566      0.252634  33 O  py              541     -0.188191  32 C  py        
   254      0.174464  16 O  pz              227      0.171910  15 C  px        
   279      0.168401  17 N  pz              309     -0.159911  19 C  s         
   563      0.155397  33 O  s         

 Vector   51  Occ=2.000000D+00  E=-6.053434D-01
              MO Center=  7.0D-01,  1.6D+00,  8.6D-02, r^2= 8.0D+00
   Bfn.  Coefficient  Atom+Function         Bfn.  Coefficient  Atom+Function  
  ----- ------------  ---------------      ----- ------------  ---------------
   566     -0.225849  33 O  py              541      0.207307  32 C  py        
   252     -0.179644  16 O  px              474      0.175592  28 N  pz        
   227      0.166429  15 C  px              565      0.155784  33 O  px        

 Vector   52  Occ=2.000000D+00  E=-5.881371D-01
              MO Center=  5.1D-01, -1.4D-01, -3.3D-01, r^2= 1.0D+01
   Bfn.  Coefficient  Atom+Function         Bfn.  Coefficient  Atom+Function  
  ----- ------------  ---------------      ----- ------------  ---------------
   313      0.195042  19 C  pz              345     -0.180185  21 C  px        
   176      0.176111  11 C  py              145      0.173958   9 C  py        

 Vector   53  Occ=2.000000D+00  E=-5.835800D-01
              MO Center= -6.8D-02, -2.1D+00,  2.8D-02, r^2= 8.7D+00
   Bfn.  Coefficient  Atom+Function         Bfn.  Coefficient  Atom+Function  
  ----- ------------  ---------------      ----- ------------  ---------------
    14      0.181730   2 C  px              173     -0.176018  11 C  s         
   163      0.168169  10 H  s               175     -0.166781  11 C  px        
   226     -0.165482  15 C  s                57     -0.164647   5 C  px        
   214     -0.165249  14 H  s                84      0.162307   6 O  pz        
    83     -0.152861   6 O  py        

 Vector   54  Occ=2.000000D+00  E=-5.698967D-01
              MO Center= -6.2D-01, -2.1D+00,  3.9D-01, r^2= 8.6D+00
   Bfn.  Coefficient  Atom+Function         Bfn.  Coefficient  Atom+Function  
  ----- ------------  ---------------      ----- ------------  ---------------
    36     -0.218387   3 H  s                15      0.209582   2 C  py        
    83      0.206062   6 O  py               84     -0.193617   6 O  pz        
    35     -0.163145   3 H  s               173     -0.161530  11 C  s         
   177      0.150073  11 C  pz        

 Vector   55  Occ=2.000000D+00  E=-5.692425D-01
              MO Center=  2.8D-01,  7.0D-01,  3.4D-01, r^2= 1.1D+01
   Bfn.  Coefficient  Atom+Function         Bfn.  Coefficient  Atom+Function  
  ----- ------------  ---------------      ----- ------------  ---------------
   590      0.211056  34 N  px              565      0.201497  33 O  px        
   540      0.196778  32 C  px              593      0.158705  34 N  px        
    36      0.154123   3 H  s               388      0.153566  24 C  px        
   568      0.151647  33 O  px        

 Vector   56  Occ=2.000000D+00  E=-5.584868D-01
              MO Center= -4.2D-01, -1.8D+00, -2.7D-01, r^2= 1.0D+01
   Bfn.  Coefficient  Atom+Function         Bfn.  Coefficient  Atom+Function  
  ----- ------------  ---------------      ----- ------------  ---------------
    35      0.230568   3 H  s                16      0.217097   2 C  pz        
    36      0.203891   3 H  s               144      0.200246   9 C  px        
   106      0.185071   7 N  s                 1     -0.154889   1 H  s         
    13     -0.154021   2 C  s               215      0.150891  14 H  s         

 Vector   57  Occ=2.000000D+00  E=-5.448253D-01
              MO Center=  5.9D-01,  3.9D-01, -5.1D-01, r^2= 9.3D+00
   Bfn.  Coefficient  Atom+Function         Bfn.  Coefficient  Atom+Function  
  ----- ------------  ---------------      ----- ------------  ---------------
   375     -0.231323  23 H  s               347      0.226667  21 C  pz        
   316     -0.179806  19 C  pz              313     -0.164522  19 C  pz        
   376     -0.164118  23 H  s               567      0.162824  33 O  pz        

 Vector   58  Occ=2.000000D+00  E=-5.423441D-01
              MO Center= -3.0D-04, -7.2D-01, -5.8D-01, r^2= 1.0D+01
   Bfn.  Coefficient  Atom+Function         Bfn.  Coefficient  Atom+Function  
  ----- ------------  ---------------      ----- ------------  ---------------
   367      0.253276  22 H  s               346      0.240390  21 C  py        
   366      0.200884  22 H  s               197     -0.192637  12 H  s         
   375     -0.177015  23 H  s                16     -0.169701   2 C  pz        
   376     -0.153459  23 H  s         

 Vector   59  Occ=2.000000D+00  E=-5.270151D-01
              MO Center=  8.8D-01,  8.7D-01, -4.0D-01, r^2= 7.2D+00
   Bfn.  Coefficient  Atom+Function         Bfn.  Coefficient  Atom+Function  
  ----- ------------  ---------------      ----- ------------  ---------------
   348     -0.234857  21 C  px              311      0.222296  19 C  px        
   332      0.222885  20 H  s               345     -0.202651  21 C  px        
   388      0.201214  24 C  px        

 Vector   60  Occ=2.000000D+00  E=-5.234782D-01
              MO Center=  1.2D+00, -1.0D+00, -9.1D-01, r^2= 8.8D+00
   Bfn.  Coefficient  Atom+Function         Bfn.  Coefficient  Atom+Function  
  ----- ------------  ---------------      ----- ------------  ---------------
   197     -0.265787  12 H  s               196     -0.260647  12 H  s         
   176      0.245496  11 C  py              333     -0.166862  20 H  s         
   254      0.159498  16 O  pz        

 Vector   61  Occ=2.000000D+00  E=-5.191833D-01
              MO Center=  6.4D-01, -2.6D+00, -6.2D-01, r^2= 6.5D+00
   Bfn.  Coefficient  Atom+Function         Bfn.  Coefficient  Atom+Function  
  ----- ------------  ---------------      ----- ------------  ---------------
   175      0.273801  11 C  px              214      0.260126  14 H  s         
   215      0.237993  14 H  s               206     -0.202437  13 H  s         
   205     -0.195634  13 H  s               162     -0.158667  10 H  s         

 Vector   62  Occ=2.000000D+00  E=-4.971025D-01
              MO Center=  1.0D-01, -2.7D+00,  5.5D-02, r^2= 6.0D+00
   Bfn.  Coefficient  Atom+Function         Bfn.  Coefficient  Atom+Function  
  ----- ------------  ---------------      ----- ------------  ---------------
   143      0.253166   9 C  pz              177     -0.236921  11 C  pz        
    84     -0.220399   6 O  pz               83     -0.198735   6 O  py        
   174      0.184708  11 C  s               162      0.176896  10 H  s         
   163      0.177754  10 H  s               180     -0.169480  11 C  pz        
    87     -0.163793   6 O  pz              205      0.163077  13 H  s         

 Vector   63  Occ=2.000000D+00  E=-4.643063D-01
              MO Center= -1.1D+00,  5.2D-01, -6.7D-01, r^2= 4.3D+00
   Bfn.  Coefficient  Atom+Function         Bfn.  Coefficient  Atom+Function  
  ----- ------------  ---------------      ----- ------------  ---------------
   414      0.434204  25 N  py              411     -0.303281  25 N  s         
   417      0.297655  25 N  py              412     -0.205978  25 N  s         
   376     -0.204547  23 H  s               389     -0.203732  24 C  py        
   392     -0.165666  24 C  py        

 Vector   64  Occ=2.000000D+00  E=-4.403595D-01
              MO Center=  1.5D+00,  2.0D+00,  3.5D-01, r^2= 6.1D+00
   Bfn.  Coefficient  Atom+Function         Bfn.  Coefficient  Atom+Function  
  ----- ------------  ---------------      ----- ------------  ---------------
   567      0.454012  33 O  pz              570      0.354738  33 O  pz        
   333     -0.244383  20 H  s               253      0.224911  16 O  py        
   256      0.177098  16 O  py              226     -0.165075  15 C  s         
   538      0.150752  32 C  s         

 Vector   65  Occ=2.000000D+00  E=-4.326344D-01
              MO Center=  1.7D+00, -8.3D-01, -3.9D-01, r^2= 6.4D+00
   Bfn.  Coefficient  Atom+Function         Bfn.  Coefficient  Atom+Function  
  ----- ------------  ---------------      ----- ------------  ---------------
   253      0.404011  16 O  py              256      0.324047  16 O  py        
   139      0.226349   9 C  s               254      0.191950  16 O  pz        
   142      0.166581   9 C  py              163     -0.163672  10 H  s         
   276      0.160057  17 N  s               567     -0.156650  33 O  pz        
   257      0.151611  16 O  pz              275     -0.152358  17 N  s         

 Vector   66  Occ=2.000000D+00  E=-4.211868D-01
              MO Center= -3.2D-01,  1.7D+00,  4.2D-01, r^2= 7.8D+00
   Bfn.  Coefficient  Atom+Function         Bfn.  Coefficient  Atom+Function  
  ----- ------------  ---------------      ----- ------------  ---------------
   590     -0.290151  34 N  px              415      0.267902  25 N  pz        
   565      0.267552  33 O  px              593     -0.252713  34 N  px        
   418      0.236225  25 N  pz              474     -0.235531  28 N  pz        
   568      0.212247  33 O  px              477     -0.206670  28 N  pz        
   300     -0.194045  18 H  s         

 Vector   67  Occ=2.000000D+00  E=-4.200883D-01
              MO Center=  1.0D-01,  1.9D+00,  6.5D-01, r^2= 7.6D+00
   Bfn.  Coefficient  Atom+Function         Bfn.  Coefficient  Atom+Function  
  ----- ------------  ---------------      ----- ------------  ---------------
   590     -0.323164  34 N  px              565      0.308508  33 O  px        
   593     -0.281428  34 N  px              568      0.244299  33 O  px        
   415     -0.224782  25 N  pz              474      0.216540  28 N  pz        
   418     -0.198824  25 N  pz              477      0.192806  28 N  pz        

 Vector   68  Occ=2.000000D+00  E=-4.162182D-01
              MO Center= -8.5D-01, -3.1D+00,  1.0D+00, r^2= 3.9D+00
   Bfn.  Coefficient  Atom+Function         Bfn.  Coefficient  Atom+Function  
  ----- ------------  ---------------      ----- ------------  ---------------
    82      0.501141   6 O  px               85      0.393209   6 O  px        
    17      0.208457   2 C  px              105     -0.206300   7 N  s         
    14      0.199296   2 C  px              106      0.176968   7 N  s         

 Vector   69  Occ=2.000000D+00  E=-3.991422D-01
              MO Center=  1.4D+00,  4.9D-01, -6.4D-02, r^2= 5.2D+00
   Bfn.  Coefficient  Atom+Function         Bfn.  Coefficient  Atom+Function  
  ----- ------------  ---------------      ----- ------------  ---------------
   279      0.350176  17 N  pz              282      0.333038  17 N  pz        
   254     -0.259581  16 O  pz              276      0.224607  17 N  s         
   567     -0.225201  33 O  pz              257     -0.202197  16 O  pz        
   277      0.182894  17 N  px              570     -0.179115  33 O  pz        
   280      0.167723  17 N  px        

 Vector   70  Occ=2.000000D+00  E=-3.884486D-01
              MO Center=  1.0D-01, -2.5D+00,  1.8D-01, r^2= 4.1D+00
   Bfn.  Coefficient  Atom+Function         Bfn.  Coefficient  Atom+Function  
  ----- ------------  ---------------      ----- ------------  ---------------
   109      0.302639   7 N  pz              108      0.284349   7 N  py        
   112      0.283006   7 N  pz              111      0.271915   7 N  py        
    84     -0.242865   6 O  pz               83     -0.209003   6 O  py        
   253     -0.191172  16 O  py               87     -0.187745   6 O  pz        
   173      0.163275  11 C  s                86     -0.161757   6 O  py        

 Vector   71  Occ=2.000000D+00  E=-3.384791D-01
              MO Center= -1.6D+00,  2.0D+00, -6.1D-01, r^2= 3.1D+00
   Bfn.  Coefficient  Atom+Function         Bfn.  Coefficient  Atom+Function  
  ----- ------------  ---------------      ----- ------------  ---------------
   508      0.341760  30 C  pz              390      0.291837  24 C  pz        
   440     -0.278046  26 C  pz              511      0.248378  30 C  pz        
   393      0.244200  24 C  pz              443     -0.195694  26 C  pz        
   589      0.171122  34 N  s               309     -0.161000  19 C  s         

 Vector   72  Occ=0.000000D+00  E= 1.582947D-02
              MO Center= -4.8D+00,  2.4D+00,  7.1D-01, r^2= 1.6D+01
   Bfn.  Coefficient  Atom+Function         Bfn.  Coefficient  Atom+Function  
  ----- ------------  ---------------      ----- ------------  ---------------
   471      2.589095  28 N  s               495      2.237235  29 H  s         
   461      2.066235  27 H  s               437     -1.928658  26 C  s         
   394      1.770090  24 C  px              130     -1.450387   8 H  s         
   444      1.327764  26 C  px               63      1.239196   5 C  px        
   460      1.220159  27 H  s               539     -1.202854  32 C  s         

 Vector   73  Occ=0.000000D+00  E= 3.279511D-02
              MO Center= -1.5D-01,  1.2D+00,  2.9D+00, r^2= 3.0D+01
   Bfn.  Coefficient  Atom+Function         Bfn.  Coefficient  Atom+Function  
  ----- ------------  ---------------      ----- ------------  ---------------
   461      3.005924  27 H  s               548      2.997375  32 C  pz        
   589     -2.961189  34 N  s                56      2.670217   5 C  s         
   234      2.521814  15 C  py              318      2.472327  19 C  py        
   622     -2.339164  36 H  s                46     -2.159823   4 H  s         
   147      2.066490   9 C  px               63      1.571530   5 C  px        

 Vector   74  Occ=0.000000D+00  E= 3.421415D-02
              MO Center= -3.3D+00,  4.8D-01,  8.5D-01, r^2= 3.4D+01
   Bfn.  Coefficient  Atom+Function         Bfn.  Coefficient  Atom+Function  
  ----- ------------  ---------------      ----- ------------  ---------------
   461      3.356634  27 H  s               529     -2.238777  31 H  s         
   445      2.166375  26 C  py               63      2.094364   5 C  px        
    37      2.002996   3 H  s               300     -1.948734  18 H  s         
   495     -1.918238  29 H  s               513      1.879719  30 C  py        
   444      1.653094  26 C  px              130     -1.536515   8 H  s         

 Vector   75  Occ=0.000000D+00  E= 4.115076D-02
              MO Center= -4.4D-01,  9.4D-01, -2.7D+00, r^2= 3.0D+01
   Bfn.  Coefficient  Atom+Function         Bfn.  Coefficient  Atom+Function  
  ----- ------------  ---------------      ----- ------------  ---------------
   226      2.994904  15 C  s               377     -2.364413  23 H  s         
     3     -2.255706   1 H  s               529     -2.251106  31 H  s         
   140      1.945508   9 C  s               512      1.868250  30 C  px        
   130      1.693797   8 H  s               513      1.672461  30 C  py        
   353     -1.654362  21 C  pz              207     -1.574779  13 H  s         

 Vector   76  Occ=0.000000D+00  E= 5.226959D-02
              MO Center=  3.0D-03, -1.1D+00, -2.0D+00, r^2= 4.1D+01
   Bfn.  Coefficient  Atom+Function         Bfn.  Coefficient  Atom+Function  
  ----- ------------  ---------------      ----- ------------  ---------------
   234      5.471013  15 C  py              106      3.747571   7 N  s         
   368     -3.440121  22 H  s               353     -2.655539  21 C  pz        
   394     -2.642259  24 C  px              147      2.585267   9 C  px        
   395     -2.459474  24 C  py              198      2.394844  12 H  s         
   461     -2.269686  27 H  s               352      2.235075  21 C  py        

 Vector   77  Occ=0.000000D+00  E= 5.308168D-02
              MO Center= -2.9D+00, -9.9D-01,  1.1D+00, r^2= 3.9D+01
   Bfn.  Coefficient  Atom+Function         Bfn.  Coefficient  Atom+Function  
  ----- ------------  ---------------      ----- ------------  ---------------
   234      4.271986  15 C  py              461     -4.243520  27 H  s         
    37      3.578607   3 H  s               147      3.494993   9 C  px        
   529      3.341396  31 H  s                46      2.719991   4 H  s         
    63      2.578763   5 C  px              318      2.380235  19 C  py        
    12     -2.332918   2 C  s               444     -2.242979  26 C  px        

 Vector   78  Occ=0.000000D+00  E= 5.481606D-02
              MO Center=  3.1D-01, -1.4D-01,  7.3D-03, r^2= 4.3D+01
   Bfn.  Coefficient  Atom+Function         Bfn.  Coefficient  Atom+Function  
  ----- ------------  ---------------      ----- ------------  ---------------
     3      3.575945   1 H  s               147      3.557397   9 C  px        
    46     -3.232871   4 H  s               300      3.136536  18 H  s         
   529      2.950008  31 H  s               589      2.689892  34 N  s         
    63      2.574982   5 C  px              234      2.440599  15 C  py        
   174      2.348766  11 C  s               226     -2.348860  15 C  s         

 Vector   79  Occ=0.000000D+00  E= 6.062983D-02
              MO Center=  5.6D-01, -7.7D-01,  8.8D-01, r^2= 3.4D+01
   Bfn.  Coefficient  Atom+Function         Bfn.  Coefficient  Atom+Function  
  ----- ------------  ---------------      ----- ------------  ---------------
    46      4.108833   4 H  s               164     -3.981669  10 H  s         
   613     -2.860216  35 H  s               149      2.304646   9 C  pz        
   207      2.032467  13 H  s               622      1.905362  36 H  s         
     3     -1.757116   1 H  s               234      1.671924  15 C  py        
    63      1.656301   5 C  px              147      1.624480   9 C  px        

 Vector   80  Occ=0.000000D+00  E= 6.376781D-02
              MO Center=  1.5D+00,  7.2D-01, -1.2D-01, r^2= 3.5D+01
   Bfn.  Coefficient  Atom+Function         Bfn.  Coefficient  Atom+Function  
  ----- ------------  ---------------      ----- ------------  ---------------
   334      5.087572  20 H  s               317     -3.895598  19 C  px        
   377     -2.823496  23 H  s               276     -2.748990  17 N  s         
   613     -2.455424  35 H  s                46     -2.337601   4 H  s         
   130     -2.217249   8 H  s                56      2.195437   5 C  s         
   226     -2.131417  15 C  s               174      2.004173  11 C  s         

 Vector   81  Occ=0.000000D+00  E= 6.922546D-02
              MO Center= -6.9D-01, -6.8D-01, -5.1D-01, r^2= 4.9D+01
   Bfn.  Coefficient  Atom+Function         Bfn.  Coefficient  Atom+Function  
  ----- ------------  ---------------      ----- ------------  ---------------
   437      4.089389  26 C  s               461     -4.017384  27 H  s         
   334      3.193998  20 H  s               539      3.188825  32 C  s         
   234     -3.167877  15 C  py              529     -2.989767  31 H  s         
   495      2.931935  29 H  s               216     -2.910999  14 H  s         
   140     -2.746448   9 C  s                 3      2.566105   1 H  s         

 Vector   82  Occ=0.000000D+00  E= 7.388073D-02
              MO Center= -1.2D+00, -7.2D-01,  3.7D-01, r^2= 4.1D+01
   Bfn.  Coefficient  Atom+Function         Bfn.  Coefficient  Atom+Function  
  ----- ------------  ---------------      ----- ------------  ---------------
    37      5.609133   3 H  s               377      4.192655  23 H  s         
    46     -3.475403   4 H  s                 3     -3.266775   1 H  s         
   334     -3.225279  20 H  s                56      3.186313   5 C  s         
   319     -3.089580  19 C  pz              106     -2.988191   7 N  s         
    13      2.968024   2 C  s               352      2.738003  21 C  py        

 Vector   83  Occ=0.000000D+00  E= 7.648685D-02
              MO Center=  4.2D-01, -1.3D+00, -1.8D+00, r^2= 4.4D+01
   Bfn.  Coefficient  Atom+Function         Bfn.  Coefficient  Atom+Function  
  ----- ------------  ---------------      ----- ------------  ---------------
   198      6.470045  12 H  s               368      5.613256  22 H  s         
   529     -4.260144  31 H  s               130      3.728723   8 H  s         
   207     -3.536466  13 H  s               226     -3.444381  15 C  s         
   539      3.021118  32 C  s               352     -2.865741  21 C  py        
   182      2.806095  11 C  py              106      2.634091   7 N  s         

 Vector   84  Occ=0.000000D+00  E= 8.477932D-02
              MO Center=  4.7D-01, -1.0D+00, -5.3D-01, r^2= 4.0D+01
   Bfn.  Coefficient  Atom+Function         Bfn.  Coefficient  Atom+Function  
  ----- ------------  ---------------      ----- ------------  ---------------
   300      6.468448  18 H  s                56     -5.672734   5 C  s         
   207     -4.823600  13 H  s               613     -4.694538  35 H  s         
   377      4.579333  23 H  s               395      4.566046  24 C  py        
    13     -3.803886   2 C  s               437      3.201273  26 C  s         
     3      3.044856   1 H  s               164      3.042154  10 H  s         

 Vector   85  Occ=0.000000D+00  E= 8.804382D-02
              MO Center= -5.9D-01,  8.9D-01, -1.4D+00, r^2= 3.7D+01
   Bfn.  Coefficient  Atom+Function         Bfn.  Coefficient  Atom+Function  
  ----- ------------  ---------------      ----- ------------  ---------------
   130      8.911952   8 H  s               334      5.404022  20 H  s         
   387     -5.165013  24 C  s               505     -5.124390  30 C  s         
   368     -5.018375  22 H  s                 3     -4.678075   1 H  s         
   317     -4.434268  19 C  px              437      4.066572  26 C  s         
   226     -4.036606  15 C  s               147      3.234244   9 C  px        

 Vector   86  Occ=0.000000D+00  E= 9.075322D-02
              MO Center=  1.3D+00, -1.6D+00, -1.4D-01, r^2= 3.8D+01
   Bfn.  Coefficient  Atom+Function         Bfn.  Coefficient  Atom+Function  
  ----- ------------  ---------------      ----- ------------  ---------------
   164      6.358450  10 H  s               216     -5.762353  14 H  s         
   539     -5.449887  32 C  s               149     -3.894900   9 C  pz        
   147     -3.105719   9 C  px              181      2.788545  11 C  px        
   207      2.755546  13 H  s               300     -2.719408  18 H  s         
     3     -2.658688   1 H  s               387      2.657400  24 C  s         

 Vector   87  Occ=0.000000D+00  E= 1.003359D-01
              MO Center= -7.1D-02, -8.2D-02, -1.1D+00, r^2= 4.1D+01
   Bfn.  Coefficient  Atom+Function         Bfn.  Coefficient  Atom+Function  
  ----- ------------  ---------------      ----- ------------  ---------------
   377      7.629701  23 H  s               368     -6.714269  22 H  s         
   539      6.046581  32 C  s                56      5.133351   5 C  s         
   352      5.104629  21 C  py              300     -5.050914  18 H  s         
   198      4.997844  12 H  s               437     -4.555261  26 C  s         
   207     -4.440141  13 H  s               529      2.874506  31 H  s         

 Vector   88  Occ=0.000000D+00  E= 1.037956D-01
              MO Center= -1.5D+00, -1.3D-01,  9.4D-01, r^2= 3.0D+01
   Bfn.  Coefficient  Atom+Function         Bfn.  Coefficient  Atom+Function  
  ----- ------------  ---------------      ----- ------------  ---------------
   300     13.700830  18 H  s               234     -9.555505  15 C  py        
    46     -8.014452   4 H  s               130     -7.277007   8 H  s         
   147     -6.110680   9 C  px              174     -5.290715  11 C  s         
   461      4.910038  27 H  s               319      4.511937  19 C  pz        
   351      4.241979  21 C  px              318     -4.164918  19 C  py        

 Vector   89  Occ=0.000000D+00  E= 1.106778D-01
              MO Center=  2.5D-01,  3.4D-01,  8.0D-01, r^2= 3.3D+01
   Bfn.  Coefficient  Atom+Function         Bfn.  Coefficient  Atom+Function  
  ----- ------------  ---------------      ----- ------------  ---------------
   234     13.156409  15 C  py              318     11.257195  19 C  py        
   539     -9.791624  32 C  s               147      9.204817   9 C  px        
   130      7.846677   8 H  s                56      6.575292   5 C  s         
   300     -6.285817  18 H  s               437      6.301119  26 C  s         
   548      5.994198  32 C  pz              387     -5.926028  24 C  s         

 Vector   90  Occ=0.000000D+00  E= 1.169623D-01
              MO Center= -2.0D+00,  7.6D-01, -2.4D-01, r^2= 3.3D+01
   Bfn.  Coefficient  Atom+Function         Bfn.  Coefficient  Atom+Function  
  ----- ------------  ---------------      ----- ------------  ---------------
   226     12.338878  15 C  s               539    -10.841667  32 C  s         
   174    -10.249961  11 C  s               395      8.723923  24 C  py        
   300     -7.095634  18 H  s               140      7.055389   9 C  s         
   444      6.823356  26 C  px              284      4.721112  17 N  py        
   149     -4.552599   9 C  pz              396     -4.548451  24 C  pz        

 Vector   91  Occ=0.000000D+00  E= 1.180266D-01
              MO Center= -6.9D-01,  4.0D-03, -7.1D-01, r^2= 3.6D+01
   Bfn.  Coefficient  Atom+Function         Bfn.  Coefficient  Atom+Function  
  ----- ------------  ---------------      ----- ------------  ---------------
   539     11.918490  32 C  s               589     -8.329949  34 N  s         
   437      7.818363  26 C  s                56      6.591940   5 C  s         
   395      6.053442  24 C  py              130     -5.961555   8 H  s         
[...]
   149    -10.534579   9 C  pz              319      8.826660  19 C  pz        
   419      7.959217  25 N  px              351      7.401111  21 C  px        
    12     -7.020465   2 C  s               234     -6.849584  15 C  py        
   589     -5.835390  34 N  s               387     -5.500460  24 C  s         

 Vector  179  Occ=0.000000D+00  E= 4.396201D-01
              MO Center=  7.7D-03, -3.7D-01, -5.9D-02, r^2= 2.0D+01
   Bfn.  Coefficient  Atom+Function         Bfn.  Coefficient  Atom+Function  
  ----- ------------  ---------------      ----- ------------  ---------------
   226     22.760247  15 C  s               539    -15.971006  32 C  s         
   106    -13.508703   7 N  s               437     12.281821  26 C  s         
   140     10.466436   9 C  s               412    -10.435395  25 N  s         
   234     -9.122914  15 C  py              174     -8.253784  11 C  s         
   319      7.933964  19 C  pz              284      7.892703  17 N  py        

 Vector  180  Occ=0.000000D+00  E= 4.428615D-01
              MO Center= -2.5D-01,  2.0D-01,  5.2D-02, r^2= 2.4D+01
   Bfn.  Coefficient  Atom+Function         Bfn.  Coefficient  Atom+Function  
  ----- ------------  ---------------      ----- ------------  ---------------
   234     13.343078  15 C  py              412    -11.804740  25 N  s         
   284    -11.243441  17 N  py              395     -9.441990  24 C  py        
   539      9.025114  32 C  s                13     -7.980476   2 C  s         
    12      7.896649   2 C  s                56      7.871435   5 C  s         
   226     -7.586383  15 C  s               351     -7.620107  21 C  px        

 Vector  181  Occ=0.000000D+00  E= 4.446048D-01
              MO Center=  2.5D-02, -7.7D-01, -7.3D-02, r^2= 2.0D+01
   Bfn.  Coefficient  Atom+Function         Bfn.  Coefficient  Atom+Function  
  ----- ------------  ---------------      ----- ------------  ---------------
   226     10.845429  15 C  s                56     -8.937447   5 C  s         
   149      8.504144   9 C  pz               13     -8.225457   2 C  s         
   437     -7.889840  26 C  s               113     -7.565358   7 N  px        
   140      6.940775   9 C  s               148     -6.516132   9 C  py        
   300      5.885721  18 H  s               539     -5.584521  32 C  s         

 Vector  182  Occ=0.000000D+00  E= 4.474158D-01
              MO Center= -1.7D-01,  1.0D-01,  6.1D-02, r^2= 2.0D+01
   Bfn.  Coefficient  Atom+Function         Bfn.  Coefficient  Atom+Function  
  ----- ------------  ---------------      ----- ------------  ---------------
   437     12.976448  26 C  s                56    -11.686859   5 C  s         
   147     -7.941825   9 C  px              394      7.878642  24 C  px        
   344      7.322275  21 C  s               367     -6.798722  22 H  s         
   539     -6.359907  32 C  s               396     -5.629918  24 C  pz        
   148     -4.960586   9 C  py              376     -4.884293  23 H  s         

 Vector  183  Occ=0.000000D+00  E= 4.516501D-01
              MO Center=  7.4D-02, -3.9D-02, -4.4D-01, r^2= 1.9D+01
   Bfn.  Coefficient  Atom+Function         Bfn.  Coefficient  Atom+Function  
  ----- ------------  ---------------      ----- ------------  ---------------
   226     18.119031  15 C  s               539    -16.806880  32 C  s         
   387     11.295556  24 C  s               505     11.001815  30 C  s         
   147    -10.107307   9 C  px              106    -10.046720   7 N  s         
   140      9.774166   9 C  s               471     -8.044889  28 N  s         
    56     -7.786928   5 C  s               317      7.020086  19 C  px        

 Vector  184  Occ=0.000000D+00  E= 4.549663D-01
              MO Center=  6.1D-02, -1.1D+00,  3.6D-01, r^2= 1.9D+01
   Bfn.  Coefficient  Atom+Function         Bfn.  Coefficient  Atom+Function  
  ----- ------------  ---------------      ----- ------------  ---------------
    56     15.065989   5 C  s               539    -13.461846  32 C  s         
   147     11.141591   9 C  px              276     10.246881  17 N  s         
    13      8.814695   2 C  s               318      8.447812  19 C  py        
   284     -7.554516  17 N  py              226     -7.307129  15 C  s         
   394      6.579442  24 C  px               12      6.074221   2 C  s         

 Vector  185  Occ=0.000000D+00  E= 4.658594D-01
              MO Center= -4.0D-01, -8.6D-01,  3.2D-04, r^2= 2.2D+01
   Bfn.  Coefficient  Atom+Function         Bfn.  Coefficient  Atom+Function  
  ----- ------------  ---------------      ----- ------------  ---------------
   539      9.116229  32 C  s               300      7.890507  18 H  s         
   114     -6.705886   7 N  py              548     -6.176747  32 C  pz        
    46     -5.587841   4 H  s                 2      5.305468   1 H  s         
    12     -5.246249   2 C  s               344     -4.840454  21 C  s         
   234      4.651354  15 C  py              318     -4.378685  19 C  py        

 Vector  186  Occ=0.000000D+00  E= 4.684818D-01
              MO Center=  2.0D-01, -3.5D-01,  1.2D-01, r^2= 2.0D+01
   Bfn.  Coefficient  Atom+Function         Bfn.  Coefficient  Atom+Function  
  ----- ------------  ---------------      ----- ------------  ---------------
   174     19.112819  11 C  s               539    -16.786387  32 C  s         
   589     12.817315  34 N  s               437     -9.958738  26 C  s         
   318      8.289517  19 C  py              234      7.464885  15 C  py        
   344     -6.391816  21 C  s                12      6.196204   2 C  s         
   394     -6.054603  24 C  px              276      5.746427  17 N  s         

 Vector  187  Occ=0.000000D+00  E= 4.702006D-01
              MO Center= -4.6D-01,  3.6D-01,  3.5D-02, r^2= 2.2D+01
   Bfn.  Coefficient  Atom+Function         Bfn.  Coefficient  Atom+Function  
  ----- ------------  ---------------      ----- ------------  ---------------
   539     15.288321  32 C  s               276    -12.470846  17 N  s         
   106     -9.200268   7 N  s               234     -8.430358  15 C  py        
   367     -7.116682  22 H  s               394      6.781804  24 C  px        
   589     -6.675087  34 N  s               387      6.120376  24 C  s         
   319      5.984179  19 C  pz              317     -5.858389  19 C  px        

 Vector  188  Occ=0.000000D+00  E= 4.751813D-01
              MO Center= -2.4D-02, -1.2D+00, -2.3D-01, r^2= 2.0D+01
   Bfn.  Coefficient  Atom+Function         Bfn.  Coefficient  Atom+Function  
  ----- ------------  ---------------      ----- ------------  ---------------
   226    -14.791448  15 C  s               174     14.214783  11 C  s         
   395    -12.854324  24 C  py              140    -10.925071   9 C  s         
   437     -9.656794  26 C  s               505      8.568499  30 C  s         
   412     -8.225034  25 N  s                13      8.069022   2 C  s         
   387      7.895857  24 C  s               419     -7.761667  25 N  px        

 Vector  189  Occ=0.000000D+00  E= 4.793123D-01
              MO Center=  2.7D-01,  3.3D-01, -3.5D-01, r^2= 2.2D+01
   Bfn.  Coefficient  Atom+Function         Bfn.  Coefficient  Atom+Function  
  ----- ------------  ---------------      ----- ------------  ---------------
   394     12.954024  24 C  px              226    -11.375478  15 C  s         
   318    -11.200782  19 C  py              344     10.941100  21 C  s         
    12      9.339073   2 C  s               106      9.253537   7 N  s         
   376     -9.170917  23 H  s               367     -8.984795  22 H  s         
   539     -7.552873  32 C  s               387      7.181364  24 C  s         

 Vector  190  Occ=0.000000D+00  E= 4.828010D-01
              MO Center=  5.3D-01, -3.0D-01, -4.6D-01, r^2= 2.0D+01
   Bfn.  Coefficient  Atom+Function         Bfn.  Coefficient  Atom+Function  
  ----- ------------  ---------------      ----- ------------  ---------------
   226     13.251520  15 C  s               437    -10.586864  26 C  s         
   344    -10.087060  21 C  s               319     -9.151059  19 C  pz        
   284      8.993753  17 N  py              310      8.460218  19 C  s         
   351     -7.660916  21 C  px               12     -7.575519   2 C  s         
    45      7.055850   4 H  s               251     -6.872948  16 O  s         

 Vector  191  Occ=0.000000D+00  E= 4.845560D-01
              MO Center= -1.3D-01, -1.3D+00, -3.4D-01, r^2= 2.1D+01
   Bfn.  Coefficient  Atom+Function         Bfn.  Coefficient  Atom+Function  
  ----- ------------  ---------------      ----- ------------  ---------------
   174     21.321042  11 C  s               140     -9.820509   9 C  s         
   412     -9.652700  25 N  s               539      9.414544  32 C  s         
   319     -8.172978  19 C  pz              226     -7.807896  15 C  s         
   130     -7.591154   8 H  s               113     -7.509087   7 N  px        
   106     -6.977392   7 N  s               310      6.513529  19 C  s         

 Vector  192  Occ=0.000000D+00  E= 4.915857D-01
              MO Center=  2.8D-01,  7.3D-02, -1.8D-01, r^2= 2.0D+01
   Bfn.  Coefficient  Atom+Function         Bfn.  Coefficient  Atom+Function  
  ----- ------------  ---------------      ----- ------------  ---------------
   226     23.581524  15 C  s               174    -18.716073  11 C  s         
   140     14.298954   9 C  s               437    -14.212760  26 C  s         
   539      9.332577  32 C  s               276     -8.961678  17 N  s         
   148     -8.434178   9 C  py              234     -7.607749  15 C  py        
   419     -7.111851  25 N  px              149     -6.763836   9 C  pz        

 Vector  193  Occ=0.000000D+00  E= 4.959426D-01
              MO Center= -4.3D-01,  8.3D-03, -5.0D-01, r^2= 2.1D+01
   Bfn.  Coefficient  Atom+Function         Bfn.  Coefficient  Atom+Function  
  ----- ------------  ---------------      ----- ------------  ---------------
    56     13.748933   5 C  s               174    -11.070729  11 C  s         
   206      7.617761  13 H  s                12      7.366204   2 C  s         
   173     -6.618599  11 C  s               234      6.117660  15 C  py        
   197      5.600242  12 H  s               395      5.521320  24 C  py        
   276      5.486865  17 N  s               106      5.366692   7 N  s         

 Vector  194  Occ=0.000000D+00  E= 4.982196D-01
              MO Center=  5.0D-01, -1.6D-02,  5.6D-01, r^2= 2.1D+01
   Bfn.  Coefficient  Atom+Function         Bfn.  Coefficient  Atom+Function  
  ----- ------------  ---------------      ----- ------------  ---------------
   226     29.467412  15 C  s               147    -20.742491   9 C  px        
   140     16.961019   9 C  s               174    -16.890962  11 C  s         
   234    -16.291174  15 C  py               56    -15.970921   5 C  s         
   284     15.327490  17 N  py              115      8.437223   7 N  pz        
   163     -7.453064  10 H  s               114     -5.927343   7 N  py        

 Vector  195  Occ=0.000000D+00  E= 5.019723D-01
              MO Center=  5.0D-01, -1.1D+00, -7.3D-01, r^2= 2.0D+01
   Bfn.  Coefficient  Atom+Function         Bfn.  Coefficient  Atom+Function  
  ----- ------------  ---------------      ----- ------------  ---------------
   234     15.936045  15 C  py              387    -13.270519  24 C  s         
   174     13.154480  11 C  s               318     13.072668  19 C  py        
    56     12.596256   5 C  s               148     12.146781   9 C  py        
   147     11.406011   9 C  px               63     10.539850   5 C  px        
   394    -10.532537  24 C  px              344     -9.642453  21 C  s         


 center of mass
 --------------
 x =   0.03754953 y =   0.04398458 z =   0.01650375

 moments of inertia (a.u.)
 ------------------
        6116.449013719024           0.000000000000          -0.000000000001
           0.000000000000        3924.556768222964           0.000000000002
          -0.000000000001           0.000000000002        8173.785864204818

  Mulliken analysis of the total density
  --------------------------------------

    Atom       Charge   Shell Charges
 -----------   ------   -------------------------------------------------------
    1 H    1     0.89   0.77  0.17 -0.00  0.03 -0.07
    2 C    6     6.05   2.01  0.66  0.25 -0.01  2.07  0.96 -0.03  0.06  0.09
    3 H    1     1.05   0.77  0.30  0.00  0.03 -0.05
    4 H    1     0.86   0.77  0.13 -0.00  0.03 -0.07
    5 C    6     5.31   2.01  0.68  0.13 -0.05  1.90  0.29  0.10  0.24  0.01
    6 O    8     8.72   2.01  0.82  1.00  0.16  2.79  1.82  0.13  0.01 -0.02
    7 N    7     7.49   2.01  0.72  0.80 -0.14  2.46  1.43  0.14  0.05  0.02
    8 H    1     0.95   0.74  0.26 -0.04  0.06 -0.07
    9 C    6     6.45   2.01  0.66 -0.09  0.10  1.99  1.53 -0.00  0.14  0.11
   10 H    1     1.06   0.77  0.25  0.02  0.03 -0.01
   11 C    6     5.46   2.01  0.66  0.20  0.06  2.04  0.44 -0.02  0.07 -0.01
   12 H    1     1.03   0.77  0.30 -0.00  0.03 -0.07
   13 H    1     0.93   0.78  0.17  0.02  0.03 -0.07
   14 H    1     0.86   0.77  0.13 -0.00  0.03 -0.08
   15 C    6     5.15   2.01  0.68  0.24  0.09  1.89  0.17  0.02  0.24 -0.19
   16 O    8     8.78   2.01  0.82  1.03  0.15  2.79  1.85  0.13  0.01 -0.01
   17 N    7     7.53   2.01  0.72  0.78 -0.01  2.45  1.45  0.07  0.06  0.01
   18 H    1     0.87   0.76  0.16 -0.02  0.06 -0.09
   19 C    6     6.39   2.01  0.66  0.04 -0.01  2.00  1.39  0.07  0.14  0.09
   20 H    1     1.03   0.77  0.27 -0.01  0.03 -0.02
   21 C    6     5.45   2.01  0.66  0.12 -0.08  2.04  0.67 -0.07  0.09 -0.01
   22 H    1     1.03   0.78  0.27  0.01  0.03 -0.05
   23 H    1     0.86   0.78  0.12 -0.01  0.03 -0.06
   24 C    6     5.90   2.01  0.66  0.12 -0.08  1.99  0.63  0.20  0.15  0.23
   25 N    7     7.94   2.01  0.76  1.04 -0.01  2.27  1.67  0.06  0.05  0.08
   26 C    6     4.96   2.01  0.66 -0.00 -0.04  1.96  0.44  0.01  0.14 -0.23
   27 H    1     1.43   0.77  0.58  0.02  0.03  0.02
   28 N    7     7.70   2.01  0.73  0.99 -0.06  2.43  1.44 -0.02  0.06  0.12
   29 H    1     1.03   0.76  0.23 -0.00  0.05 -0.01
   30 C    6     4.99   2.01  0.66  0.04 -0.11  2.02  0.47 -0.00  0.11 -0.20
   31 H    1     1.32   0.76  0.53  0.01  0.03 -0.02
   32 C    6     4.54   2.01  0.68  0.09 -0.01  1.89 -0.19 -0.02  0.24 -0.15
   33 O    8     8.85   2.01  0.82  1.04  0.19  2.79  1.84  0.15  0.01 -0.00
   34 N    7     7.27   2.01  0.72  0.84 -0.14  2.46  1.24  0.10  0.04 -0.01
   35 H    1     0.93   0.75  0.19 -0.01  0.06 -0.06
   36 H    1     0.99   0.75  0.22 -0.01  0.05 -0.02

       Multipole analysis of the density wrt the origin
       ------------------------------------------------

     L   x y z        total         open         nuclear
     -   - - -        -----         ----         -------
     0   0 0 0      0.000000      0.000000    142.000000

     1   1 0 0     -2.671430      0.000000      0.000000
     1   0 1 0      1.393006      0.000000      0.000000
     1   0 0 1      0.205762      0.000000      0.000000

     2   2 0 0    -77.562883      0.000000   1633.863626
     2   1 1 0     -7.777588      0.000000      0.837369
     2   1 0 1      3.169642      0.000000    -13.070321
     2   0 2 0   -100.495252      0.000000   2789.867387
     2   0 1 1      6.621000      0.000000     18.336387
     2   0 0 2    -82.772972      0.000000    532.721193


 Task  times  cpu:     5786.0s     wall:     5916.2s


                                NWChem Input Module
                                -------------------


 Summary of allocated global arrays
-----------------------------------
  No active global arrays


MA_summarize_allocated_blocks: starting scan ...
MA_summarize_allocated_blocks: scan completed: 0 heap blocks, 0 stack blocks
MA usage statistics:

	allocation statistics:
					      heap	     stack
					      ----	     -----
	current number of blocks	         0	         0
	maximum number of blocks	        16	        14
	current total bytes		         0	         0
	maximum total bytes		    132840	  28811320
	maximum total K-bytes		       133	     28812
	maximum total M-bytes		         1	        29


                                     CITATION
                                     --------
                Please cite the following reference when publishing
                           results obtained with NWChem:

          E. Apra, E. J. Bylaska, W. A. de Jong, N. Govind, K. Kowalski,
       T. P. Straatsma, M. Valiev, H. J. J. van Dam, Y. Alexeev, J. Anchell,
       V. Anisimov, F. W. Aquino, R. Atta-Fynn, J. Autschbach, N. P. Bauman,
     J. C. Becca, D. E. Bernholdt, K. Bhaskaran-Nair, S. Bogatko, P. Borowski,
         J. Boschen, J. Brabec, A. Bruner, E. Cauet, Y. Chen, G. N. Chuev,
      C. J. Cramer, J. Daily, M. J. O. Deegan, T. H. Dunning Jr., M. Dupuis,
   K. G. Dyall, G. I. Fann, S. A. Fischer, A. Fonari, H. Fruchtl, L. Gagliardi,
      J. Garza, N. Gawande, S. Ghosh, K. Glaesemann, A. W. Gotz, J. Hammond,
       V. Helms, E. D. Hermes, K. Hirao, S. Hirata, M. Jacquelin, L. Jensen,
   B. G. Johnson, H. Jonsson, R. A. Kendall, M. Klemm, R. Kobayashi, V. Konkov,
      S. Krishnamoorthy, M. Krishnan, Z. Lin, R. D. Lins, R. J. Littlefield,
      A. J. Logsdail, K. Lopata, W. Ma, A. V. Marenich, J. Martin del Campo,
   D. Mejia-Rodriguez, J. E. Moore, J. M. Mullin, T. Nakajima, D. R. Nascimento,
    J. A. Nichols, P. J. Nichols, J. Nieplocha, A. Otero-de-la-Roza, B. Palmer,
    A. Panyala, T. Pirojsirikul, B. Peng, R. Peverati, J. Pittner, L. Pollack,
   R. M. Richard, P. Sadayappan, G. C. Schatz, W. A. Shelton, D. W. Silverstein,
   D. M. A. Smith, T. A. Soares, D. Song, M. Swart, H. L. Taylor, G. S. Thomas,
            V. Tipparaju, D. G. Truhlar, K. Tsemekhman, T. Van Voorhis,
      A. Vazquez-Mayagoitia, P. Verma, O. Villa, A. Vishnu, K. D. Vogiatzis,
        D. Wang, J. H. Weare, M. J. Williamson, T. L. Windus, K. Wolinski,
        A. T. Wong, Q. Wu, C. Yang, Q. Yu, M. Zacharias, Z. Zhang, Y. Zhao,
                                and R. J. Harrison
                        "NWChem: Past, present, and future
                         J. Chem. Phys. 152, 184102 (2020)
                               doi:10.1063/5.0004997

                                      AUTHORS
                                      -------
  E. Apra, E. J. Bylaska, N. Govind, K. Kowalski, M. Valiev, D. Mejia-Rodriguez,
       A. Kunitsa, N. P. Bauman, A. Panyala, W. A. de Jong, T. P. Straatsma,
   H. J. J. van Dam, D. Wang, T. L. Windus, J. Hammond, J. Autschbach, A. Woods,
    K. Bhaskaran-Nair, J. Brabec, K. Lopata, S. A. Fischer, S. Krishnamoorthy,
     M. Jacquelin, W. Ma, M. Klemm, O. Villa, Y. Chen, V. Anisimov, F. Aquino,
     S. Hirata, M. T. Hackler, E. Hermes, L. Jensen, J. E. Moore, J. C. Becca,
      V. Konjkov, T. Risthaus, M. Malagoli, A. Marenich, A. Otero-de-la-Roza,
        J. Mullin, P. Nichols, R. Peverati, J. Pittner, Y. Zhao, P.-D. Fan,
        A. Fonari, M. J. Williamson, R. J. Harrison, J. R. Rehr, M. Dupuis,
     D. Silverstein, D. M. A. Smith, J. Nieplocha, V. Tipparaju, M. Krishnan,
     B. E. Van Kuiken, A. Vazquez-Mayagoitia, M. Swart, Q. Wu, T. Van Voorhis,
     A. A. Auer, M. Nooijen, L. D. Crosby, E. Brown, G. Cisneros, G. I. Fann,
   H. Fruchtl, J. Garza, K. Hirao, R. A. Kendall, J. A. Nichols, K. Tsemekhman,
    K. Wolinski, J. Anchell, D. E. Bernholdt, P. Borowski, T. Clark, D. Clerc,
   H. Dachsel, M. J. O. Deegan, K. Dyall, D. Elwood, E. Glendening, M. Gutowski,
   A. C. Hess, J. Jaffe, B. G. Johnson, J. Ju, R. Kobayashi, R. Kutteh, Z. Lin,
   R. Littlefield, X. Long, B. Meng, T. Nakajima, S. Niu, L. Pollack, M. Rosing,
   K. Glaesemann, G. Sandrone, M. Stave, H. Taylor, G. Thomas, J. H. van Lenthe,
                               A. T. Wong, Z. Zhang.

 Total times  cpu:     5786.0s     wall:     5916.7s
