export TMOUT=5400
export TMPDIR=/tmp
export PTMPDIR=/tmp/ptmp
 argument  1 = inputs/ASN_MET_1.nw



============================== echo of input deck ==============================
start ASN_MET_1
geometry
H         -0.38900       24.04300       -6.34000
C          0.48100       24.08200       -5.68700
H          1.05500       24.98400       -5.89600
H          1.10800       23.20700       -5.85000
C          0.02900       24.11300       -4.24800
O          0.34800       25.03800       -3.51600
N         -0.69800       23.08100       -3.82400
H         -0.89900       22.33400       -4.47500
C         -1.21000       22.93800       -2.45200
H         -1.63700       23.89300       -2.14000
C         -2.32500       21.87600       -2.47800
H         -2.82400       21.84900       -1.50900
H         -3.06800       22.13400       -3.23200
C         -1.76600       20.50000       -2.79400
O         -1.53000       20.15800       -3.93900
N         -1.46700       19.70800       -1.79300
H         -1.01600       18.83700       -2.01800
H         -1.54000       20.05100       -0.84900
C         -0.13400       22.56200       -1.40500
O         -0.47400       22.27600       -0.25700
N          1.13100       22.44200       -1.81300
H          1.35200       22.74600       -2.75100
C          2.23700       21.87300       -1.03700
H          2.22100       22.30000       -0.03400
C          2.06700       20.34300       -0.92800
H          2.90000       19.92800       -0.36000
H          1.15400       20.13300       -0.37000
C          1.98500       19.62400       -2.28300
H          1.26200       20.13600       -2.91600
H          2.95700       19.66900       -2.77600
S          1.46600       17.89200       -2.15900
C          1.18800       17.54700       -3.91600
H          2.11300       17.70100       -4.47100
H          0.86300       16.51400       -4.03800
H          0.41700       18.21400       -4.30500
C          3.57900       22.22200       -1.69600
O          3.66000       22.41200       -2.90500
N          4.65600       22.28500       -0.92500
H          4.58600       22.12500        0.06500
H          5.53600       22.51100       -1.36100
end

basis
 * library aug-cc-pvdz
end

echo

scf
 direct
end

task scf energy
================================================================================


                                         
                                         


             Northwest Computational Chemistry Package (NWChem) 7.2.0
             --------------------------------------------------------


                    Environmental Molecular Sciences Laboratory
                       Pacific Northwest National Laboratory
                                Richland, WA 99352

                              Copyright (c) 1994-2022
                       Pacific Northwest National Laboratory
                            Battelle Memorial Institute

             NWChem is an open-source computational chemistry package
                        distributed under the terms of the
                      Educational Community License (ECL) 2.0
             A copy of the license is included with this distribution
                              in the LICENSE.TXT file

                                  ACKNOWLEDGMENT
                                  --------------

            This software and its documentation were developed at the
            EMSL at Pacific Northwest National Laboratory, a multiprogram
            national laboratory, operated for the U.S. Department of Energy
            by Battelle under Contract Number DE-AC05-76RL01830. Support
            for this work was provided by the Department of Energy Office
            of Biological and Environmental Research, Office of Basic
            Energy Sciences, and the Office of Advanced Scientific Computing.


           Job information
           ---------------

    hostname        = nova21-swift-4
    program         = /opt/rit/el9/20230413/app/linux-rhel9-x86_64_v3/gcc-11.2.1/nwchem-7.2.0-oxtctbuhfuzyfaoziquq6bki22grib3g/bin/nwchem
    date            = Thu Jul 10 07:29:43 2025

    compiled        = Wed_May_17_23:46:39_2023
    source          = /tmp/root/spack-stage/spack-stage-nwchem-7.2.0-oxtctbuhfuzyfaoziquq6bki22grib3g/spack-src
    nwchem branch   = 7.2.0
    nwchem revision = d0d141fd
    ga revision     = 5.8.0
    use scalapack   = T
    input           = inputs/ASN_MET_1.nw
    prefix          = ASN_MET_1.
    data base       = ./ASN_MET_1.db
    status          = startup
    nproc           =        8
    time left       =     -1s



           Memory information
           ------------------

    heap     =   26214400 doubles =    200.0 Mbytes
    stack    =   26214397 doubles =    200.0 Mbytes
    global   =   52428800 doubles =    400.0 Mbytes (distinct from heap & stack)
    total    =  104857597 doubles =    800.0 Mbytes
    verify   = yes
    hardfail = no 


           Directory information
           ---------------------

  0 permanent = .
  0 scratch   = .




                                NWChem Input Module
                                -------------------



 Scaling coordinates for geometry "geometry" by  1.889725989
 (inverse scale =  0.529177249)

 C1  symmetry detected

          ------
          auto-z
          ------
  no constraints, skipping    0.0000000000000000     
  no constraints, skipping    0.0000000000000000     


                             Geometry "geometry" -> ""
                             -------------------------

 Output coordinates in angstroms (scale by  1.889725989 to convert to a.u.)

  No.       Tag          Charge          X              Y              Z
 ---- ---------------- ---------- -------------- -------------- --------------
    1 H                    1.0000    -0.77021105     3.74182761    -2.87458902
    2 C                    6.0000     0.16220791     3.30738213    -2.51866486
    3 H                    1.0000     0.99055906     3.97348314    -2.75721214
    4 H                    1.0000     0.32640612     2.34047145    -2.99136529
    5 C                    6.0000     0.09478511     3.12810266    -1.02223610
    6 O                    8.0000     0.91611644     3.66525462    -0.29416150
    7 N                    7.0000    -0.87404474     2.34363712    -0.55392899
    8 H                    1.0000    -1.50048405     1.90526254    -1.21545187
    9 C                    6.0000    -1.08020999     2.04537405     0.87208364
   10 H                    1.0000    -1.00147084     2.97676702     1.43600320
   11 C                    6.0000    -2.50537059     1.48357926     1.03035206
   12 H                    1.0000    -2.74271168     1.38766505     2.09014481
   13 H                    1.0000    -3.22716198     2.16717610     0.58443553
   14 C                    6.0000    -2.63891249     0.12735344     0.36062742
   15 O                    8.0000    -2.82368266     0.02697177    -0.83915110
   16 N                    7.0000    -2.47239392    -0.94547117     1.09546409
   17 H                    1.0000    -2.47637782    -1.83155773     0.61849269
   18 H                    1.0000    -2.18753047    -0.85012669     2.05664890
   19 C                    6.0000    -0.04589596     1.06466498     1.47521315
   20 O                    8.0000    -0.20757253     0.63417125     2.61706946
   21 N                    7.0000     0.93568213     0.61804093     0.68900681
   22 H                    1.0000     1.04598178     1.05305484    -0.21636487
   23 C                    6.0000     1.85785820    -0.47846555     0.99955123
   24 H                    1.0000     2.24048707    -0.34223795     2.01129784
   25 C                    6.0000     1.11036246    -1.82677065     0.92880903
   26 H                    1.0000     1.80674737    -2.63622243     1.14920384
   27 H                    1.0000     0.34022485    -1.83883086     1.70067405
   28 C                    6.0000     0.44391063    -2.10282295    -0.42741628
   29 H                    1.0000    -0.13008374    -1.22781260    -0.72816425
   30 H                    1.0000     1.21384104    -2.27669462    -1.18029993
   31 S                   16.0000    -0.69157109    -3.51521525    -0.40766144
   32 C                    6.0000    -1.46948122    -3.28344870    -2.02769171
   33 H                    1.0000    -0.71077268    -3.32685287    -2.80861644
   34 H                    1.0000    -2.20406524    -4.07070476    -2.19565664
   35 H                    1.0000    -1.96873317    -2.31377700    -2.06138576
   36 C                    6.0000     3.04215161    -0.46526799     0.02265771
   37 O                    8.0000     2.92170910    -0.01540703    -1.11200555
   38 N                    7.0000     4.19407206    -0.98032144     0.43025826
   39 H                    1.0000     4.28764942    -1.35139496     1.35985372
   40 H                    1.0000     4.96863795    -0.97325847    -0.21438877

      Atomic Mass 
      ----------- 

      H                  1.007825
      C                 12.000000
      O                 15.994910
      N                 14.003070
      S                 31.972070


 Effective nuclear repulsion energy (a.u.)    1889.8386626775

            Nuclear Dipole moment (a.u.) 
            ----------------------------
        X                 Y               Z
 ---------------- ---------------- ----------------
     0.0000000000    -0.0000000000     0.0000000000



                                Z-matrix (autoz)
                                -------- 

 Units are Angstrom for bonds and degrees for angles

      Type          Name      I     J     K     L     M      Value
      ----------- --------  ----- ----- ----- ----- ----- ----------
    1 Stretch                  1     2                       1.08850
    2 Stretch                  2     3                       1.08939
    3 Stretch                  2     4                       1.08873
    4 Stretch                  2     5                       1.50864
    5 Stretch                  5     6                       1.22197
    6 Stretch                  5     7                       1.33166
    7 Stretch                  7     8                       1.01104
    8 Stretch                  7     9                       1.47139
    9 Stretch                  9    10                       1.09165
   10 Stretch                  9    11                       1.54005
   11 Stretch                  9    19                       1.54770
   12 Stretch                 11    12                       1.09027
   13 Stretch                 11    13                       1.08955
   14 Stretch                 11    14                       1.51846
   15 Stretch                 14    15                       1.21807
   16 Stretch                 14    16                       1.31098
   17 Stretch                 16    17                       1.00631
   18 Stretch                 16    18                       1.00703
   19 Stretch                 19    20                       1.23098
   20 Stretch                 19    21                       1.33457
   21 Stretch                 21    22                       1.01050
   22 Stretch                 21    23                       1.46601
   23 Stretch                 23    24                       1.09023
   24 Stretch                 23    25                       1.54327
   25 Stretch                 23    36                       1.53527
   26 Stretch                 25    26                       1.09029
   27 Stretch                 25    27                       1.09043
   28 Stretch                 25    28                       1.53613
   29 Stretch                 28    29                       1.08884
   30 Stretch                 28    30                       1.09081
   31 Stretch                 28    31                       1.81234
   32 Stretch                 31    32                       1.81200
   33 Stretch                 32    33                       1.08966
   34 Stretch                 32    34                       1.08977
   35 Stretch                 32    35                       1.09117
   36 Stretch                 36    37                       1.22652
   37 Stretch                 36    38                       1.32602
   38 Stretch                 38    39                       1.00529
   39 Stretch                 38    40                       1.00776
   40 Bend                     1     2     3               109.61560
   41 Bend                     1     2     4               109.97973
   42 Bend                     1     2     5               109.48057
   43 Bend                     2     5     6               120.57879
   44 Bend                     2     5     7               116.82991
   45 Bend                     3     2     4               109.46803
   46 Bend                     3     2     5               108.89568
   47 Bend                     4     2     5               109.38203
   48 Bend                     5     7     8               118.43097
   49 Bend                     5     7     9               124.20659
   50 Bend                     6     5     7               122.57612
   51 Bend                     7     9    10               108.51717
   52 Bend                     7     9    11               107.65048
   53 Bend                     7     9    19               114.36119
   54 Bend                     8     7     9               117.34921
   55 Bend                     9    11    12               109.47757
   56 Bend                     9    11    13               110.00564
   57 Bend                     9    11    14               111.21539
   58 Bend                     9    19    20               119.69019
   59 Bend                     9    19    21               118.29521
   60 Bend                    10     9    11               108.95944
   61 Bend                    10     9    19               106.92534
   62 Bend                    11     9    19               110.31847
   63 Bend                    11    14    15               121.42491
   64 Bend                    11    14    16               118.19759
   65 Bend                    12    11    13               107.98736
   66 Bend                    12    11    14               109.32994
   67 Bend                    13    11    14               108.76017
   68 Bend                    14    16    17               117.02566
   69 Bend                    14    16    18               119.56805
   70 Bend                    15    14    16               120.26084
   71 Bend                    17    16    18               122.47197
   72 Bend                    19    21    22               117.64779
   73 Bend                    19    21    23               126.02765
   74 Bend                    20    19    21               121.73708
   75 Bend                    21    23    24               108.89844
   76 Bend                    21    23    25               109.82043
   77 Bend                    21    23    36               110.12191
   78 Bend                    22    21    23               116.30327
   79 Bend                    23    25    26               109.26838
   80 Bend                    23    25    27               108.62082
   81 Bend                    23    25    28               114.05495
   82 Bend                    23    36    37               121.06785
   83 Bend                    23    36    38               118.11102
   84 Bend                    24    23    25               108.76571
   85 Bend                    24    23    36               108.58394
   86 Bend                    25    23    36               110.60805
   87 Bend                    25    28    29               109.15689
   88 Bend                    25    28    30               109.37747
   89 Bend                    25    28    31               113.71858
   90 Bend                    26    25    27               107.44595
   91 Bend                    26    25    28               108.79345
   92 Bend                    27    25    28               108.45437
   93 Bend                    28    31    32                99.18075
   94 Bend                    29    28    30               108.03171
   95 Bend                    29    28    31               107.39791
   96 Bend                    30    28    31               108.99761
   97 Bend                    31    32    33               109.67748
   98 Bend                    31    32    34               109.55947
   99 Bend                    31    32    35               109.73663
  100 Bend                    33    32    34               109.27532
  101 Bend                    33    32    35               109.38059
  102 Bend                    34    32    35               109.19566
  103 Bend                    36    38    39               120.56260
  104 Bend                    36    38    40               117.92637
  105 Bend                    37    36    38               120.80618
  106 Bend                    39    38    40               121.50435
  107 Torsion                  1     2     5     6        -121.61613
  108 Torsion                  1     2     5     7          59.76490
  109 Torsion                  2     5     7     8           0.67721
  110 Torsion                  2     5     7     9         179.31634
  111 Torsion                  3     2     5     6          -1.78422
  112 Torsion                  3     2     5     7         179.59680
  113 Torsion                  4     2     5     6         117.80955
  114 Torsion                  4     2     5     7         -60.80943
  115 Torsion                  5     7     9    10          45.26314
  116 Torsion                  5     7     9    11         163.04684
  117 Torsion                  5     7     9    19         -73.99104
  118 Torsion                  6     5     7     8        -177.91184
  119 Torsion                  6     5     7     9           0.72729
  120 Torsion                  7     9    11    12        -171.84401
  121 Torsion                  7     9    11    13         -53.33128
  122 Torsion                  7     9    11    14          67.23087
  123 Torsion                  7     9    19    20        -172.16602
  124 Torsion                  7     9    19    21           1.88948
  125 Torsion                  8     7     9    10        -136.08419
  126 Torsion                  8     7     9    11         -18.30049
  127 Torsion                  8     7     9    19         104.66163
  128 Torsion                  9    11    14    15         -81.36298
  129 Torsion                  9    11    14    16          94.71908
  130 Torsion                  9    19    21    22           9.64403
  131 Torsion                  9    19    21    23        -168.60874
  132 Torsion                 10     9    11    12         -54.34680
  133 Torsion                 10     9    11    13          64.16593
  134 Torsion                 10     9    11    14        -175.27192
  135 Torsion                 10     9    19    20          67.68798
  136 Torsion                 10     9    19    21        -118.25652
  137 Torsion                 11     9    19    20         -50.65968
  138 Torsion                 11     9    19    21         123.39582
  139 Torsion                 11    14    16    17        -174.25778
  140 Torsion                 11    14    16    18          -5.04265
  141 Torsion                 12    11     9    19          62.74733
  142 Torsion                 12    11    14    15         157.62525
  143 Torsion                 12    11    14    16         -26.29269
  144 Torsion                 13    11     9    19        -178.73994
  145 Torsion                 13    11    14    15          39.93053
  146 Torsion                 13    11    14    16        -143.98741
  147 Torsion                 14    11     9    19         -58.17779
  148 Torsion                 15    14    16    17           1.87160
  149 Torsion                 15    14    16    18         171.08673
  150 Torsion                 19    21    23    24         -47.09558
  151 Torsion                 19    21    23    25          71.90578
  152 Torsion                 19    21    23    36        -166.05423
  153 Torsion                 20    19    21    22        -176.42847
  154 Torsion                 20    19    21    23           5.31875
  155 Torsion                 21    23    25    26         179.31951
  156 Torsion                 21    23    25    27         -63.74885
  157 Torsion                 21    23    25    28          57.32932
  158 Torsion                 21    23    36    37         -28.08012
  159 Torsion                 21    23    36    38         153.31505
  160 Torsion                 22    21    23    24         134.63089
  161 Torsion                 22    21    23    25        -106.36774
  162 Torsion                 22    21    23    36          15.67224
  163 Torsion                 23    25    28    29         -48.82796
  164 Torsion                 23    25    28    30          69.17711
  165 Torsion                 23    25    28    31        -168.72004
  166 Torsion                 23    36    38    39          -1.14453
  167 Torsion                 23    36    38    40         179.78129
  168 Torsion                 24    23    25    26         -61.59760
  169 Torsion                 24    23    25    27          55.33404
  170 Torsion                 24    23    25    28         176.41220
  171 Torsion                 24    23    36    37        -147.23084
  172 Torsion                 24    23    36    38          34.16433
  173 Torsion                 25    23    36    37          93.49224
  174 Torsion                 25    23    36    38         -85.11259
  175 Torsion                 25    28    31    32         169.41922
  176 Torsion                 26    25    23    36          57.56950
  177 Torsion                 26    25    28    29        -171.07910
  178 Torsion                 26    25    28    30         -53.07403
  179 Torsion                 26    25    28    31          69.02883
  180 Torsion                 27    25    23    36         174.50114
  181 Torsion                 27    25    28    29          72.34264
  182 Torsion                 27    25    28    30        -169.65229
  183 Torsion                 27    25    28    31         -47.54944
  184 Torsion                 28    25    23    36         -64.42070
  185 Torsion                 28    31    32    33          59.86027
  186 Torsion                 28    31    32    34         179.80098
  187 Torsion                 28    31    32    35         -60.31968
  188 Torsion                 29    28    31    32          48.53637
  189 Torsion                 30    28    31    32         -68.26808
  190 Torsion                 37    36    38    39        -179.75317
  191 Torsion                 37    36    38    40           1.17265


            XYZ format geometry
            -------------------
    40
 geometry
 H                    -0.77021105     3.74182761    -2.87458902
 C                     0.16220791     3.30738213    -2.51866486
 H                     0.99055906     3.97348314    -2.75721214
 H                     0.32640612     2.34047145    -2.99136529
 C                     0.09478511     3.12810266    -1.02223610
 O                     0.91611644     3.66525462    -0.29416150
 N                    -0.87404474     2.34363712    -0.55392899
 H                    -1.50048405     1.90526254    -1.21545187
 C                    -1.08020999     2.04537405     0.87208364
 H                    -1.00147084     2.97676702     1.43600320
 C                    -2.50537059     1.48357926     1.03035206
 H                    -2.74271168     1.38766505     2.09014481
 H                    -3.22716198     2.16717610     0.58443553
 C                    -2.63891249     0.12735344     0.36062742
 O                    -2.82368266     0.02697177    -0.83915110
 N                    -2.47239392    -0.94547117     1.09546409
 H                    -2.47637782    -1.83155773     0.61849269
 H                    -2.18753047    -0.85012669     2.05664890
 C                    -0.04589596     1.06466498     1.47521315
 O                    -0.20757253     0.63417125     2.61706946
 N                     0.93568213     0.61804093     0.68900681
 H                     1.04598178     1.05305484    -0.21636487
 C                     1.85785820    -0.47846555     0.99955123
 H                     2.24048707    -0.34223795     2.01129784
 C                     1.11036246    -1.82677065     0.92880903
 H                     1.80674737    -2.63622243     1.14920384
 H                     0.34022485    -1.83883086     1.70067405
 C                     0.44391063    -2.10282295    -0.42741628
 H                    -0.13008374    -1.22781260    -0.72816425
 H                     1.21384104    -2.27669462    -1.18029993
 S                    -0.69157109    -3.51521525    -0.40766144
 C                    -1.46948122    -3.28344870    -2.02769171
 H                    -0.71077268    -3.32685287    -2.80861644
 H                    -2.20406524    -4.07070476    -2.19565664
 H                    -1.96873317    -2.31377700    -2.06138576
 C                     3.04215161    -0.46526799     0.02265771
 O                     2.92170910    -0.01540703    -1.11200555
 N                     4.19407206    -0.98032144     0.43025826
 H                     4.28764942    -1.35139496     1.35985372
 H                     4.96863795    -0.97325847    -0.21438877

 ==============================================================================
                                internuclear distances
 ------------------------------------------------------------------------------
       center one      |      center two      | atomic units |  angstroms
 ------------------------------------------------------------------------------
    2 C                |   1 H                |     2.05696  |     1.08850
    3 H                |   2 C                |     2.05864  |     1.08939
    4 H                |   2 C                |     2.05739  |     1.08873
    5 C                |   2 C                |     2.85091  |     1.50864
    6 O                |   5 C                |     2.30919  |     1.22197
    7 N                |   5 C                |     2.51648  |     1.33166
    8 H                |   7 N                |     1.91060  |     1.01104
    9 C                |   7 N                |     2.78052  |     1.47139
   10 H                |   9 C                |     2.06292  |     1.09165
   11 C                |   9 C                |     2.91027  |     1.54005
   12 H                |  11 C                |     2.06031  |     1.09027
   13 H                |  11 C                |     2.05896  |     1.08955
   14 C                |  11 C                |     2.86947  |     1.51846
   15 O                |  14 C                |     2.30181  |     1.21807
   16 N                |  14 C                |     2.47739  |     1.31098
   17 H                |  16 N                |     1.90166  |     1.00631
   18 H                |  16 N                |     1.90302  |     1.00703
   19 C                |   9 C                |     2.92472  |     1.54770
   20 O                |  19 C                |     2.32621  |     1.23098
   21 N                |  19 C                |     2.52198  |     1.33457
   22 H                |  21 N                |     1.90956  |     1.01050
   23 C                |  21 N                |     2.77035  |     1.46601
   24 H                |  23 C                |     2.06023  |     1.09023
   25 C                |  23 C                |     2.91636  |     1.54327
   26 H                |  25 C                |     2.06035  |     1.09029
   27 H                |  25 C                |     2.06061  |     1.09043
   28 C                |  25 C                |     2.90287  |     1.53613
   29 H                |  28 C                |     2.05760  |     1.08884
   30 H                |  28 C                |     2.06132  |     1.09081
   31 S                |  28 C                |     3.42482  |     1.81234
   32 C                |  31 S                |     3.42419  |     1.81200
   33 H                |  32 C                |     2.05916  |     1.08966
   34 H                |  32 C                |     2.05937  |     1.08977
   35 H                |  32 C                |     2.06201  |     1.09117
   36 C                |  23 C                |     2.90123  |     1.53527
   37 O                |  36 C                |     2.31778  |     1.22652
   38 N                |  36 C                |     2.50582  |     1.32602
   39 H                |  38 N                |     1.89972  |     1.00529
   40 H                |  38 N                |     1.90438  |     1.00776
 ------------------------------------------------------------------------------
                         number of included internuclear distances:         39
 ==============================================================================



 ==============================================================================
                                 internuclear angles
 ------------------------------------------------------------------------------
        center 1       |       center 2       |       center 3       |  degrees
 ------------------------------------------------------------------------------
    1 H                |   2 C                |   3 H                |   109.62
    1 H                |   2 C                |   4 H                |   109.98
    1 H                |   2 C                |   5 C                |   109.48
    3 H                |   2 C                |   4 H                |   109.47
    3 H                |   2 C                |   5 C                |   108.90
    4 H                |   2 C                |   5 C                |   109.38
    2 C                |   5 C                |   6 O                |   120.58
    2 C                |   5 C                |   7 N                |   116.83
    6 O                |   5 C                |   7 N                |   122.58
    5 C                |   7 N                |   8 H                |   118.43
    5 C                |   7 N                |   9 C                |   124.21
    8 H                |   7 N                |   9 C                |   117.35
    7 N                |   9 C                |  10 H                |   108.52
    7 N                |   9 C                |  11 C                |   107.65
    7 N                |   9 C                |  19 C                |   114.36
   10 H                |   9 C                |  11 C                |   108.96
   10 H                |   9 C                |  19 C                |   106.93
   11 C                |   9 C                |  19 C                |   110.32
    9 C                |  11 C                |  12 H                |   109.48
    9 C                |  11 C                |  13 H                |   110.01
    9 C                |  11 C                |  14 C                |   111.22
   12 H                |  11 C                |  13 H                |   107.99
   12 H                |  11 C                |  14 C                |   109.33
   13 H                |  11 C                |  14 C                |   108.76
   11 C                |  14 C                |  15 O                |   121.42
   11 C                |  14 C                |  16 N                |   118.20
   15 O                |  14 C                |  16 N                |   120.26
   14 C                |  16 N                |  17 H                |   117.03
   14 C                |  16 N                |  18 H                |   119.57
   17 H                |  16 N                |  18 H                |   122.47
    9 C                |  19 C                |  20 O                |   119.69
    9 C                |  19 C                |  21 N                |   118.30
   20 O                |  19 C                |  21 N                |   121.74
   19 C                |  21 N                |  22 H                |   117.65
   19 C                |  21 N                |  23 C                |   126.03
   22 H                |  21 N                |  23 C                |   116.30
   21 N                |  23 C                |  24 H                |   108.90
   21 N                |  23 C                |  25 C                |   109.82
   21 N                |  23 C                |  36 C                |   110.12
   24 H                |  23 C                |  25 C                |   108.77
   24 H                |  23 C                |  36 C                |   108.58
   25 C                |  23 C                |  36 C                |   110.61
   23 C                |  25 C                |  26 H                |   109.27
   23 C                |  25 C                |  27 H                |   108.62
   23 C                |  25 C                |  28 C                |   114.05
   26 H                |  25 C                |  27 H                |   107.45
   26 H                |  25 C                |  28 C                |   108.79
   27 H                |  25 C                |  28 C                |   108.45
   25 C                |  28 C                |  29 H                |   109.16
   25 C                |  28 C                |  30 H                |   109.38
   25 C                |  28 C                |  31 S                |   113.72
   29 H                |  28 C                |  30 H                |   108.03
   29 H                |  28 C                |  31 S                |   107.40
   30 H                |  28 C                |  31 S                |   109.00
   28 C                |  31 S                |  32 C                |    99.18
   31 S                |  32 C                |  33 H                |   109.68
   31 S                |  32 C                |  34 H                |   109.56
   31 S                |  32 C                |  35 H                |   109.74
   33 H                |  32 C                |  34 H                |   109.28
   33 H                |  32 C                |  35 H                |   109.38
   34 H                |  32 C                |  35 H                |   109.20
   23 C                |  36 C                |  37 O                |   121.07
   23 C                |  36 C                |  38 N                |   118.11
   37 O                |  36 C                |  38 N                |   120.81
   36 C                |  38 N                |  39 H                |   120.56
   36 C                |  38 N                |  40 H                |   117.93
   39 H                |  38 N                |  40 H                |   121.50
 ------------------------------------------------------------------------------
                            number of included internuclear angles:         67
 ==============================================================================



  library name resolved from: environment
  library file name is: </opt/rit/el9/20230413/app/linux-rhel9-x86_64_v3/gcc-11.2.1/nwchem-7.2.0-oxtctbuhfuzyfaoziquq6bki22grib3g/share/nwchem/libraries/>
  


 Summary of "ao basis" -> "" (cartesian)
 ------------------------------------------------------------------------------
       Tag                 Description            Shells   Functions and Types
 ---------------- ------------------------------  ------  ---------------------
 *                        aug-cc-pvdz                 on all atoms 


                      Basis "ao basis" -> "ao basis" (cartesian)
                      -----
  H (Hydrogen)
  ------------
            Exponent  Coefficients 
       -------------- ---------------------------------------------------------
  1 S  1.30100000E+01  0.019685
  1 S  1.96200000E+00  0.137977
  1 S  4.44600000E-01  0.478148

  2 S  1.22000000E-01  1.000000

  3 S  2.97400000E-02  1.000000

  4 P  7.27000000E-01  1.000000

  5 P  1.41000000E-01  1.000000

  C (Carbon)
  ----------
            Exponent  Coefficients 
       -------------- ---------------------------------------------------------
  1 S  6.66500000E+03  0.000692
  1 S  1.00000000E+03  0.005329
  1 S  2.28000000E+02  0.027077
  1 S  6.47100000E+01  0.101718
  1 S  2.10600000E+01  0.274740
  1 S  7.49500000E+00  0.448564
  1 S  2.79700000E+00  0.285074
  1 S  5.21500000E-01  0.015204

  2 S  6.66500000E+03 -0.000146
  2 S  1.00000000E+03 -0.001154
  2 S  2.28000000E+02 -0.005725
  2 S  6.47100000E+01 -0.023312
  2 S  2.10600000E+01 -0.063955
  2 S  7.49500000E+00 -0.149981
  2 S  2.79700000E+00 -0.127262
  2 S  5.21500000E-01  0.544529

  3 S  1.59600000E-01  1.000000

  4 S  4.69000000E-02  1.000000

  5 P  9.43900000E+00  0.038109
  5 P  2.00200000E+00  0.209480
  5 P  5.45600000E-01  0.508557

  6 P  1.51700000E-01  1.000000

  7 P  4.04100000E-02  1.000000

  8 D  5.50000000E-01  1.000000

  9 D  1.51000000E-01  1.000000

  O (Oxygen)
  ----------
            Exponent  Coefficients 
       -------------- ---------------------------------------------------------
  1 S  1.17200000E+04  0.000710
  1 S  1.75900000E+03  0.005470
  1 S  4.00800000E+02  0.027837
  1 S  1.13700000E+02  0.104800
  1 S  3.70300000E+01  0.283062
  1 S  1.32700000E+01  0.448719
  1 S  5.02500000E+00  0.270952
  1 S  1.01300000E+00  0.015458

  2 S  1.17200000E+04 -0.000160
  2 S  1.75900000E+03 -0.001263
  2 S  4.00800000E+02 -0.006267
  2 S  1.13700000E+02 -0.025716
  2 S  3.70300000E+01 -0.070924
  2 S  1.32700000E+01 -0.165411
  2 S  5.02500000E+00 -0.116955
  2 S  1.01300000E+00  0.557368

  3 S  3.02300000E-01  1.000000

  4 S  7.89600000E-02  1.000000

  5 P  1.77000000E+01  0.043018
  5 P  3.85400000E+00  0.228913
  5 P  1.04600000E+00  0.508728

  6 P  2.75300000E-01  1.000000

  7 P  6.85600000E-02  1.000000

  8 D  1.18500000E+00  1.000000

  9 D  3.32000000E-01  1.000000

  N (Nitrogen)
  ------------
            Exponent  Coefficients 
       -------------- ---------------------------------------------------------
  1 S  9.04600000E+03  0.000700
  1 S  1.35700000E+03  0.005389
  1 S  3.09300000E+02  0.027406
  1 S  8.77300000E+01  0.103207
  1 S  2.85600000E+01  0.278723
  1 S  1.02100000E+01  0.448540
  1 S  3.83800000E+00  0.278238
  1 S  7.46600000E-01  0.015440

  2 S  9.04600000E+03 -0.000153
  2 S  1.35700000E+03 -0.001208
  2 S  3.09300000E+02 -0.005992
  2 S  8.77300000E+01 -0.024544
  2 S  2.85600000E+01 -0.067459
  2 S  1.02100000E+01 -0.158078
  2 S  3.83800000E+00 -0.121831
  2 S  7.46600000E-01  0.549003

  3 S  2.24800000E-01  1.000000

  4 S  6.12400000E-02  1.000000

  5 P  1.35500000E+01  0.039919
  5 P  2.91700000E+00  0.217169
  5 P  7.97300000E-01  0.510319

  6 P  2.18500000E-01  1.000000

  7 P  5.61100000E-02  1.000000

  8 D  8.17000000E-01  1.000000

  9 D  2.30000000E-01  1.000000

  S (Sulphur)
  -----------
            Exponent  Coefficients 
       -------------- ---------------------------------------------------------
  1 S  1.10800000E+05  0.000248
  1 S  1.66100000E+04  0.001920
  1 S  3.78100000E+03  0.009962
  1 S  1.07100000E+03  0.040298
  1 S  3.49800000E+02  0.128604
  1 S  1.26300000E+02  0.303480
  1 S  4.92600000E+01  0.421432
  1 S  2.01600000E+01  0.230781
  1 S  5.72000000E+00  0.017897
  1 S  2.18200000E+00 -0.002975
  1 S  4.32700000E-01  0.000850

  2 S  1.10800000E+05 -0.000069
  2 S  1.66100000E+04 -0.000528
  2 S  3.78100000E+03 -0.002797
  2 S  1.07100000E+03 -0.011265
  2 S  3.49800000E+02 -0.038883
  2 S  1.26300000E+02 -0.099503
  2 S  4.92600000E+01 -0.199740
  2 S  2.01600000E+01 -0.123360
  2 S  5.72000000E+00  0.513194
  2 S  2.18200000E+00  0.607120
  2 S  4.32700000E-01  0.039675

  3 S  1.10800000E+05  0.000020
  3 S  1.66100000E+04  0.000153
  3 S  3.78100000E+03  0.000810
  3 S  1.07100000E+03  0.003290
  3 S  3.49800000E+02  0.011297
  3 S  1.26300000E+02  0.029639
  3 S  4.92600000E+01  0.059985
  3 S  2.01600000E+01  0.041325
  3 S  5.72000000E+00 -0.207474
  3 S  2.18200000E+00 -0.392889
  3 S  4.32700000E-01  0.632840

  4 S  1.57000000E-01  1.000000

  5 S  5.07000000E-02  1.000000

  6 P  3.99700000E+02  0.004475
  6 P  9.41900000E+01  0.034171
  6 P  2.97500000E+01  0.144250
  6 P  1.07700000E+01  0.353928
  6 P  4.11900000E+00  0.459085
  6 P  1.62500000E+00  0.206383
  6 P  4.72600000E-01  0.010214

  7 P  3.99700000E+02 -0.001163
  7 P  9.41900000E+01 -0.008657
  7 P  2.97500000E+01 -0.039089
  7 P  1.07700000E+01 -0.093463
  7 P  4.11900000E+00 -0.147994
  7 P  1.62500000E+00  0.030190
  7 P  4.72600000E-01  0.561573

  8 P  1.40700000E-01  1.000000

  9 P  3.99000000E-02  1.000000

 10 D  4.79000000E-01  1.000000

 11 D  1.52000000E-01  1.000000



 Summary of "ao basis" -> "ao basis" (cartesian)
 ------------------------------------------------------------------------------
       Tag                 Description            Shells   Functions and Types
 ---------------- ------------------------------  ------  ---------------------
 H                        aug-cc-pvdz                5        9   3s2p
 C                        aug-cc-pvdz                9       25   4s3p2d
 O                        aug-cc-pvdz                9       25   4s3p2d
 N                        aug-cc-pvdz                9       25   4s3p2d
 S                        aug-cc-pvdz               11       29   5s4p2d


                                 NWChem SCF Module
                                 -----------------



  ao basis        = "ao basis"
  functions       =   684
  atoms           =    40
  closed shells   =    81
  open shells     =     0
  charge          =   0.00
  wavefunction    = RHF 
  input vectors   = atomic
  output vectors  = ./ASN_MET_1.movecs
  use symmetry    = F
  symmetry adapt  = F


 Summary of "ao basis" -> "ao basis" (cartesian)
 ------------------------------------------------------------------------------
       Tag                 Description            Shells   Functions and Types
 ---------------- ------------------------------  ------  ---------------------
 H                        aug-cc-pvdz                5        9   3s2p
 C                        aug-cc-pvdz                9       25   4s3p2d
 O                        aug-cc-pvdz                9       25   4s3p2d
 N                        aug-cc-pvdz                9       25   4s3p2d
 S                        aug-cc-pvdz               11       29   5s4p2d



 Forming initial guess at       0.9s


 !! The overlap matrix has   5 vectors deemed linearly dependent with
    eigenvalues:
 2.10D-06 3.29D-06 6.72D-06 7.53D-06 7.97D-06


      Superposition of Atomic Density Guess
      -------------------------------------

 Sum of atomic energies:       -1338.08087253

      Non-variational initial energy
      ------------------------------

 Total energy =   -1350.803682
 1-e energy   =   -5587.941948
 2-e energy   =    2347.299604
 HOMO         =      -0.264784
 LUMO         =       0.008192


 Starting SCF solution at     357.6s



 ----------------------------------------------
         Quadratically convergent ROHF

 Convergence threshold     :          1.000E-04
 Maximum no. of iterations :           30
 Final Fock-matrix accuracy:          1.000E-10
 ----------------------------------------------


              iter       energy          gnorm     gmax       time
             ----- ------------------- --------- --------- --------
                 1    -1342.7272248634  2.73D+00  1.93D-01    740.9
                 2    -1343.1245270114  9.12D-01  4.27D-02   1510.8
                 3    -1343.1979885812  7.21D-02  3.41D-03   2600.4
                 4    -1343.1987701773  4.43D-03  3.55D-04   4042.3
                 5    -1343.1987737921  9.84D-06  5.35D-07   6553.3


       Final RHF  results 
       ------------------ 

         Total SCF energy =  -1343.198773792126
      One-electron energy =  -5601.962854197012
      Two-electron energy =   2368.925417727396
 Nuclear repulsion energy =   1889.838662677490

        Time for solution =   6197.3s


             Final eigenvalues
             -----------------

              1      
    1  -91.9533
    2  -20.5448
    3  -20.5363
    4  -20.5324
    5  -20.5263
    6  -15.6182
    7  -15.6037
    8  -15.6020
    9  -15.5935
   10  -11.3791
   11  -11.3704
   12  -11.3619
   13  -11.3556
   14  -11.3156
   15  -11.3135
   16  -11.2671
   17  -11.2657
   18  -11.2591
   19  -11.2577
   20  -11.2407
   21   -8.9542
   22   -6.6365
   23   -6.6352
   24   -6.6332
   25   -1.4084
   26   -1.4042
   27   -1.3960
   28   -1.3885
   29   -1.2601
   30   -1.2459
   31   -1.2417
   32   -1.2316
   33   -1.1031
   34   -1.0803
   35   -1.0458
   36   -1.0023
   37   -0.9755
   38   -0.9269
   39   -0.8815
   40   -0.8380
   41   -0.8126
   42   -0.8109
   43   -0.8039
   44   -0.7794
   45   -0.7684
   46   -0.7440
   47   -0.7260
   48   -0.6945
   49   -0.6865
   50   -0.6779
   51   -0.6693
   52   -0.6589
   53   -0.6439
   54   -0.6336
   55   -0.6217
   56   -0.6167
   57   -0.6036
   58   -0.5960
   59   -0.5923
   60   -0.5850
   61   -0.5819
   62   -0.5769
   63   -0.5691
   64   -0.5631
   65   -0.5519
   66   -0.5455
   67   -0.5270
   68   -0.5257
   69   -0.5243
   70   -0.5144
   71   -0.4867
   72   -0.4518
   73   -0.4443
   74   -0.4364
   75   -0.4343
   76   -0.4282
   77   -0.4246
   78   -0.4195
   79   -0.4028
   80   -0.3938
   81   -0.3429
   82    0.0239
   83    0.0349
   84    0.0401
   85    0.0420
   86    0.0480
   87    0.0542
   88    0.0546
   89    0.0559
   90    0.0608
   91    0.0693

                       ROHF Final Molecular Orbital Analysis
                       -------------------------------------

 Vector   25  Occ=2.000000D+00  E=-1.408406D+00
              MO Center=  2.3D+00, -5.5D-02, -2.4D-01, r^2= 4.3D+00
   Bfn.  Coefficient  Atom+Function         Bfn.  Coefficient  Atom+Function  
  ----- ------------  ---------------      ----- ------------  ---------------
   619      0.336358  37 O  s               618      0.311273  37 O  s         
   593      0.223760  36 C  s         

 Vector   26  Occ=2.000000D+00  E=-1.404160D+00
              MO Center= -1.9D+00,  8.9D-02, -2.0D-01, r^2= 5.1D+00
   Bfn.  Coefficient  Atom+Function         Bfn.  Coefficient  Atom+Function  
  ----- ------------  ---------------      ----- ------------  ---------------
   241      0.336871  15 O  s               240      0.314041  15 O  s         
   215      0.225838  14 C  s         

 Vector   27  Occ=2.000000D+00  E=-1.395985D+00
              MO Center= -1.1D-01,  1.1D+00,  9.6D-01, r^2= 5.8D+00
   Bfn.  Coefficient  Atom+Function         Bfn.  Coefficient  Atom+Function  
  ----- ------------  ---------------      ----- ------------  ---------------
   334      0.284366  20 O  s               333      0.263887  20 O  s         
   308      0.187946  19 C  s               241     -0.154954  15 O  s         
    79      0.153122   6 O  s         

 Vector   28  Occ=2.000000D+00  E=-1.388461D+00
              MO Center=  3.7D-01,  2.7D+00,  1.4D-01, r^2= 3.7D+00
   Bfn.  Coefficient  Atom+Function         Bfn.  Coefficient  Atom+Function  
  ----- ------------  ---------------      ----- ------------  ---------------
    80      0.307208   6 O  s                79      0.304032   6 O  s         
    54      0.213762   5 C  s               334     -0.201743  20 O  s         
    12      0.185682   2 C  s               333     -0.184617  20 O  s         

 Vector   29  Occ=2.000000D+00  E=-1.260065D+00
              MO Center=  3.1D-02,  1.6D+00,  3.0D-01, r^2= 3.7D+00
   Bfn.  Coefficient  Atom+Function         Bfn.  Coefficient  Atom+Function  
  ----- ------------  ---------------      ----- ------------  ---------------
   105      0.275675   7 N  s               104      0.242727   7 N  s         
   139     -0.229662   9 C  s               358      0.219179  21 N  s         
   359      0.216936  21 N  s               334     -0.190110  20 O  s         
    80     -0.171778   6 O  s               309      0.165990  19 C  s         
   333     -0.152030  20 O  s         

 Vector   30  Occ=2.000000D+00  E=-1.245859D+00
              MO Center=  3.2D+00, -4.0D-01,  1.8D-01, r^2= 4.4D+00
   Bfn.  Coefficient  Atom+Function         Bfn.  Coefficient  Atom+Function  
  ----- ------------  ---------------      ----- ------------  ---------------
   644      0.339493  38 N  s               643      0.329538  38 N  s         
   619     -0.219382  37 O  s               618     -0.188122  37 O  s         
   667      0.154271  39 H  s         

 Vector   31  Occ=2.000000D+00  E=-1.241707D+00
              MO Center=  8.4D-01,  9.7D-01,  3.2D-01, r^2= 6.0D+00
   Bfn.  Coefficient  Atom+Function         Bfn.  Coefficient  Atom+Function  
  ----- ------------  ---------------      ----- ------------  ---------------
   359      0.324762  21 N  s               105     -0.258385   7 N  s         
   358      0.249300  21 N  s               104     -0.211672   7 N  s         
   644     -0.184723  38 N  s               643     -0.165824  38 N  s         

 Vector   32  Occ=2.000000D+00  E=-1.231648D+00
              MO Center= -2.5D+00, -6.0D-01,  7.6D-01, r^2= 1.4D+00
   Bfn.  Coefficient  Atom+Function         Bfn.  Coefficient  Atom+Function  
  ----- ------------  ---------------      ----- ------------  ---------------
   265      0.365708  16 N  s               266      0.337018  16 N  s         
   241     -0.220218  15 O  s               220      0.193523  14 C  pz        
   240     -0.186829  15 O  s               173     -0.174326  11 C  s         
   298      0.164801  18 H  s               289      0.151070  17 H  s         

 Vector   33  Occ=2.000000D+00  E=-1.103119D+00
              MO Center=  4.7D-01, -1.5D+00,  1.7D-01, r^2= 5.0D+00
   Bfn.  Coefficient  Atom+Function         Bfn.  Coefficient  Atom+Function  
  ----- ------------  ---------------      ----- ------------  ---------------
   426      0.214186  25 C  s               469      0.211402  28 C  s         
   513      0.169837  31 S  s               393      0.150443  23 C  s         

 Vector   34  Occ=2.000000D+00  E=-1.080287D+00
              MO Center= -1.3D+00,  1.3D+00,  3.2D-01, r^2= 6.0D+00
   Bfn.  Coefficient  Atom+Function         Bfn.  Coefficient  Atom+Function  
  ----- ------------  ---------------      ----- ------------  ---------------
   173      0.258036  11 C  s               172      0.237432  11 C  s         
   138      0.210613   9 C  s               174     -0.163832  11 C  s         
   222     -0.162514  14 C  py              266     -0.154790  16 N  s         

 Vector   35  Occ=2.000000D+00  E=-1.045815D+00
              MO Center=  9.4D-02, -1.8D+00, -2.0D-01, r^2= 7.5D+00
   Bfn.  Coefficient  Atom+Function         Bfn.  Coefficient  Atom+Function  
  ----- ------------  ---------------      ----- ------------  ---------------
   513      0.226522  31 S  s               393     -0.195172  23 C  s         
   392     -0.190323  23 C  s               541      0.188008  32 C  s         

 Vector   36  Occ=2.000000D+00  E=-1.002338D+00
              MO Center= -3.8D-01,  2.8D+00, -1.6D+00, r^2= 5.0D+00
   Bfn.  Coefficient  Atom+Function         Bfn.  Coefficient  Atom+Function  
  ----- ------------  ---------------      ----- ------------  ---------------
    11      0.320597   2 C  s               173      0.318179  11 C  s         
   174      0.212204  11 C  s                59     -0.169140   5 C  pz        
    12      0.166657   2 C  s               172      0.151267  11 C  s         

 Vector   37  Occ=2.000000D+00  E=-9.755434D-01
              MO Center=  2.7D-01, -1.6D+00, -3.9D-01, r^2= 8.2D+00
   Bfn.  Coefficient  Atom+Function         Bfn.  Coefficient  Atom+Function  
  ----- ------------  ---------------      ----- ------------  ---------------
   541      0.213513  32 C  s               469     -0.177419  28 C  s         
   392      0.167841  23 C  s         

 Vector   38  Occ=2.000000D+00  E=-9.268528D-01
              MO Center= -9.3D-01,  1.2D+00,  3.6D-01, r^2= 7.3D+00
   Bfn.  Coefficient  Atom+Function         Bfn.  Coefficient  Atom+Function  
  ----- ------------  ---------------      ----- ------------  ---------------
   173      0.320004  11 C  s               138     -0.221302   9 C  s         
   179     -0.189978  11 C  py              172      0.157825  11 C  s         

 Vector   39  Occ=2.000000D+00  E=-8.815172D-01
              MO Center=  6.4D-01, -1.9D+00, -1.5D-01, r^2= 7.4D+00
   Bfn.  Coefficient  Atom+Function         Bfn.  Coefficient  Atom+Function  
  ----- ------------  ---------------      ----- ------------  ---------------
   426      0.212123  25 C  s               541      0.175642  32 C  s         
   393     -0.162867  23 C  s               542      0.160964  32 C  s         
   513     -0.158541  31 S  s               398     -0.156471  23 C  px        

 Vector   40  Occ=2.000000D+00  E=-8.380341D-01
              MO Center=  1.3D+00,  1.0D-01,  4.3D-01, r^2= 9.7D+00
   Bfn.  Coefficient  Atom+Function         Bfn.  Coefficient  Atom+Function  
  ----- ------------  ---------------      ----- ------------  ---------------
   646      0.229370  38 N  px              593     -0.172331  36 C  s         
   393     -0.155177  23 C  s               599     -0.151290  36 C  px        

 Vector   41  Occ=2.000000D+00  E=-8.125543D-01
              MO Center=  2.3D-01, -1.4D+00, -3.1D-01, r^2= 9.0D+00
   Bfn.  Coefficient  Atom+Function         Bfn.  Coefficient  Atom+Function  
  ----- ------------  ---------------      ----- ------------  ---------------
   514      0.359455  31 S  s               470     -0.261388  28 C  s         
   513      0.262494  31 S  s               427      0.155602  25 C  s         

 Vector   42  Occ=2.000000D+00  E=-8.109009D-01
              MO Center= -5.5D-02,  9.0D-01, -3.4D-02, r^2= 8.6D+00
   Bfn.  Coefficient  Atom+Function         Bfn.  Coefficient  Atom+Function  
  ----- ------------  ---------------      ----- ------------  ---------------
   139      0.229783   9 C  s               107      0.208077   7 N  px        
   128     -0.208624   8 H  s               309     -0.201736  19 C  s         
   108      0.152588   7 N  py              514     -0.151015  31 S  s         

 Vector   43  Occ=2.000000D+00  E=-8.038755D-01
              MO Center= -1.7D+00,  4.9D-01,  4.3D-01, r^2= 7.0D+00
   Bfn.  Coefficient  Atom+Function         Bfn.  Coefficient  Atom+Function  
  ----- ------------  ---------------      ----- ------------  ---------------
   269      0.232990  16 N  py              215      0.191670  14 C  s         
   217     -0.178509  14 C  s               216      0.174099  14 C  s         
   270     -0.172827  16 N  pz              298     -0.169004  18 H  s         

 Vector   44  Occ=2.000000D+00  E=-7.793798D-01
              MO Center=  9.1D-01, -5.6D-01,  4.7D-01, r^2= 6.4D+00
   Bfn.  Coefficient  Atom+Function         Bfn.  Coefficient  Atom+Function  
  ----- ------------  ---------------      ----- ------------  ---------------
   309      0.292317  19 C  s               393      0.255293  23 C  s         
   363      0.244379  21 N  pz              594     -0.244961  36 C  s         
   382     -0.237791  22 H  s               470      0.233567  28 C  s         
   417      0.222097  24 H  s               514     -0.215782  31 S  s         
   400     -0.192159  23 C  pz              427     -0.189102  25 C  s         

 Vector   45  Occ=2.000000D+00  E=-7.683669D-01
              MO Center=  2.1D+00, -3.0D-01,  5.1D-01, r^2= 8.2D+00
   Bfn.  Coefficient  Atom+Function         Bfn.  Coefficient  Atom+Function  
  ----- ------------  ---------------      ----- ------------  ---------------
   648      0.290345  38 N  pz              667      0.255114  39 H  s         
   309     -0.196211  19 C  s               676     -0.172999  40 H  s         

 Vector   46  Occ=2.000000D+00  E=-7.440227D-01
              MO Center= -1.1D+00, -4.0D-01,  9.0D-01, r^2= 8.9D+00
   Bfn.  Coefficient  Atom+Function         Bfn.  Coefficient  Atom+Function  
  ----- ------------  ---------------      ----- ------------  ---------------
   270      0.294913  16 N  pz              298      0.260482  18 H  s         
   309     -0.224825  19 C  s               289     -0.222342  17 H  s         
   139      0.188923   9 C  s               269      0.153166  16 N  py        
   648     -0.150279  38 N  pz        

 Vector   47  Occ=2.000000D+00  E=-7.260233D-01
              MO Center= -2.2D-01,  1.1D+00,  3.4D-01, r^2= 8.7D+00
   Bfn.  Coefficient  Atom+Function         Bfn.  Coefficient  Atom+Function  
  ----- ------------  ---------------      ----- ------------  ---------------
   146      0.315295   9 C  pz              109     -0.237787   7 N  pz        
    55     -0.205169   5 C  s               309     -0.198196  19 C  s         
   128      0.177520   8 H  s               142     -0.165021   9 C  py        
   145     -0.164828   9 C  py              105      0.161866   7 N  s         
   144      0.160684   9 C  px              106      0.155555   7 N  s         

 Vector   48  Occ=2.000000D+00  E=-6.944902D-01
              MO Center= -4.3D-01,  4.2D-01,  1.8D-01, r^2= 1.0D+01
   Bfn.  Coefficient  Atom+Function         Bfn.  Coefficient  Atom+Function  
  ----- ------------  ---------------      ----- ------------  ---------------
   269      0.193529  16 N  py              219     -0.174448  14 C  py        
   646     -0.155034  38 N  px              289     -0.152533  17 H  s         

 Vector   49  Occ=2.000000D+00  E=-6.865246D-01
              MO Center=  1.6D-01,  1.1D+00, -5.2D-02, r^2= 1.0D+01
   Bfn.  Coefficient  Atom+Function         Bfn.  Coefficient  Atom+Function  
  ----- ------------  ---------------      ----- ------------  ---------------
    84      0.175558   6 O  pz               80      0.158551   6 O  s         

 Vector   50  Occ=2.000000D+00  E=-6.779030D-01
              MO Center=  1.4D+00,  6.4D-01,  1.0D-01, r^2= 7.7D+00
   Bfn.  Coefficient  Atom+Function         Bfn.  Coefficient  Atom+Function  
  ----- ------------  ---------------      ----- ------------  ---------------
   397      0.208208  23 C  pz              416      0.208127  24 H  s         
   427     -0.204873  25 C  s               623     -0.204826  37 O  pz        
   594     -0.168715  36 C  s               619      0.163004  37 O  s         

 Vector   51  Occ=2.000000D+00  E=-6.693302D-01
              MO Center=  6.4D-01,  8.6D-01,  1.8D-02, r^2= 9.6D+00
   Bfn.  Coefficient  Atom+Function         Bfn.  Coefficient  Atom+Function  
  ----- ------------  ---------------      ----- ------------  ---------------
    84      0.200565   6 O  pz              362     -0.158561  21 N  py        
    80      0.154287   6 O  s                19     -0.150729   2 C  pz        

 Vector   52  Occ=2.000000D+00  E=-6.588732D-01
              MO Center= -7.6D-01,  5.3D-01,  3.5D-01, r^2= 7.7D+00
   Bfn.  Coefficient  Atom+Function         Bfn.  Coefficient  Atom+Function  
  ----- ------------  ---------------      ----- ------------  ---------------
   393      0.249349  23 C  s               245     -0.204198  15 O  pz        
   427     -0.190768  25 C  s               241      0.152589  15 O  s         

 Vector   53  Occ=2.000000D+00  E=-6.438836D-01
              MO Center=  1.6D+00, -8.0D-01,  9.8D-03, r^2= 6.2D+00
   Bfn.  Coefficient  Atom+Function         Bfn.  Coefficient  Atom+Function  
  ----- ------------  ---------------      ----- ------------  ---------------
   623      0.252335  37 O  pz              399      0.232493  23 C  py        
   597      0.211697  36 C  py              427      0.189034  25 C  s         
   429     -0.170733  25 C  px              619     -0.157648  37 O  s         
   459      0.156723  27 H  s         

 Vector   54  Occ=2.000000D+00  E=-6.336004D-01
              MO Center= -2.2D-02,  1.0D+00,  8.4D-01, r^2= 7.8D+00
   Bfn.  Coefficient  Atom+Function         Bfn.  Coefficient  Atom+Function  
  ----- ------------  ---------------      ----- ------------  ---------------
   338      0.288179  20 O  pz              313     -0.232483  19 C  pz        
   334      0.226952  20 O  s               427     -0.159043  25 C  s         

 Vector   55  Occ=2.000000D+00  E=-6.217383D-01
              MO Center= -7.9D-01,  7.1D-02,  2.4D-01, r^2= 8.3D+00
   Bfn.  Coefficient  Atom+Function         Bfn.  Coefficient  Atom+Function  
  ----- ------------  ---------------      ----- ------------  ---------------
   175      0.198705  11 C  px              218      0.158312  14 C  px        

 Vector   56  Occ=2.000000D+00  E=-6.167493D-01
              MO Center=  2.1D-01,  2.0D+00, -1.3D+00, r^2= 7.9D+00
   Bfn.  Coefficient  Atom+Function         Bfn.  Coefficient  Atom+Function  
  ----- ------------  ---------------      ----- ------------  ---------------
   139      0.291477   9 C  s                15     -0.227006   2 C  py        
     1     -0.202915   1 H  s                44      0.187964   4 H  s         
    58     -0.163437   5 C  py              174      0.160962  11 C  s         
    14      0.154140   2 C  px               56     -0.150202   5 C  s         

 Vector   57  Occ=2.000000D+00  E=-6.035908D-01
              MO Center= -2.8D-01,  5.2D-01, -1.7D-02, r^2= 1.0D+01
   Bfn.  Coefficient  Atom+Function         Bfn.  Coefficient  Atom+Function  
  ----- ------------  ---------------      ----- ------------  ---------------
   427      0.173999  25 C  s               173     -0.155380  11 C  s         

 Vector   58  Occ=2.000000D+00  E=-5.960489D-01
              MO Center=  4.4D-03, -1.8D+00, -6.8D-01, r^2= 1.0D+01
   Bfn.  Coefficient  Atom+Function         Bfn.  Coefficient  Atom+Function  
  ----- ------------  ---------------      ----- ------------  ---------------
   427      0.254968  25 C  s               574      0.234446  34 H  s         
   575      0.230439  34 H  s               544     -0.205437  32 C  px        
   267     -0.183204  16 N  s               545     -0.181095  32 C  py        
   598      0.160009  36 C  pz        

 Vector   59  Occ=2.000000D+00  E=-5.923267D-01
              MO Center= -1.0D+00, -1.8D-01, -7.3D-02, r^2= 9.9D+00
   Bfn.  Coefficient  Atom+Function         Bfn.  Coefficient  Atom+Function  
  ----- ------------  ---------------      ----- ------------  ---------------
   245      0.268872  15 O  pz              139     -0.227864   9 C  s         
   220     -0.216142  14 C  pz              173      0.196133  11 C  s         

 Vector   60  Occ=2.000000D+00  E=-5.849836D-01
              MO Center= -4.5D-01,  8.5D-02, -7.9D-01, r^2= 1.3D+01
   Bfn.  Coefficient  Atom+Function         Bfn.  Coefficient  Atom+Function  
  ----- ------------  ---------------      ----- ------------  ---------------
   494      0.207626  29 H  s               544     -0.191149  32 C  px        
   173      0.189863  11 C  s               565     -0.185192  33 H  s         
    59      0.175675   5 C  pz               82     -0.166861   6 O  px        
   575      0.163923  34 H  s               139     -0.161779   9 C  s         
   470     -0.160674  28 C  s         

 Vector   61  Occ=2.000000D+00  E=-5.819391D-01
              MO Center= -5.7D-01, -8.7D-01, -4.8D-01, r^2= 1.2D+01
   Bfn.  Coefficient  Atom+Function         Bfn.  Coefficient  Atom+Function  
  ----- ------------  ---------------      ----- ------------  ---------------
   427      0.269801  25 C  s               545      0.252012  32 C  py        
   575     -0.230248  34 H  s               583      0.191318  35 H  s         
   393     -0.171774  23 C  s               574     -0.166059  34 H  s         
   177      0.153614  11 C  pz        

 Vector   62  Occ=2.000000D+00  E=-5.768850D-01
              MO Center= -4.6D-01, -9.7D-02, -8.4D-01, r^2= 1.2D+01
   Bfn.  Coefficient  Atom+Function         Bfn.  Coefficient  Atom+Function  
  ----- ------------  ---------------      ----- ------------  ---------------
   565     -0.189800  33 H  s                82      0.182027   6 O  px        
   583      0.179975  35 H  s               544     -0.178184  32 C  px        
    59     -0.158334   5 C  pz        

 Vector   63  Occ=2.000000D+00  E=-5.690781D-01
              MO Center=  7.9D-02,  1.5D+00, -9.9D-01, r^2= 1.2D+01
   Bfn.  Coefficient  Atom+Function         Bfn.  Coefficient  Atom+Function  
  ----- ------------  ---------------      ----- ------------  ---------------
    36      0.250193   3 H  s                35      0.196997   3 H  s         
    82      0.179386   6 O  px               14      0.176060   2 C  px        
    15      0.159846   2 C  py              384      0.157182  22 H  s         

 Vector   64  Occ=2.000000D+00  E=-5.630912D-01
              MO Center=  8.4D-01,  2.6D-01, -4.1D-01, r^2= 1.2D+01
   Bfn.  Coefficient  Atom+Function         Bfn.  Coefficient  Atom+Function  
  ----- ------------  ---------------      ----- ------------  ---------------
   647      0.187100  38 N  py               14      0.179520   2 C  px        
   622      0.175706  37 O  py               35      0.159012   3 H  s         
   597      0.156924  36 C  py               36      0.150313   3 H  s         

 Vector   65  Occ=2.000000D+00  E=-5.518608D-01
              MO Center= -1.4D+00,  1.1D+00,  3.7D-01, r^2= 7.9D+00
   Bfn.  Coefficient  Atom+Function         Bfn.  Coefficient  Atom+Function  
  ----- ------------  ---------------      ----- ------------  ---------------
   217     -0.267800  14 C  s               205      0.263374  13 H  s         
   173      0.231813  11 C  s               197     -0.188686  12 H  s         
   310      0.184824  19 C  s               176      0.172819  11 C  py        
   139     -0.171796   9 C  s               206      0.169921  13 H  s         
   144      0.159611   9 C  px              177     -0.158579  11 C  pz        

 Vector   66  Occ=2.000000D+00  E=-5.455258D-01
              MO Center= -3.7D-01,  1.2D+00, -2.3D-01, r^2= 1.0D+01
   Bfn.  Coefficient  Atom+Function         Bfn.  Coefficient  Atom+Function  
  ----- ------------  ---------------      ----- ------------  ---------------
    14      0.212672   2 C  px               56     -0.191639   5 C  s         
    35      0.178909   3 H  s               197     -0.174672  12 H  s         
   173     -0.161362  11 C  s         

 Vector   67  Occ=2.000000D+00  E=-5.270384D-01
              MO Center= -1.1D+00,  1.2D+00,  1.9D-01, r^2= 7.9D+00
   Bfn.  Coefficient  Atom+Function         Bfn.  Coefficient  Atom+Function  
  ----- ------------  ---------------      ----- ------------  ---------------
   175      0.241413  11 C  px              141     -0.217665   9 C  px        
   173     -0.193117  11 C  s               178      0.150202  11 C  px        

 Vector   68  Occ=2.000000D+00  E=-5.256725D-01
              MO Center=  7.3D-01, -1.0D+00, -5.7D-02, r^2= 7.6D+00
   Bfn.  Coefficient  Atom+Function         Bfn.  Coefficient  Atom+Function  
  ----- ------------  ---------------      ----- ------------  ---------------
   431      0.258502  25 C  pz              474     -0.241877  28 C  pz        
   417     -0.233923  24 H  s               459      0.229221  27 H  s         
   477     -0.202581  28 C  pz              621     -0.183335  37 O  px        
   460      0.180199  27 H  s               502      0.176780  30 H  s         

 Vector   69  Occ=2.000000D+00  E=-5.243332D-01
              MO Center=  1.2D-01,  4.6D-01, -2.0D-01, r^2= 1.0D+01
   Bfn.  Coefficient  Atom+Function         Bfn.  Coefficient  Atom+Function  
  ----- ------------  ---------------      ----- ------------  ---------------
   139      0.255298   9 C  s               173     -0.243537  11 C  s         
   471     -0.233281  28 C  s               427     -0.192017  25 C  s         
   460      0.180497  27 H  s               450     -0.175463  26 H  s         
   493     -0.167534  29 H  s                83     -0.154322   6 O  py        

 Vector   70  Occ=2.000000D+00  E=-5.143770D-01
              MO Center=  3.7D-01, -3.3D-01,  2.3D-01, r^2= 8.9D+00
   Bfn.  Coefficient  Atom+Function         Bfn.  Coefficient  Atom+Function  
  ----- ------------  ---------------      ----- ------------  ---------------
   460     -0.253426  27 H  s               451      0.237940  26 H  s         
   450      0.231804  26 H  s               430     -0.184891  25 C  py        
   472     -0.176765  28 C  px              429      0.174399  25 C  px        
   399      0.171365  23 C  py              503     -0.163568  30 H  s         
   360      0.152376  21 N  s               493      0.152325  29 H  s         

 Vector   71  Occ=2.000000D+00  E=-4.866872D-01
              MO Center= -4.2D-03, -2.1D+00, -1.1D-01, r^2= 6.7D+00
   Bfn.  Coefficient  Atom+Function         Bfn.  Coefficient  Atom+Function  
  ----- ------------  ---------------      ----- ------------  ---------------
   471      0.316777  28 C  s               427      0.291122  25 C  s         
   417      0.213448  24 H  s               494     -0.199515  29 H  s         
   519     -0.194246  31 S  px              472      0.184889  28 C  px        
   431     -0.175371  25 C  pz              546      0.173847  32 C  pz        
   549      0.171264  32 C  pz              399      0.168928  23 C  py        

 Vector   72  Occ=2.000000D+00  E=-4.518379D-01
              MO Center=  1.1D-02,  1.4D+00,  1.2D+00, r^2= 5.9D+00
   Bfn.  Coefficient  Atom+Function         Bfn.  Coefficient  Atom+Function  
  ----- ------------  ---------------      ----- ------------  ---------------
   336      0.375792  20 O  px              339      0.301584  20 O  px        
   139      0.249886   9 C  s               337     -0.210343  20 O  py        
    82     -0.179693   6 O  px               83      0.177769   6 O  py        
   340     -0.167907  20 O  py              173     -0.152291  11 C  s         

 Vector   73  Occ=2.000000D+00  E=-4.443342D-01
              MO Center=  1.9D+00, -6.7D-01, -3.5D-01, r^2= 6.7D+00
   Bfn.  Coefficient  Atom+Function         Bfn.  Coefficient  Atom+Function  
  ----- ------------  ---------------      ----- ------------  ---------------
   621      0.448644  37 O  px              624      0.371091  37 O  px        
   393     -0.328807  23 C  s               594      0.302012  36 C  s         
   599     -0.266513  36 C  px              139      0.244741   9 C  s         
   611      0.219106  36 C  dxx             460      0.197147  27 H  s         
   397     -0.173786  23 C  pz              470     -0.165068  28 C  s         

 Vector   74  Occ=2.000000D+00  E=-4.364466D-01
              MO Center= -3.6D-01, -9.5D-01, -3.3D-01, r^2= 1.1D+01
   Bfn.  Coefficient  Atom+Function         Bfn.  Coefficient  Atom+Function  
  ----- ------------  ---------------      ----- ------------  ---------------
   244      0.333280  15 O  py              247      0.267019  15 O  py        
   514     -0.189480  31 S  s               622      0.183692  37 O  py        
   217     -0.169550  14 C  s               521     -0.160489  31 S  pz        
   222     -0.152595  14 C  py        

 Vector   75  Occ=2.000000D+00  E=-4.343143D-01
              MO Center=  1.6D+00, -2.3D-01, -2.1D-01, r^2= 1.0D+01
   Bfn.  Coefficient  Atom+Function         Bfn.  Coefficient  Atom+Function  
  ----- ------------  ---------------      ----- ------------  ---------------
   622      0.313919  37 O  py              647     -0.305280  38 N  py        
   244     -0.272784  15 O  py              650     -0.255561  38 N  py        
   625      0.250970  37 O  py              247     -0.216679  15 O  py        
   222      0.152425  14 C  py        

 Vector   76  Occ=2.000000D+00  E=-4.281504D-01
              MO Center= -3.4D-01, -1.7D+00, -3.8D-01, r^2= 9.6D+00
   Bfn.  Coefficient  Atom+Function         Bfn.  Coefficient  Atom+Function  
  ----- ------------  ---------------      ----- ------------  ---------------
   514      0.326853  31 S  s               244      0.272437  15 O  py        
   520     -0.220114  31 S  py              247      0.216666  15 O  py        
   521      0.201353  31 S  pz              575     -0.175629  34 H  s         
   222     -0.165306  14 C  py              621      0.165451  37 O  px        
   476      0.158045  28 C  py              647     -0.158300  38 N  py        

 Vector   77  Occ=2.000000D+00  E=-4.245775D-01
              MO Center=  3.4D-01,  3.0D+00, -5.4D-01, r^2= 4.6D+00
   Bfn.  Coefficient  Atom+Function         Bfn.  Coefficient  Atom+Function  
  ----- ------------  ---------------      ----- ------------  ---------------
    84      0.433122   6 O  pz               87      0.336655   6 O  pz        
    13     -0.262031   2 C  s                16      0.211774   2 C  pz        
    83     -0.207886   6 O  py              105     -0.204951   7 N  s         
    19      0.201230   2 C  pz              174     -0.192637  11 C  s         
    82     -0.188134   6 O  px               86     -0.175365   6 O  py        

 Vector   78  Occ=2.000000D+00  E=-4.194644D-01
              MO Center= -2.0D+00, -1.8D-01,  2.6D-01, r^2= 5.2D+00
   Bfn.  Coefficient  Atom+Function         Bfn.  Coefficient  Atom+Function  
  ----- ------------  ---------------      ----- ------------  ---------------
   267      0.380336  16 N  s               268     -0.376293  16 N  px        
   243      0.346003  15 O  px              271     -0.329348  16 N  px        
   246      0.280959  15 O  px        

 Vector   79  Occ=2.000000D+00  E=-4.028320D-01
              MO Center=  1.5D-01,  7.7D-01,  9.2D-01, r^2= 5.6D+00
   Bfn.  Coefficient  Atom+Function         Bfn.  Coefficient  Atom+Function  
  ----- ------------  ---------------      ----- ------------  ---------------
   337      0.308892  20 O  py              361     -0.255407  21 N  px        
   340      0.246923  20 O  py              139     -0.231983   9 C  s         
   365     -0.217085  21 N  py              364     -0.208877  21 N  px        
   362     -0.203635  21 N  py              309      0.196149  19 C  s         
   360     -0.187730  21 N  s               398      0.170314  23 C  px        

 Vector   80  Occ=2.000000D+00  E=-3.938171D-01
              MO Center=  6.7D-04,  1.8D+00,  4.8D-01, r^2= 5.0D+00
   Bfn.  Coefficient  Atom+Function         Bfn.  Coefficient  Atom+Function  
  ----- ------------  ---------------      ----- ------------  ---------------
   108      0.268867   7 N  py              336      0.264457  20 O  px        
   111      0.247119   7 N  py               83     -0.233929   6 O  py        
   107     -0.217141   7 N  px              339      0.217231  20 O  px        
   110     -0.205853   7 N  px               86     -0.188276   6 O  py        
   362     -0.183038  21 N  py              384     -0.174912  22 H  s         

 Vector   81  Occ=2.000000D+00  E=-3.428674D-01
              MO Center= -6.8D-01, -3.3D+00, -5.2D-01, r^2= 2.4D+00
   Bfn.  Coefficient  Atom+Function         Bfn.  Coefficient  Atom+Function  
  ----- ------------  ---------------      ----- ------------  ---------------
   522      0.379168  31 S  px              519      0.361528  31 S  px        
   523     -0.343562  31 S  py              520     -0.304923  31 S  py        
   494      0.280980  29 H  s               521     -0.209178  31 S  pz        
   524     -0.208982  31 S  pz              503     -0.192142  30 H  s         
   566     -0.176221  33 H  s               470     -0.154122  28 C  s         

 Vector   82  Occ=0.000000D+00  E= 2.386054D-02
              MO Center=  5.2D+00, -2.1D+00,  1.5D+00, r^2= 1.5D+01
   Bfn.  Coefficient  Atom+Function         Bfn.  Coefficient  Atom+Function  
  ----- ------------  ---------------      ----- ------------  ---------------
   645      3.453402  38 N  s               602     -2.963551  36 C  px        
   310     -2.649005  19 C  s               595     -2.372413  36 C  s         
   384     -2.119766  22 H  s               669      1.863858  39 H  s         
   318      1.738937  19 C  py              678      1.694541  40 H  s         
   140     -1.595613   9 C  s               401     -1.589069  23 C  px        

 Vector   83  Occ=0.000000D+00  E= 3.493004D-02
              MO Center= -2.9D+00,  2.2D+00, -9.7D-01, r^2= 3.1D+01
   Bfn.  Coefficient  Atom+Function         Bfn.  Coefficient  Atom+Function  
  ----- ------------  ---------------      ----- ------------  ---------------
   384      3.396329  22 H  s               207     -2.791314  13 H  s         
   317     -2.545044  19 C  px              360      2.502019  21 N  s         
   181     -2.417590  11 C  px                3     -1.971565   1 H  s         
   217      1.981044  14 C  s                56      1.902327   5 C  s         
   130      1.804793   8 H  s               394      1.699662  23 C  s         

 Vector   84  Occ=0.000000D+00  E= 4.008489D-02
              MO Center= -7.3D-01, -1.5D+00, -1.2D+00, r^2= 4.1D+01
   Bfn.  Coefficient  Atom+Function         Bfn.  Coefficient  Atom+Function  
  ----- ------------  ---------------      ----- ------------  ---------------
   495      5.570435  29 H  s               471     -3.190438  28 C  s         
   217     -3.171763  14 C  s               479     -2.920041  28 C  py        
   140      2.451023   9 C  s               174      2.115473  11 C  s         
   576     -2.111998  34 H  s                46     -2.054776   4 H  s         
   198      2.050050  12 H  s                65     -1.998332   5 C  pz        

 Vector   85  Occ=0.000000D+00  E= 4.201603D-02
              MO Center= -1.0D+00, -1.4D+00, -5.7D-01, r^2= 4.6D+01
   Bfn.  Coefficient  Atom+Function         Bfn.  Coefficient  Atom+Function  
  ----- ------------  ---------------      ----- ------------  ---------------
   495      3.392185  29 H  s               267     -3.215526  16 N  s         
   217      3.112616  14 C  s               576     -2.802398  34 H  s         
    65      2.402506   5 C  pz              149      2.200196   9 C  pz        
   317      1.955215  19 C  px              291     -1.908589  17 H  s         
   318     -1.724511  19 C  py                3      1.709821   1 H  s         

 Vector   86  Occ=0.000000D+00  E= 4.797622D-02
              MO Center=  1.6D+00,  2.2D-01, -2.0D-02, r^2= 4.7D+01
   Bfn.  Coefficient  Atom+Function         Bfn.  Coefficient  Atom+Function  
  ----- ------------  ---------------      ----- ------------  ---------------
   384      4.791544  22 H  s                65     -3.375271   5 C  pz        
   147      3.006833   9 C  px               56     -2.899256   5 C  s         
   318     -2.829127  19 C  py              428     -2.523943  25 C  s         
   678      2.534951  40 H  s               436     -2.458820  25 C  py        
   452     -2.431077  26 H  s               198      2.164851  12 H  s         

 Vector   87  Occ=0.000000D+00  E= 5.418426D-02
              MO Center=  1.2D+00, -2.7D+00,  7.8D-01, r^2= 3.6D+01
   Bfn.  Coefficient  Atom+Function         Bfn.  Coefficient  Atom+Function  
  ----- ------------  ---------------      ----- ------------  ---------------
   452      4.521835  26 H  s               471      3.712306  28 C  s         
   418     -3.253638  24 H  s               478     -3.125257  28 C  px        
   384     -3.046224  22 H  s               436      3.022419  25 C  py        
   401      2.777891  23 C  px              515     -2.725341  31 S  s         
   576     -2.527621  34 H  s               504      2.450966  30 H  s         

 Vector   88  Occ=0.000000D+00  E= 5.463714D-02
              MO Center= -2.6D-02,  1.0D+00,  1.4D-01, r^2= 4.5D+01
   Bfn.  Coefficient  Atom+Function         Bfn.  Coefficient  Atom+Function  
[...]
   595      9.045648  36 C  s               113     -8.380045   7 N  px        

 Vector  198  Occ=0.000000D+00  E= 4.396367D-01
              MO Center=  4.9D-01, -6.3D-02, -8.2D-02, r^2= 2.1D+01
   Bfn.  Coefficient  Atom+Function         Bfn.  Coefficient  Atom+Function  
  ----- ------------  ---------------      ----- ------------  ---------------
   217     10.124215  14 C  s               267     -9.859763  16 N  s         
   384     -8.652543  22 H  s               367     -8.478742  21 N  px        
   435      8.109473  25 C  px              149      7.943311   9 C  pz        
   317      7.762839  19 C  px              106      7.372540   7 N  s         
   318     -6.455151  19 C  py              403     -6.329328  23 C  pz        

 Vector  199  Occ=0.000000D+00  E= 4.441463D-01
              MO Center= -2.2D-01,  1.7D-01, -6.4D-01, r^2= 2.3D+01
   Bfn.  Coefficient  Atom+Function         Bfn.  Coefficient  Atom+Function  
  ----- ------------  ---------------      ----- ------------  ---------------
   217     10.576210  14 C  s               360      8.175373  21 N  s         
   106      6.323863   7 N  s               645      5.952762  38 N  s         
   147     -5.458758   9 C  px              267     -5.006854  16 N  s         
   495     -4.872459  29 H  s               480     -4.820317  28 C  pz        
    63      4.235320   5 C  px              317     -3.869152  19 C  px        

 Vector  200  Occ=0.000000D+00  E= 4.486407D-01
              MO Center= -6.3D-01, -2.6D-01, -3.3D-01, r^2= 2.3D+01
   Bfn.  Coefficient  Atom+Function         Bfn.  Coefficient  Atom+Function  
  ----- ------------  ---------------      ----- ------------  ---------------
   267     12.160052  16 N  s               174     -8.875294  11 C  s         
    65      7.669704   5 C  pz              106     -7.644294   7 N  s         
    12     -7.311411   2 C  s               401     -6.981505  23 C  px        
   140     -6.154846   9 C  s               310     -6.165377  19 C  s         
   225      5.791657  14 C  py               56      5.529670   5 C  s         

 Vector  201  Occ=0.000000D+00  E= 4.498572D-01
              MO Center= -9.7D-02, -8.0D-01, -5.6D-01, r^2= 2.2D+01
   Bfn.  Coefficient  Atom+Function         Bfn.  Coefficient  Atom+Function  
  ----- ------------  ---------------      ----- ------------  ---------------
   384     15.044252  22 H  s                56    -13.172789   5 C  s         
   217     12.862102  14 C  s               504     -9.879480  30 H  s         
   267      9.544420  16 N  s               140     -8.068475   9 C  s         
   174     -8.085140  11 C  s               310     -7.369590  19 C  s         
   478      7.185997  28 C  px              595     -6.746914  36 C  s         

 Vector  202  Occ=0.000000D+00  E= 4.515188D-01
              MO Center=  1.5D-02, -1.8D-01, -3.9D-01, r^2= 2.1D+01
   Bfn.  Coefficient  Atom+Function         Bfn.  Coefficient  Atom+Function  
  ----- ------------  ---------------      ----- ------------  ---------------
   595    -17.689333  36 C  s               174     16.447228  11 C  s         
   495     15.343703  29 H  s                56    -14.591965   5 C  s         
   360     14.048812  21 N  s               225    -12.950774  14 C  py        
   147    -12.144499   9 C  px              645     11.741041  38 N  s         
   318     10.936242  19 C  py              217    -10.529962  14 C  s         

 Vector  203  Occ=0.000000D+00  E= 4.534942D-01
              MO Center=  2.0D-01, -6.7D-03, -1.3D-03, r^2= 2.0D+01
   Bfn.  Coefficient  Atom+Function         Bfn.  Coefficient  Atom+Function  
  ----- ------------  ---------------      ----- ------------  ---------------
   217     13.145245  14 C  s               267    -11.743900  16 N  s         
   495    -10.928469  29 H  s               595    -10.891363  36 C  s         
    13      9.085374   2 C  s               360      7.761893  21 N  s         
   140     -6.997839   9 C  s               384      6.682100  22 H  s         
   645      6.385149  38 N  s               471      6.191186  28 C  s         

 Vector  204  Occ=0.000000D+00  E= 4.575310D-01
              MO Center= -4.1D-01, -5.1D-01, -1.1D+00, r^2= 2.2D+01
   Bfn.  Coefficient  Atom+Function         Bfn.  Coefficient  Atom+Function  
  ----- ------------  ---------------      ----- ------------  ---------------
   106      9.380080   7 N  s                56      8.959240   5 C  s         
   595      8.679155  36 C  s               402     -7.935913  23 C  py        
   140      7.895187   9 C  s               360     -7.292078  21 N  s         
   428     -6.889063  25 C  s               174     -6.743592  11 C  s         
   367      6.278767  21 N  px              435     -6.148377  25 C  px        

 Vector  205  Occ=0.000000D+00  E= 4.594593D-01
              MO Center=  1.9D-01,  1.9D-02,  3.0D-01, r^2= 2.3D+01
   Bfn.  Coefficient  Atom+Function         Bfn.  Coefficient  Atom+Function  
  ----- ------------  ---------------      ----- ------------  ---------------
   595     16.145490  36 C  s                13    -14.353397   2 C  s         
   310     12.736004  19 C  s                56     10.493711   5 C  s         
   106     -9.723418   7 N  s               147     -9.572069   9 C  px        
   318      7.851213  19 C  py              149     -7.557160   9 C  pz        
   367     -7.502802  21 N  px              645     -7.279110  38 N  s         

 Vector  206  Occ=0.000000D+00  E= 4.670639D-01
              MO Center= -7.2D-01, -1.0D+00, -5.6D-01, r^2= 2.1D+01
   Bfn.  Coefficient  Atom+Function         Bfn.  Coefficient  Atom+Function  
  ----- ------------  ---------------      ----- ------------  ---------------
   267     17.485576  16 N  s               217    -11.382567  14 C  s         
   471      8.685688  28 C  s               543     -6.489771  32 C  s         
   225      5.811513  14 C  py              147     -5.711001   9 C  px        
    12      5.570947   2 C  s               479      5.558099  28 C  py        
   368      5.380822  21 N  py              595     -5.268032  36 C  s         

 Vector  207  Occ=0.000000D+00  E= 4.694329D-01
              MO Center= -1.7D-01,  3.4D-01, -4.1D-01, r^2= 2.1D+01
   Bfn.  Coefficient  Atom+Function         Bfn.  Coefficient  Atom+Function  
  ----- ------------  ---------------      ----- ------------  ---------------
   217     15.645663  14 C  s               401    -12.309056  23 C  px        
   471    -11.119989  28 C  s               367      9.611437  21 N  px        
   478      9.533856  28 C  px              515      9.337291  31 S  s         
    13     -9.012215   2 C  s               369     -8.077170  21 N  pz        
   403      7.638651  23 C  pz              602      7.237292  36 C  px        

 Vector  208  Occ=0.000000D+00  E= 4.722929D-01
              MO Center= -4.7D-01,  4.1D-01, -2.6D-01, r^2= 2.2D+01
   Bfn.  Coefficient  Atom+Function         Bfn.  Coefficient  Atom+Function  
  ----- ------------  ---------------      ----- ------------  ---------------
   174     19.360682  11 C  s               595    -16.680781  36 C  s         
    13     15.816385   2 C  s                65     12.455196   5 C  pz        
   384     -9.940609  22 H  s               401      9.528883  23 C  px        
    56     -9.187108   5 C  s               173      9.215774  11 C  s         
   206     -9.047825  13 H  s               317      8.823631  19 C  px        

 Vector  209  Occ=0.000000D+00  E= 4.814447D-01
              MO Center=  1.7D-01,  7.0D-01, -6.2D-02, r^2= 2.2D+01
   Bfn.  Coefficient  Atom+Function         Bfn.  Coefficient  Atom+Function  
  ----- ------------  ---------------      ----- ------------  ---------------
   217     15.523875  14 C  s               174     14.371103  11 C  s         
   471    -13.592098  28 C  s                56    -12.775102   5 C  s         
   106    -11.474543   7 N  s               515     10.379402  31 S  s         
   495     -9.725596  29 H  s               479      9.377288  28 C  py        
   206     -9.221059  13 H  s               318      9.243471  19 C  py        

 Vector  210  Occ=0.000000D+00  E= 4.838209D-01
              MO Center=  4.7D-01,  8.2D-01, -2.6D-01, r^2= 2.2D+01
   Bfn.  Coefficient  Atom+Function         Bfn.  Coefficient  Atom+Function  
  ----- ------------  ---------------      ----- ------------  ---------------
   217     24.817285  14 C  s                13     18.465341   2 C  s         
   267    -17.978687  16 N  s               140    -15.990284   9 C  s         
   310    -11.566424  19 C  s               595    -11.170179  36 C  s         
    65      9.812815   5 C  pz              384     -9.214847  22 H  s         
   147      7.744948   9 C  px              113     -7.607448   7 N  px        

 Vector  211  Occ=0.000000D+00  E= 4.861966D-01
              MO Center=  8.3D-02,  1.8D-03, -6.0D-03, r^2= 2.0D+01
   Bfn.  Coefficient  Atom+Function         Bfn.  Coefficient  Atom+Function  
  ----- ------------  ---------------      ----- ------------  ---------------
   267     13.137206  16 N  s               360    -12.519538  21 N  s         
   173      8.219876  11 C  s               115      7.935973   7 N  pz        
    13      7.709087   2 C  s               367      7.442947  21 N  px        
   217     -6.520464  14 C  s               384     -6.442488  22 H  s         
   402     -5.649830  23 C  py              148     -5.609075   9 C  py        

 Vector  212  Occ=0.000000D+00  E= 4.895169D-01
              MO Center= -4.7D-01,  1.9D-02, -4.2D-01, r^2= 2.2D+01
   Bfn.  Coefficient  Atom+Function         Bfn.  Coefficient  Atom+Function  
  ----- ------------  ---------------      ----- ------------  ---------------
    13     11.348266   2 C  s               471    -10.438328  28 C  s         
   174      9.879357  11 C  s               360     -9.639525  21 N  s         
   173      9.168240  11 C  s               217      7.632917  14 C  s         
   318     -7.242630  19 C  py               56     -7.074235   5 C  s         
   495      6.970033  29 H  s               197     -6.762007  12 H  s         

 Vector  213  Occ=0.000000D+00  E= 4.951429D-01
              MO Center= -5.1D-01,  3.5D-02, -2.3D-01, r^2= 2.1D+01
   Bfn.  Coefficient  Atom+Function         Bfn.  Coefficient  Atom+Function  
  ----- ------------  ---------------      ----- ------------  ---------------
   317     15.869886  19 C  px              318    -15.240608  19 C  py        
    13     13.878046   2 C  s               595    -11.540711  36 C  s         
   369    -11.227158  21 N  pz              149     10.970786   9 C  pz        
   543     10.157535  32 C  s                56     -9.448299   5 C  s         
   174      9.359666  11 C  s               401      8.892725  23 C  px        

 Vector  214  Occ=0.000000D+00  E= 5.000286D-01
              MO Center= -2.7D-01, -4.9D-01, -8.5D-01, r^2= 2.0D+01
   Bfn.  Coefficient  Atom+Function         Bfn.  Coefficient  Atom+Function  
  ----- ------------  ---------------      ----- ------------  ---------------
   217     25.134181  14 C  s               267    -13.415753  16 N  s         
   360     11.233992  21 N  s               543     10.343199  32 C  s         
   495     -9.941226  29 H  s               645      9.185719  38 N  s         
   595     -8.488175  36 C  s                56     -8.191316   5 C  s         
   140     -7.678157   9 C  s               402     -7.418479  23 C  py        


 center of mass
 --------------
 x =   0.01060349 y =   0.02203294 z =   0.03854092

 moments of inertia (a.u.)
 ------------------
        6648.368907854610           0.000000000001           0.000000000001
           0.000000000001        5613.482539998098          -0.000000000002
           0.000000000001          -0.000000000002        8998.845949914146

  Mulliken analysis of the total density
  --------------------------------------

    Atom       Charge   Shell Charges
 -----------   ------   -------------------------------------------------------
    1 H    1     0.82   0.76  0.09  0.00  0.03 -0.07
    2 C    6     6.45   2.01  0.66  0.36  0.20  2.07  0.99 -0.02  0.06  0.13
    3 H    1     0.97   0.76  0.23  0.01  0.03 -0.07
    4 H    1     0.82   0.76  0.08  0.01  0.03 -0.07
    5 C    6     5.22   2.01  0.68  0.11 -0.08  1.90  0.37 -0.00  0.24 -0.01
    6 O    8     8.76   2.01  0.82  1.00  0.17  2.79  1.83  0.15  0.01 -0.02
    7 N    7     7.62   2.01  0.72  0.78 -0.08  2.46  1.43  0.25  0.05  0.01
    8 H    1     0.88   0.75  0.14 -0.01  0.06 -0.05
    9 C    6     6.22   2.01  0.66 -0.05  0.01  1.99  1.33  0.10  0.14  0.03
   10 H    1     1.05   0.78  0.23  0.02  0.03 -0.00
   11 C    6     6.51   2.01  0.66  0.85 -0.14  2.06  0.84 -0.05  0.09  0.19
   12 H    1     0.83   0.77  0.11 -0.02  0.03 -0.06
   13 H    1     0.82   0.77  0.11 -0.01  0.03 -0.09
   14 C    6     4.59   2.01  0.68  0.02  0.05  1.91 -0.23  0.00  0.24 -0.10
   15 O    8     8.88   2.01  0.82  1.03  0.20  2.80  1.87  0.14  0.02 -0.00
   16 N    7     7.14   2.01  0.72  0.76 -0.14  2.47  1.25  0.06  0.04 -0.02
   17 H    1     0.88   0.74  0.16 -0.02  0.06 -0.06
   18 H    1     0.94   0.75  0.18 -0.00  0.06 -0.04
   19 C    6     4.78   2.01  0.68  0.15  0.01  1.88  0.04  0.03  0.24 -0.27
   20 O    8     8.97   2.01  0.82  1.05  0.23  2.79  1.88  0.18  0.01  0.00
   21 N    7     7.28   2.01  0.72  0.83 -0.15  2.45  1.42 -0.09  0.05  0.04
   22 H    1     0.92   0.75  0.23 -0.04  0.06 -0.07
   23 C    6     6.12   2.01  0.66  0.28 -0.08  2.00  1.16 -0.02  0.14 -0.02
   24 H    1     1.27   0.78  0.44  0.01  0.03  0.01
   25 C    6     5.82   2.01  0.66  0.44 -0.11  2.03  0.57  0.09  0.09  0.04
   26 H    1     1.04   0.79  0.30  0.00  0.03 -0.08
   27 H    1     1.02   0.78  0.34 -0.05  0.03 -0.08
   28 C    6     6.21   2.01  0.66  0.36 -0.00  2.00  0.88  0.20  0.10  0.01
   29 H    1     1.00   0.78  0.28 -0.08  0.03 -0.01
   30 H    1     1.05   0.78  0.28 -0.00  0.03 -0.03
   31 S   16    15.46   2.00  2.03  0.86  0.74  0.06  6.00  2.31  1.47  0.08  0.13 -0.21
   32 C    6     5.76   2.01  0.65  0.36 -0.12  2.00  0.85 -0.02  0.07 -0.04
   33 H    1     1.03   0.76  0.25  0.02  0.03 -0.03
   34 H    1     1.20   0.76  0.47 -0.01  0.03 -0.04
   35 H    1     1.17   0.75  0.35  0.03  0.03  0.01
   36 C    6     4.46   2.01  0.68 -0.01  0.07  1.89 -0.19  0.00  0.23 -0.22
   37 O    8     8.82   2.01  0.82  1.03  0.17  2.79  1.86  0.13  0.01 -0.00
   38 N    7     7.27   2.01  0.72  0.82 -0.12  2.46  1.28  0.08  0.04 -0.02
   39 H    1     0.97   0.76  0.21 -0.01  0.05 -0.04
   40 H    1     0.96   0.75  0.19 -0.01  0.05 -0.02

       Multipole analysis of the density wrt the origin
       ------------------------------------------------

     L   x y z        total         open         nuclear
     -   - - -        -----         ----         -------
     0   0 0 0     -0.000000      0.000000    162.000000

     1   1 0 0      0.360453      0.000000      0.000000
     1   0 1 0     -0.950256      0.000000     -0.000000
     1   0 0 1      0.126900      0.000000      0.000000

     2   2 0 0    -83.819308      0.000000   2163.041471
     2   1 1 0    -12.942971      0.000000    -18.969768
     2   1 0 1      3.066087      0.000000     11.573027
     2   0 2 0   -102.398170      0.000000   2708.457336
     2   0 1 1     -3.992291      0.000000    -13.135398
     2   0 0 2    -96.033677      0.000000    934.320011


 Task  times  cpu:     6555.7s     wall:     6578.3s


                                NWChem Input Module
                                -------------------


 Summary of allocated global arrays
-----------------------------------
  No active global arrays


MA_summarize_allocated_blocks: starting scan ...
MA_summarize_allocated_blocks: scan completed: 0 heap blocks, 0 stack blocks
MA usage statistics:

	allocation statistics:
					      heap	     stack
					      ----	     -----
	current number of blocks	         0	         0
	maximum number of blocks	        16	        14
	current total bytes		         0	         0
	maximum total bytes		    156840	  37111432
	maximum total K-bytes		       157	     37112
	maximum total M-bytes		         1	        38


                                     CITATION
                                     --------
                Please cite the following reference when publishing
                           results obtained with NWChem:

          E. Apra, E. J. Bylaska, W. A. de Jong, N. Govind, K. Kowalski,
       T. P. Straatsma, M. Valiev, H. J. J. van Dam, Y. Alexeev, J. Anchell,
       V. Anisimov, F. W. Aquino, R. Atta-Fynn, J. Autschbach, N. P. Bauman,
     J. C. Becca, D. E. Bernholdt, K. Bhaskaran-Nair, S. Bogatko, P. Borowski,
         J. Boschen, J. Brabec, A. Bruner, E. Cauet, Y. Chen, G. N. Chuev,
      C. J. Cramer, J. Daily, M. J. O. Deegan, T. H. Dunning Jr., M. Dupuis,
   K. G. Dyall, G. I. Fann, S. A. Fischer, A. Fonari, H. Fruchtl, L. Gagliardi,
      J. Garza, N. Gawande, S. Ghosh, K. Glaesemann, A. W. Gotz, J. Hammond,
       V. Helms, E. D. Hermes, K. Hirao, S. Hirata, M. Jacquelin, L. Jensen,
   B. G. Johnson, H. Jonsson, R. A. Kendall, M. Klemm, R. Kobayashi, V. Konkov,
      S. Krishnamoorthy, M. Krishnan, Z. Lin, R. D. Lins, R. J. Littlefield,
      A. J. Logsdail, K. Lopata, W. Ma, A. V. Marenich, J. Martin del Campo,
   D. Mejia-Rodriguez, J. E. Moore, J. M. Mullin, T. Nakajima, D. R. Nascimento,
    J. A. Nichols, P. J. Nichols, J. Nieplocha, A. Otero-de-la-Roza, B. Palmer,
    A. Panyala, T. Pirojsirikul, B. Peng, R. Peverati, J. Pittner, L. Pollack,
   R. M. Richard, P. Sadayappan, G. C. Schatz, W. A. Shelton, D. W. Silverstein,
   D. M. A. Smith, T. A. Soares, D. Song, M. Swart, H. L. Taylor, G. S. Thomas,
            V. Tipparaju, D. G. Truhlar, K. Tsemekhman, T. Van Voorhis,
      A. Vazquez-Mayagoitia, P. Verma, O. Villa, A. Vishnu, K. D. Vogiatzis,
        D. Wang, J. H. Weare, M. J. Williamson, T. L. Windus, K. Wolinski,
        A. T. Wong, Q. Wu, C. Yang, Q. Yu, M. Zacharias, Z. Zhang, Y. Zhao,
                                and R. J. Harrison
                        "NWChem: Past, present, and future
                         J. Chem. Phys. 152, 184102 (2020)
                               doi:10.1063/5.0004997

                                      AUTHORS
                                      -------
  E. Apra, E. J. Bylaska, N. Govind, K. Kowalski, M. Valiev, D. Mejia-Rodriguez,
       A. Kunitsa, N. P. Bauman, A. Panyala, W. A. de Jong, T. P. Straatsma,
   H. J. J. van Dam, D. Wang, T. L. Windus, J. Hammond, J. Autschbach, A. Woods,
    K. Bhaskaran-Nair, J. Brabec, K. Lopata, S. A. Fischer, S. Krishnamoorthy,
     M. Jacquelin, W. Ma, M. Klemm, O. Villa, Y. Chen, V. Anisimov, F. Aquino,
     S. Hirata, M. T. Hackler, E. Hermes, L. Jensen, J. E. Moore, J. C. Becca,
      V. Konjkov, T. Risthaus, M. Malagoli, A. Marenich, A. Otero-de-la-Roza,
        J. Mullin, P. Nichols, R. Peverati, J. Pittner, Y. Zhao, P.-D. Fan,
        A. Fonari, M. J. Williamson, R. J. Harrison, J. R. Rehr, M. Dupuis,
     D. Silverstein, D. M. A. Smith, J. Nieplocha, V. Tipparaju, M. Krishnan,
     B. E. Van Kuiken, A. Vazquez-Mayagoitia, M. Swart, Q. Wu, T. Van Voorhis,
     A. A. Auer, M. Nooijen, L. D. Crosby, E. Brown, G. Cisneros, G. I. Fann,
   H. Fruchtl, J. Garza, K. Hirao, R. A. Kendall, J. A. Nichols, K. Tsemekhman,
    K. Wolinski, J. Anchell, D. E. Bernholdt, P. Borowski, T. Clark, D. Clerc,
   H. Dachsel, M. J. O. Deegan, K. Dyall, D. Elwood, E. Glendening, M. Gutowski,
   A. C. Hess, J. Jaffe, B. G. Johnson, J. Ju, R. Kobayashi, R. Kutteh, Z. Lin,
   R. Littlefield, X. Long, B. Meng, T. Nakajima, S. Niu, L. Pollack, M. Rosing,
   K. Glaesemann, G. Sandrone, M. Stave, H. Taylor, G. Thomas, J. H. van Lenthe,
                               A. T. Wong, Z. Zhang.

 Total times  cpu:     6555.8s     wall:     6578.8s
