export TMOUT=5400
export TMPDIR=/tmp
export PTMPDIR=/tmp/ptmp
 argument  1 = inputs/ASP_CYS_2.nw



============================== echo of input deck ==============================
start ASP_CYS_2
geometry
H          7.91500        8.29500        3.04400
C          7.28200        7.42500        2.88400
H          6.57400        7.62200        2.08000
H          6.74100        7.18300        3.79600
C          8.14500        6.24900        2.49900
O          9.36100        6.37500        2.43100
N          7.50100        5.12000        2.23000
H          6.48400        5.12800        2.27300
C          8.10700        3.84600        1.80800
H          8.74600        3.47000        2.60700
C          6.97400        2.83000        1.56200
H          7.35000        1.98700        0.97800
H          6.63900        2.44500        2.52700
C          5.78000        3.48000        0.85100
O          4.92300        4.03200        1.57500
O          5.81600        3.56000       -0.39600
C          8.98900        3.98500        0.55200
O         10.15500        3.59200        0.56400
N          8.46300        4.59700       -0.51100
H          7.45600        4.73000       -0.50800
C          9.19500        4.92200       -1.73800
H          9.81100        4.06100       -2.00000
C          8.18100        5.14500       -2.87100
H          7.49000        5.94400       -2.59700
H          8.71600        5.43800       -3.77600
S          7.25000        3.62100       -3.21300
H          6.56600        3.56400       -2.04800
C         10.16800        6.11700       -1.59400
O         10.67800        6.63000       -2.58800
N         10.43300        6.61800       -0.39300
H         10.04200        6.18700        0.43600
H         11.06900        7.39100       -0.32100
end

basis
 * library aug-cc-pvdz
end

echo

scf
 direct
end

task scf energy
================================================================================


                                         
                                         


             Northwest Computational Chemistry Package (NWChem) 7.2.0
             --------------------------------------------------------


                    Environmental Molecular Sciences Laboratory
                       Pacific Northwest National Laboratory
                                Richland, WA 99352

                              Copyright (c) 1994-2022
                       Pacific Northwest National Laboratory
                            Battelle Memorial Institute

             NWChem is an open-source computational chemistry package
                        distributed under the terms of the
                      Educational Community License (ECL) 2.0
             A copy of the license is included with this distribution
                              in the LICENSE.TXT file

                                  ACKNOWLEDGMENT
                                  --------------

            This software and its documentation were developed at the
            EMSL at Pacific Northwest National Laboratory, a multiprogram
            national laboratory, operated for the U.S. Department of Energy
            by Battelle under Contract Number DE-AC05-76RL01830. Support
            for this work was provided by the Department of Energy Office
            of Biological and Environmental Research, Office of Basic
            Energy Sciences, and the Office of Advanced Scientific Computing.


           Job information
           ---------------

    hostname        = nova21-swift-3
    program         = /opt/rit/el9/20230413/app/linux-rhel9-x86_64_v3/gcc-11.2.1/nwchem-7.2.0-oxtctbuhfuzyfaoziquq6bki22grib3g/bin/nwchem
    date            = Thu Jul 10 22:20:18 2025

    compiled        = Wed_May_17_23:46:39_2023
    source          = /tmp/root/spack-stage/spack-stage-nwchem-7.2.0-oxtctbuhfuzyfaoziquq6bki22grib3g/spack-src
    nwchem branch   = 7.2.0
    nwchem revision = d0d141fd
    ga revision     = 5.8.0
    use scalapack   = T
    input           = inputs/ASP_CYS_2.nw
    prefix          = ASP_CYS_2.
    data base       = ./ASP_CYS_2.db
    status          = startup
    nproc           =        8
    time left       =     -1s



           Memory information
           ------------------

    heap     =   26214396 doubles =    200.0 Mbytes
    stack    =   26214401 doubles =    200.0 Mbytes
    global   =   52428800 doubles =    400.0 Mbytes (distinct from heap & stack)
    total    =  104857597 doubles =    800.0 Mbytes
    verify   = yes
    hardfail = no 


           Directory information
           ---------------------

  0 permanent = .
  0 scratch   = .




                                NWChem Input Module
                                -------------------



 Scaling coordinates for geometry "geometry" by  1.889725989
 (inverse scale =  0.529177249)

 C1  symmetry detected

          ------
          auto-z
          ------
  no constraints, skipping    0.0000000000000000     
  no constraints, skipping    0.0000000000000000     


                             Geometry "geometry" -> ""
                             -------------------------

 Output coordinates in angstroms (scale by  1.889725989 to convert to a.u.)

  No.       Tag          Charge          X              Y              Z
 ---- ---------------- ---------- -------------- -------------- --------------
    1 H                    1.0000     2.94543195     2.82948365    -2.11215129
    2 C                    6.0000     1.89840750     2.93785783    -1.83795458
    3 H                    1.0000     1.26588070     2.46358507    -2.58726373
    4 H                    1.0000     1.64019167     3.99120716    -1.75568209
    5 C                    6.0000     1.66390014     2.26992139    -0.50572442
    6 O                    8.0000     2.59391646     1.73916910     0.08801598
    7 N                    7.0000     0.41354340     2.28588449    -0.06065006
    8 H                    1.0000    -0.29769842     2.71519981    -0.64888932
    9 C                    6.0000    -0.07795313     1.68379137     1.19007415
   10 H                    1.0000     0.39168182     2.18267908     2.03780764
   11 C                    6.0000    -1.60136697     1.90662531     1.26763894
   12 H                    1.0000    -2.03843674     1.23633997     2.01112302
   13 H                    1.0000    -1.78484596     2.93220916     1.59350430
   14 C                    6.0000    -2.27075939     1.69741969    -0.09684037
   15 O                    8.0000    -2.31741009     2.68586182    -0.86112754
   16 O                    8.0000    -2.57925709     0.53073715    -0.42300906
   17 C                    6.0000     0.25447965     0.18367839     1.30810165
   18 O                    8.0000     0.84896262    -0.24593910     2.29611370
   19 N                    7.0000    -0.06798598    -0.60600342     0.28164778
   20 H                    1.0000    -0.70626978    -0.21941026    -0.40747233
   21 C                    6.0000     0.28202100    -2.02475200     0.17382581
   22 H                    1.0000     0.10509188    -2.48935194     1.14452864
   23 C                    6.0000    -0.65514630    -2.68600749    -0.84895110
   24 H                    1.0000    -0.56706019    -2.18061752    -1.81216438
   25 H                    1.0000    -0.36720699    -3.73138800    -0.97292507
   26 S                   16.0000    -2.38070159    -2.62132106    -0.27923572
   27 H                    1.0000    -2.54791253    -1.28240393    -0.36682243
   28 C                    6.0000     1.77108890    -2.28326245    -0.15984939
   29 O                    8.0000     2.15114504    -3.40468669    -0.49040951
   30 N                    7.0000     2.64438432    -1.28346805    -0.12252302
   31 H                    1.0000     2.35007735    -0.36130685     0.17561308
   32 H                    1.0000     3.60582459    -1.47274998    -0.33935004

      Atomic Mass 
      ----------- 

      H                  1.007825
      C                 12.000000
      O                 15.994910
      N                 14.003070
      S                 31.972070


 Effective nuclear repulsion energy (a.u.)    1584.7233575160

            Nuclear Dipole moment (a.u.) 
            ----------------------------
        X                 Y               Z
 ---------------- ---------------- ----------------
    -0.0000000000    -0.0000000000     0.0000000000



                                Z-matrix (autoz)
                                -------- 

 Units are Angstrom for bonds and degrees for angles

      Type          Name      I     J     K     L     M      Value
      ----------- --------  ----- ----- ----- ----- ----- ----------
    1 Stretch                  1     2                       1.08774
    2 Stretch                  2     3                       1.08926
    3 Stretch                  2     4                       1.08765
    4 Stretch                  2     5                       1.50863
    5 Stretch                  5     6                       1.22440
    6 Stretch                  5     7                       1.32730
    7 Stretch                  7     8                       1.01794
    8 Stretch                  7     9                       1.47255
    9 Stretch                  9    10                       1.09000
   10 Stretch                  9    11                       1.54158
   11 Stretch                  9    17                       1.54103
   12 Stretch                 11    12                       1.09228
   13 Stretch                 11    13                       1.09164
   14 Stretch                 11    14                       1.53416
   15 Stretch                 14    15                       1.25033
   16 Stretch                 14    16                       1.25008
   17 Stretch                 17    18                       1.23051
   18 Stretch                 17    19                       1.33461
   19 Stretch                 19    20                       1.01575
   20 Stretch                 19    21                       1.46526
   21 Stretch                 21    22                       1.09061
   22 Stretch                 21    23                       1.53675
   23 Stretch                 21    28                       1.54774
   24 Stretch                 23    24                       1.09131
   25 Stretch                 23    25                       1.09137
   26 Stretch                 23    26                       1.81832
   27 Stretch                 26    27                       1.35216
   28 Stretch                 28    29                       1.22935
   29 Stretch                 28    30                       1.32802
   30 Stretch                 30    31                       1.01286
   31 Stretch                 30    32                       1.00360
   32 Bend                     1     2     3               110.00904
   33 Bend                     1     2     4               110.12543
   34 Bend                     1     2     5               109.15448
   35 Bend                     2     5     6               120.13718
   36 Bend                     2     5     7               115.92669
   37 Bend                     3     2     4               109.62423
   38 Bend                     3     2     5               108.93113
   39 Bend                     4     2     5               108.97034
   40 Bend                     5     7     8               118.00183
   41 Bend                     5     7     9               126.46381
   42 Bend                     6     5     7               123.92741
   43 Bend                     7     9    10               109.24628
   44 Bend                     7     9    11               108.26865
   45 Bend                     7     9    17               113.02123
   46 Bend                     8     7     9               115.47116
   47 Bend                     9    11    12               109.93619
   48 Bend                     9    11    13               108.47667
   49 Bend                     9    11    14               111.51357
   50 Bend                     9    17    18               120.37007
   51 Bend                     9    17    19               117.70732
   52 Bend                    10     9    11               108.69256
   53 Bend                    10     9    17               107.03946
   54 Bend                    11     9    17               110.48955
   55 Bend                    11    14    15               116.88084
   56 Bend                    11    14    16               117.83995
   57 Bend                    12    11    13               107.82325
   58 Bend                    12    11    14               110.31080
   59 Bend                    13    11    14               108.67933
   60 Bend                    15    14    16               124.68780
   61 Bend                    17    19    20               116.64221
   62 Bend                    17    19    21               124.87533
   63 Bend                    18    17    19               121.84906
   64 Bend                    19    21    22               107.95274
   65 Bend                    19    21    23               108.65920
   66 Bend                    19    21    28               114.04183
   67 Bend                    20    19    21               117.94985
   68 Bend                    21    23    24               109.81161
   69 Bend                    21    23    25               109.07876
   70 Bend                    21    23    26               110.78655
   71 Bend                    21    28    29               120.51500
   72 Bend                    21    28    30               120.05712
   73 Bend                    22    21    23               108.06725
   74 Bend                    22    21    28               106.07018
   75 Bend                    23    21    28               111.79984
   76 Bend                    23    26    27                97.60161
   77 Bend                    24    23    25               108.78579
   78 Bend                    24    23    26               109.67382
   79 Bend                    25    23    26               108.66523
   80 Bend                    28    30    31               120.17410
   81 Bend                    28    30    32               118.81013
   82 Bend                    29    28    30               119.40734
   83 Bend                    31    30    32               120.90885
   84 Torsion                  1     2     5     6           1.00243
   85 Torsion                  1     2     5     7        -177.96495
   86 Torsion                  2     5     7     8           1.76000
   87 Torsion                  2     5     7     9         178.72564
   88 Torsion                  3     2     5     6         121.13943
   89 Torsion                  3     2     5     7         -57.82795
   90 Torsion                  4     2     5     6        -119.29977
   91 Torsion                  4     2     5     7          61.73285
   92 Torsion                  5     7     9    10          63.77829
   93 Torsion                  5     7     9    11        -178.00963
   94 Torsion                  5     7     9    17         -55.27281
   95 Torsion                  6     5     7     8        -177.16372
   96 Torsion                  6     5     7     9          -0.19808
   97 Torsion                  7     9    11    12         163.45195
   98 Torsion                  7     9    11    13         -78.87109
   99 Torsion                  7     9    11    14          40.77749
  100 Torsion                  7     9    17    18         125.91270
  101 Torsion                  7     9    17    19         -51.02589
  102 Torsion                  8     7     9    10        -119.18922
  103 Torsion                  8     7     9    11          -0.97715
  104 Torsion                  8     7     9    17         121.75967
  105 Torsion                  9    11    14    15         -86.86227
  106 Torsion                  9    11    14    16          84.73980
  107 Torsion                  9    17    19    20         -14.39059
  108 Torsion                  9    17    19    21         174.18130
  109 Torsion                 10     9    11    12         -77.98379
  110 Torsion                 10     9    11    13          39.69317
  111 Torsion                 10     9    11    14         159.34175
  112 Torsion                 10     9    17    18           5.59296
  113 Torsion                 10     9    17    19        -171.34563
  114 Torsion                 11     9    17    18        -112.59522
  115 Torsion                 11     9    17    19          70.46620
  116 Torsion                 12    11     9    17          39.18856
  117 Torsion                 12    11    14    15         150.67816
  118 Torsion                 12    11    14    16         -37.71977
  119 Torsion                 13    11     9    17         156.86551
  120 Torsion                 13    11    14    15          32.66635
  121 Torsion                 13    11    14    16        -155.73159
  122 Torsion                 14    11     9    17         -83.48591
  123 Torsion                 17    19    21    22          43.13508
  124 Torsion                 17    19    21    23         160.10391
  125 Torsion                 17    19    21    28         -74.45642
  126 Torsion                 18    17    19    20         168.71893
  127 Torsion                 18    17    19    21          -2.70918
  128 Torsion                 19    21    23    24          57.98012
  129 Torsion                 19    21    23    25         177.10952
  130 Torsion                 19    21    23    26         -63.31921
  131 Torsion                 19    21    28    29        -168.16057
  132 Torsion                 19    21    28    30          10.18129
  133 Torsion                 20    19    21    22        -128.19069
  134 Torsion                 20    19    21    23         -11.22187
  135 Torsion                 20    19    21    28         114.21781
  136 Torsion                 21    23    26    27          67.50860
  137 Torsion                 21    28    30    31           3.52759
  138 Torsion                 21    28    30    32         179.80264
  139 Torsion                 22    21    23    24         174.87566
  140 Torsion                 22    21    23    25         -65.99493
  141 Torsion                 22    21    23    26          53.57634
  142 Torsion                 22    21    28    29          73.17053
  143 Torsion                 22    21    28    30        -108.48761
  144 Torsion                 23    21    28    29         -44.39885
  145 Torsion                 23    21    28    30         133.94300
  146 Torsion                 24    23    21    28         -68.76020
  147 Torsion                 24    23    26    27         -53.87194
  148 Torsion                 25    23    21    28          50.36920
  149 Torsion                 25    23    26    27        -172.67226
  150 Torsion                 26    23    21    28         169.94047
  151 Torsion                 29    28    30    31        -178.11217
  152 Torsion                 29    28    30    32          -1.83711


            XYZ format geometry
            -------------------
    32
 geometry
 H                     2.94543195     2.82948365    -2.11215129
 C                     1.89840750     2.93785783    -1.83795458
 H                     1.26588070     2.46358507    -2.58726373
 H                     1.64019167     3.99120716    -1.75568209
 C                     1.66390014     2.26992139    -0.50572442
 O                     2.59391646     1.73916910     0.08801598
 N                     0.41354340     2.28588449    -0.06065006
 H                    -0.29769842     2.71519981    -0.64888932
 C                    -0.07795313     1.68379137     1.19007415
 H                     0.39168182     2.18267908     2.03780764
 C                    -1.60136697     1.90662531     1.26763894
 H                    -2.03843674     1.23633997     2.01112302
 H                    -1.78484596     2.93220916     1.59350430
 C                    -2.27075939     1.69741969    -0.09684037
 O                    -2.31741009     2.68586182    -0.86112754
 O                    -2.57925709     0.53073715    -0.42300906
 C                     0.25447965     0.18367839     1.30810165
 O                     0.84896262    -0.24593910     2.29611370
 N                    -0.06798598    -0.60600342     0.28164778
 H                    -0.70626978    -0.21941026    -0.40747233
 C                     0.28202100    -2.02475200     0.17382581
 H                     0.10509188    -2.48935194     1.14452864
 C                    -0.65514630    -2.68600749    -0.84895110
 H                    -0.56706019    -2.18061752    -1.81216438
 H                    -0.36720699    -3.73138800    -0.97292507
 S                    -2.38070159    -2.62132106    -0.27923572
 H                    -2.54791253    -1.28240393    -0.36682243
 C                     1.77108890    -2.28326245    -0.15984939
 O                     2.15114504    -3.40468669    -0.49040951
 N                     2.64438432    -1.28346805    -0.12252302
 H                     2.35007735    -0.36130685     0.17561308
 H                     3.60582459    -1.47274998    -0.33935004

 ==============================================================================
                                internuclear distances
 ------------------------------------------------------------------------------
       center one      |      center two      | atomic units |  angstroms
 ------------------------------------------------------------------------------
    2 C                |   1 H                |     2.05554  |     1.08774
    3 H                |   2 C                |     2.05840  |     1.08926
    4 H                |   2 C                |     2.05537  |     1.08765
    5 C                |   2 C                |     2.85090  |     1.50863
    6 O                |   5 C                |     2.31378  |     1.22440
    7 N                |   5 C                |     2.50824  |     1.32730
    8 H                |   7 N                |     1.92363  |     1.01794
    9 C                |   7 N                |     2.78271  |     1.47255
   10 H                |   9 C                |     2.05980  |     1.09000
   11 C                |   9 C                |     2.91316  |     1.54158
   12 H                |  11 C                |     2.06411  |     1.09228
   13 H                |  11 C                |     2.06290  |     1.09164
   14 C                |  11 C                |     2.89915  |     1.53416
   15 O                |  14 C                |     2.36278  |     1.25033
   16 O                |  14 C                |     2.36231  |     1.25008
   17 C                |   9 C                |     2.91213  |     1.54103
   18 O                |  17 C                |     2.32532  |     1.23051
   19 N                |  17 C                |     2.52205  |     1.33461
   20 H                |  19 N                |     1.91949  |     1.01575
   21 C                |  19 N                |     2.76893  |     1.46526
   22 H                |  21 C                |     2.06095  |     1.09061
   23 C                |  21 C                |     2.90404  |     1.53675
   24 H                |  23 C                |     2.06228  |     1.09131
   25 H                |  23 C                |     2.06240  |     1.09137
   26 S                |  23 C                |     3.43613  |     1.81832
   27 H                |  26 S                |     2.55521  |     1.35216
   28 C                |  21 C                |     2.92480  |     1.54774
   29 O                |  28 C                |     2.32314  |     1.22935
   30 N                |  28 C                |     2.50959  |     1.32802
   31 H                |  30 N                |     1.91403  |     1.01286
   32 H                |  30 N                |     1.89653  |     1.00360
 ------------------------------------------------------------------------------
                         number of included internuclear distances:         31
 ==============================================================================



 ==============================================================================
                                 internuclear angles
 ------------------------------------------------------------------------------
        center 1       |       center 2       |       center 3       |  degrees
 ------------------------------------------------------------------------------
    1 H                |   2 C                |   3 H                |   110.01
    1 H                |   2 C                |   4 H                |   110.13
    1 H                |   2 C                |   5 C                |   109.15
    3 H                |   2 C                |   4 H                |   109.62
    3 H                |   2 C                |   5 C                |   108.93
    4 H                |   2 C                |   5 C                |   108.97
    2 C                |   5 C                |   6 O                |   120.14
    2 C                |   5 C                |   7 N                |   115.93
    6 O                |   5 C                |   7 N                |   123.93
    5 C                |   7 N                |   8 H                |   118.00
    5 C                |   7 N                |   9 C                |   126.46
    8 H                |   7 N                |   9 C                |   115.47
    7 N                |   9 C                |  10 H                |   109.25
    7 N                |   9 C                |  11 C                |   108.27
    7 N                |   9 C                |  17 C                |   113.02
   10 H                |   9 C                |  11 C                |   108.69
   10 H                |   9 C                |  17 C                |   107.04
   11 C                |   9 C                |  17 C                |   110.49
    9 C                |  11 C                |  12 H                |   109.94
    9 C                |  11 C                |  13 H                |   108.48
    9 C                |  11 C                |  14 C                |   111.51
   12 H                |  11 C                |  13 H                |   107.82
   12 H                |  11 C                |  14 C                |   110.31
   13 H                |  11 C                |  14 C                |   108.68
   11 C                |  14 C                |  15 O                |   116.88
   11 C                |  14 C                |  16 O                |   117.84
   15 O                |  14 C                |  16 O                |   124.69
    9 C                |  17 C                |  18 O                |   120.37
    9 C                |  17 C                |  19 N                |   117.71
   18 O                |  17 C                |  19 N                |   121.85
   17 C                |  19 N                |  20 H                |   116.64
   17 C                |  19 N                |  21 C                |   124.88
   20 H                |  19 N                |  21 C                |   117.95
   19 N                |  21 C                |  22 H                |   107.95
   19 N                |  21 C                |  23 C                |   108.66
   19 N                |  21 C                |  28 C                |   114.04
   22 H                |  21 C                |  23 C                |   108.07
   22 H                |  21 C                |  28 C                |   106.07
   23 C                |  21 C                |  28 C                |   111.80
   21 C                |  23 C                |  24 H                |   109.81
   21 C                |  23 C                |  25 H                |   109.08
   21 C                |  23 C                |  26 S                |   110.79
   24 H                |  23 C                |  25 H                |   108.79
   24 H                |  23 C                |  26 S                |   109.67
   25 H                |  23 C                |  26 S                |   108.67
   23 C                |  26 S                |  27 H                |    97.60
   21 C                |  28 C                |  29 O                |   120.52
   21 C                |  28 C                |  30 N                |   120.06
   29 O                |  28 C                |  30 N                |   119.41
   28 C                |  30 N                |  31 H                |   120.17
   28 C                |  30 N                |  32 H                |   118.81
   31 H                |  30 N                |  32 H                |   120.91
 ------------------------------------------------------------------------------
                            number of included internuclear angles:         52
 ==============================================================================



  library name resolved from: environment
  library file name is: </opt/rit/el9/20230413/app/linux-rhel9-x86_64_v3/gcc-11.2.1/nwchem-7.2.0-oxtctbuhfuzyfaoziquq6bki22grib3g/share/nwchem/libraries/>
  


 Summary of "ao basis" -> "" (cartesian)
 ------------------------------------------------------------------------------
       Tag                 Description            Shells   Functions and Types
 ---------------- ------------------------------  ------  ---------------------
 *                        aug-cc-pvdz                 on all atoms 


                      Basis "ao basis" -> "ao basis" (cartesian)
                      -----
  H (Hydrogen)
  ------------
            Exponent  Coefficients 
       -------------- ---------------------------------------------------------
  1 S  1.30100000E+01  0.019685
  1 S  1.96200000E+00  0.137977
  1 S  4.44600000E-01  0.478148

  2 S  1.22000000E-01  1.000000

  3 S  2.97400000E-02  1.000000

  4 P  7.27000000E-01  1.000000

  5 P  1.41000000E-01  1.000000

  C (Carbon)
  ----------
            Exponent  Coefficients 
       -------------- ---------------------------------------------------------
  1 S  6.66500000E+03  0.000692
  1 S  1.00000000E+03  0.005329
  1 S  2.28000000E+02  0.027077
  1 S  6.47100000E+01  0.101718
  1 S  2.10600000E+01  0.274740
  1 S  7.49500000E+00  0.448564
  1 S  2.79700000E+00  0.285074
  1 S  5.21500000E-01  0.015204

  2 S  6.66500000E+03 -0.000146
  2 S  1.00000000E+03 -0.001154
  2 S  2.28000000E+02 -0.005725
  2 S  6.47100000E+01 -0.023312
  2 S  2.10600000E+01 -0.063955
  2 S  7.49500000E+00 -0.149981
  2 S  2.79700000E+00 -0.127262
  2 S  5.21500000E-01  0.544529

  3 S  1.59600000E-01  1.000000

  4 S  4.69000000E-02  1.000000

  5 P  9.43900000E+00  0.038109
  5 P  2.00200000E+00  0.209480
  5 P  5.45600000E-01  0.508557

  6 P  1.51700000E-01  1.000000

  7 P  4.04100000E-02  1.000000

  8 D  5.50000000E-01  1.000000

  9 D  1.51000000E-01  1.000000

  O (Oxygen)
  ----------
            Exponent  Coefficients 
       -------------- ---------------------------------------------------------
  1 S  1.17200000E+04  0.000710
  1 S  1.75900000E+03  0.005470
  1 S  4.00800000E+02  0.027837
  1 S  1.13700000E+02  0.104800
  1 S  3.70300000E+01  0.283062
  1 S  1.32700000E+01  0.448719
  1 S  5.02500000E+00  0.270952
  1 S  1.01300000E+00  0.015458

  2 S  1.17200000E+04 -0.000160
  2 S  1.75900000E+03 -0.001263
  2 S  4.00800000E+02 -0.006267
  2 S  1.13700000E+02 -0.025716
  2 S  3.70300000E+01 -0.070924
  2 S  1.32700000E+01 -0.165411
  2 S  5.02500000E+00 -0.116955
  2 S  1.01300000E+00  0.557368

  3 S  3.02300000E-01  1.000000

  4 S  7.89600000E-02  1.000000

  5 P  1.77000000E+01  0.043018
  5 P  3.85400000E+00  0.228913
  5 P  1.04600000E+00  0.508728

  6 P  2.75300000E-01  1.000000

  7 P  6.85600000E-02  1.000000

  8 D  1.18500000E+00  1.000000

  9 D  3.32000000E-01  1.000000

  N (Nitrogen)
  ------------
            Exponent  Coefficients 
       -------------- ---------------------------------------------------------
  1 S  9.04600000E+03  0.000700
  1 S  1.35700000E+03  0.005389
  1 S  3.09300000E+02  0.027406
  1 S  8.77300000E+01  0.103207
  1 S  2.85600000E+01  0.278723
  1 S  1.02100000E+01  0.448540
  1 S  3.83800000E+00  0.278238
  1 S  7.46600000E-01  0.015440

  2 S  9.04600000E+03 -0.000153
  2 S  1.35700000E+03 -0.001208
  2 S  3.09300000E+02 -0.005992
  2 S  8.77300000E+01 -0.024544
  2 S  2.85600000E+01 -0.067459
  2 S  1.02100000E+01 -0.158078
  2 S  3.83800000E+00 -0.121831
  2 S  7.46600000E-01  0.549003

  3 S  2.24800000E-01  1.000000

  4 S  6.12400000E-02  1.000000

  5 P  1.35500000E+01  0.039919
  5 P  2.91700000E+00  0.217169
  5 P  7.97300000E-01  0.510319

  6 P  2.18500000E-01  1.000000

  7 P  5.61100000E-02  1.000000

  8 D  8.17000000E-01  1.000000

  9 D  2.30000000E-01  1.000000

  S (Sulphur)
  -----------
            Exponent  Coefficients 
       -------------- ---------------------------------------------------------
  1 S  1.10800000E+05  0.000248
  1 S  1.66100000E+04  0.001920
  1 S  3.78100000E+03  0.009962
  1 S  1.07100000E+03  0.040298
  1 S  3.49800000E+02  0.128604
  1 S  1.26300000E+02  0.303480
  1 S  4.92600000E+01  0.421432
  1 S  2.01600000E+01  0.230781
  1 S  5.72000000E+00  0.017897
  1 S  2.18200000E+00 -0.002975
  1 S  4.32700000E-01  0.000850

  2 S  1.10800000E+05 -0.000069
  2 S  1.66100000E+04 -0.000528
  2 S  3.78100000E+03 -0.002797
  2 S  1.07100000E+03 -0.011265
  2 S  3.49800000E+02 -0.038883
  2 S  1.26300000E+02 -0.099503
  2 S  4.92600000E+01 -0.199740
  2 S  2.01600000E+01 -0.123360
  2 S  5.72000000E+00  0.513194
  2 S  2.18200000E+00  0.607120
  2 S  4.32700000E-01  0.039675

  3 S  1.10800000E+05  0.000020
  3 S  1.66100000E+04  0.000153
  3 S  3.78100000E+03  0.000810
  3 S  1.07100000E+03  0.003290
  3 S  3.49800000E+02  0.011297
  3 S  1.26300000E+02  0.029639
  3 S  4.92600000E+01  0.059985
  3 S  2.01600000E+01  0.041325
  3 S  5.72000000E+00 -0.207474
  3 S  2.18200000E+00 -0.392889
  3 S  4.32700000E-01  0.632840

  4 S  1.57000000E-01  1.000000

  5 S  5.07000000E-02  1.000000

  6 P  3.99700000E+02  0.004475
  6 P  9.41900000E+01  0.034171
  6 P  2.97500000E+01  0.144250
  6 P  1.07700000E+01  0.353928
  6 P  4.11900000E+00  0.459085
  6 P  1.62500000E+00  0.206383
  6 P  4.72600000E-01  0.010214

  7 P  3.99700000E+02 -0.001163
  7 P  9.41900000E+01 -0.008657
  7 P  2.97500000E+01 -0.039089
  7 P  1.07700000E+01 -0.093463
  7 P  4.11900000E+00 -0.147994
  7 P  1.62500000E+00  0.030190
  7 P  4.72600000E-01  0.561573

  8 P  1.40700000E-01  1.000000

  9 P  3.99000000E-02  1.000000

 10 D  4.79000000E-01  1.000000

 11 D  1.52000000E-01  1.000000



 Summary of "ao basis" -> "ao basis" (cartesian)
 ------------------------------------------------------------------------------
       Tag                 Description            Shells   Functions and Types
 ---------------- ------------------------------  ------  ---------------------
 H                        aug-cc-pvdz                5        9   3s2p
 C                        aug-cc-pvdz                9       25   4s3p2d
 O                        aug-cc-pvdz                9       25   4s3p2d
 N                        aug-cc-pvdz                9       25   4s3p2d
 S                        aug-cc-pvdz               11       29   5s4p2d


 ------------------------------------------------------------------------
 scf: no. of closed-shell electrons is not even!                   0
 ------------------------------------------------------------------------
 scf: no. of closed-shell electrons is not even!                   0
 ------------------------------------------------------------------------
 ------------------------------------------------------------------------
  current input line : 
     0: 
 scf: no. of closed-shell electrons is not even!                   0
 scf: no. of closed-shell electrons is not even!                   0
 ------------------------------------------------------------------------
 ------------------------------------------------------------------------
  current input line : 
     0: 
 ------------------------------------------------------------------------
 ------------------------------------------------------------------------
 There is an error in the input file
 scf: no. of closed-shell electrons is not even!                   0
 ------------------------------------------------------------------------
 ------------------------------------------------------------------------
  current input line : 
     0: 
 ------------------------------------------------------------------------
 ------------------------------------------------------------------------
 There is an error in the input file
 ------------------------------------------------------------------------
 For more information see the NWChem manual at https://nwchemgit.github.io


 For further details see manual section:                                                                                                                                                                                                                                                                
 scf: no. of closed-shell electrons is not even!                   0
 ------------------------------------------------------------------------
 ------------------------------------------------------------------------
  current input line : 
     0: 
 ------------------------------------------------------------------------
 ------------------------------------------------------------------------
 There is an error in the input file
 ------------------------------------------------------------------------
 For more information see the NWChem manual at https://nwchemgit.github.io


 For further details see manual section:                                                                                                                                                                                                                                                                
 scf: no. of closed-shell electrons is not even!                   0
 ------------------------------------------------------------------------
 ------------------------------------------------------------------------
  current input line : 
     0: 
 ------------------------------------------------------------------------
 ------------------------------------------------------------------------
 There is an error in the input file
 ------------------------------------------------------------------------
 For more information see the NWChem manual at https://nwchemgit.github.io


 For further details see manual section:                                                                                                                                                                                                                                                                
 scf: no. of closed-shell electrons is not even!                   0
 ------------------------------------------------------------------------
 ------------------------------------------------------------------------
  current input line : 
     0: 
 ------------------------------------------------------------------------
 ------------------------------------------------------------------------
 There is an error in the input file
 ------------------------------------------------------------------------
 For more information see the NWChem manual at https://nwchemgit.github.io


 For further details see manual section:                                                                                                                                                                                                                                                                
 ------------------------------------------------------------------------
  current input line : 
    47: task scf energy
 ------------------------------------------------------------------------
 ------------------------------------------------------------------------
 There is an error in the input file
 ------------------------------------------------------------------------
 For more information see the NWChem manual at https://nwchemgit.github.io


 For further details see manual section:                                                                                                                                                                                                                                                                
0:scf: no. of closed-shell electrons is not even!:Received an Error in Communication
 ------------------------------------------------------------------------
 ------------------------------------------------------------------------
 There is an error in the input file
 ------------------------------------------------------------------------
 For more information see the NWChem manual at https://nwchemgit.github.io


 For further details see manual section:                                                                                                                                                                                                                                                                
1:scf: no. of closed-shell electrons is not even!:Received an Error in Communication
 ------------------------------------------------------------------------
 For more information see the NWChem manual at https://nwchemgit.github.io


 For further details see manual section:                                                                                                                                                                                                                                                                
3:scf: no. of closed-shell electrons is not even!:Received an Error in Communication
4:scf: no. of closed-shell electrons is not even!:Received an Error in Communication
5:scf: no. of closed-shell electrons is not even!:Received an Error in Communication
6:scf: no. of closed-shell electrons is not even!:Received an Error in Communication
7:scf: no. of closed-shell electrons is not even!:Received an Error in Communication
 ------------------------------------------------------------------------
 ------------------------------------------------------------------------
  current input line : 
     0: 
 ------------------------------------------------------------------------
 ------------------------------------------------------------------------
 There is an error in the input file
 ------------------------------------------------------------------------
 For more information see the NWChem manual at https://nwchemgit.github.io


 For further details see manual section:                                                                                                                                                                                                                                                                
2:scf: no. of closed-shell electrons is not even!:Received an Error in Communication
--------------------------------------------------------------------------
MPI_ABORT was invoked on rank 0 in communicator MPI COMMUNICATOR 3 DUP FROM 0
with errorcode -1.

NOTE: invoking MPI_ABORT causes Open MPI to kill all MPI processes.
You may or may not see output from other processes, depending on
exactly when Open MPI kills them.
--------------------------------------------------------------------------
--------------------------------------------------------------------------
MPI_ABORT was invoked on rank 2 in communicator MPI COMMUNICATOR 3 DUP FROM 0
with errorcode -1.

NOTE: invoking MPI_ABORT causes Open MPI to kill all MPI processes.
You may or may not see output from other processes, depending on
exactly when Open MPI kills them.
--------------------------------------------------------------------------
--------------------------------------------------------------------------
MPI_ABORT was invoked on rank 3 in communicator MPI COMMUNICATOR 3 DUP FROM 0
with errorcode -1.

NOTE: invoking MPI_ABORT causes Open MPI to kill all MPI processes.
You may or may not see output from other processes, depending on
exactly when Open MPI kills them.
--------------------------------------------------------------------------
--------------------------------------------------------------------------
MPI_ABORT was invoked on rank 4 in communicator MPI COMMUNICATOR 3 DUP FROM 0
with errorcode -1.

NOTE: invoking MPI_ABORT causes Open MPI to kill all MPI processes.
You may or may not see output from other processes, depending on
exactly when Open MPI kills them.
--------------------------------------------------------------------------
--------------------------------------------------------------------------
MPI_ABORT was invoked on rank 5 in communicator MPI COMMUNICATOR 3 DUP FROM 0
with errorcode -1.

NOTE: invoking MPI_ABORT causes Open MPI to kill all MPI processes.
You may or may not see output from other processes, depending on
exactly when Open MPI kills them.
--------------------------------------------------------------------------
--------------------------------------------------------------------------
MPI_ABORT was invoked on rank 6 in communicator MPI COMMUNICATOR 3 DUP FROM 0
with errorcode -1.

NOTE: invoking MPI_ABORT causes Open MPI to kill all MPI processes.
You may or may not see output from other processes, depending on
exactly when Open MPI kills them.
--------------------------------------------------------------------------
--------------------------------------------------------------------------
MPI_ABORT was invoked on rank 7 in communicator MPI COMMUNICATOR 3 DUP FROM 0
with errorcode -1.

NOTE: invoking MPI_ABORT causes Open MPI to kill all MPI processes.
You may or may not see output from other processes, depending on
exactly when Open MPI kills them.
--------------------------------------------------------------------------
--------------------------------------------------------------------------
MPI_ABORT was invoked on rank 1 in communicator MPI COMMUNICATOR 3 DUP FROM 0
with errorcode -1.

NOTE: invoking MPI_ABORT causes Open MPI to kill all MPI processes.
You may or may not see output from other processes, depending on
exactly when Open MPI kills them.
--------------------------------------------------------------------------
slurmstepd: error: *** STEP 6619389.100 ON nova21-swift-3 CANCELLED AT 2025-07-10T22:20:18 ***
srun: Job step aborted: Waiting up to 32 seconds for job step to finish.
slurmstepd: error: --task-epilog failed status=9
srun: error: nova21-swift-3: tasks 0-7: Killed
