export TMOUT=5400
export TMPDIR=/tmp
export PTMPDIR=/tmp/ptmp
 argument  1 = inputs/ASP_ASP_3.nw



============================== echo of input deck ==============================
start ASP_ASP_3
geometry
H          7.25300        9.16600       -0.77900
C          6.21100        8.91700       -0.59300
H          5.82800        8.32300       -1.42300
H          5.61300        9.81700       -0.47700
C          6.11900        8.08800        0.66300
O          7.13800        7.75600        1.26200
N          4.89400        7.77700        1.07200
H          4.09100        8.07900        0.52300
C          4.57200        6.84200        2.15700
H          5.36100        6.91800        2.90500
C          3.25400        7.24000        2.86600
H          2.94700        6.42600        3.52500
H          3.48800        8.08800        3.51200
C          2.04900        7.66200        2.00200
O          0.97500        7.86100        2.61400
O          2.19300        7.84900        0.77100
C          4.59100        5.36100        1.71500
O          4.49500        4.46600        2.55600
N          4.80000        5.08600        0.42200
H          4.90800        5.86500       -0.21800
C          5.19400        3.77100       -0.10200
H          4.60700        3.00400        0.40400
C          4.88800        3.69100       -1.61300
H          5.15000        2.69000       -1.96100
H          3.81100        3.80600       -1.74700
C          5.59400        4.72500       -2.51100
O          5.62300        4.47500       -3.73800
O          6.08900        5.75400       -1.99400
C          6.68300        3.45000        0.15600
O          7.08300        2.28700        0.20700
N          7.53000        4.45400        0.35200
H          7.19100        5.40000        0.24200
H          8.49800        4.25300        0.51200
end

basis
 * library aug-cc-pvdz
end

echo

scf
 direct
end

task scf energy
================================================================================


                                         
                                         


             Northwest Computational Chemistry Package (NWChem) 7.2.0
             --------------------------------------------------------


                    Environmental Molecular Sciences Laboratory
                       Pacific Northwest National Laboratory
                                Richland, WA 99352

                              Copyright (c) 1994-2022
                       Pacific Northwest National Laboratory
                            Battelle Memorial Institute

             NWChem is an open-source computational chemistry package
                        distributed under the terms of the
                      Educational Community License (ECL) 2.0
             A copy of the license is included with this distribution
                              in the LICENSE.TXT file

                                  ACKNOWLEDGMENT
                                  --------------

            This software and its documentation were developed at the
            EMSL at Pacific Northwest National Laboratory, a multiprogram
            national laboratory, operated for the U.S. Department of Energy
            by Battelle under Contract Number DE-AC05-76RL01830. Support
            for this work was provided by the Department of Energy Office
            of Biological and Environmental Research, Office of Basic
            Energy Sciences, and the Office of Advanced Scientific Computing.


           Job information
           ---------------

    hostname        = nova21-swift-4
    program         = /opt/rit/el9/20230413/app/linux-rhel9-x86_64_v3/gcc-11.2.1/nwchem-7.2.0-oxtctbuhfuzyfaoziquq6bki22grib3g/bin/nwchem
    date            = Thu Jul 10 17:10:02 2025

    compiled        = Wed_May_17_23:46:39_2023
    source          = /tmp/root/spack-stage/spack-stage-nwchem-7.2.0-oxtctbuhfuzyfaoziquq6bki22grib3g/spack-src
    nwchem branch   = 7.2.0
    nwchem revision = d0d141fd
    ga revision     = 5.8.0
    use scalapack   = T
    input           = inputs/ASP_ASP_3.nw
    prefix          = ASP_ASP_3.
    data base       = ./ASP_ASP_3.db
    status          = startup
    nproc           =        8
    time left       =     -1s



           Memory information
           ------------------

    heap     =   26214400 doubles =    200.0 Mbytes
    stack    =   26214397 doubles =    200.0 Mbytes
    global   =   52428800 doubles =    400.0 Mbytes (distinct from heap & stack)
    total    =  104857597 doubles =    800.0 Mbytes
    verify   = yes
    hardfail = no 


           Directory information
           ---------------------

  0 permanent = .
  0 scratch   = .




                                NWChem Input Module
                                -------------------



 Scaling coordinates for geometry "geometry" by  1.889725989
 (inverse scale =  0.529177249)

 C1  symmetry detected

          ------
          auto-z
          ------
  no constraints, skipping    0.0000000000000000     
  no constraints, skipping    0.0000000000000000     


                             Geometry "geometry" -> ""
                             -------------------------

 Output coordinates in angstroms (scale by  1.889725989 to convert to a.u.)

  No.       Tag          Charge          X              Y              Z
 ---- ---------------- ---------- -------------- -------------- --------------
    1 H                    1.0000     3.85565895     0.11937101     1.46767467
    2 C                    6.0000     3.24333038     0.65258023     0.74441632
    3 H                    1.0000     3.13255844     0.04404614    -0.15327006
    4 H                    1.0000     3.69158098     1.60893305     0.48844622
    5 C                    6.0000     1.87370290     0.88146153     1.33176200
    6 O                    8.0000     1.59196163     0.43303004     2.43942487
    7 N                    7.0000     1.03336306     1.60159509     0.59700789
    8 H                    1.0000     1.32955872     1.93765809    -0.31772912
    9 C                    6.0000    -0.39229888     1.80007358     0.88550108
   10 H                    1.0000    -0.51224538     1.81509217     1.96863924
   11 C                    6.0000    -0.88136775     3.17593852     0.36973340
   12 H                    1.0000    -1.97101842     3.20678292     0.42298790
   13 H                    1.0000    -0.51696130     3.92418457     1.07578707
   14 C                    6.0000    -0.43851523     3.63887975    -1.03246917
   15 O                    8.0000    -0.95290033     4.70131847    -1.44990533
   16 O                    8.0000     0.43747096     2.99732159    -1.65866189
   17 C                    6.0000    -1.28244153     0.63021676     0.40783267
   18 O                    8.0000    -2.47228461     0.59247628     0.72464665
   19 N                    7.0000    -0.70861830    -0.36775283    -0.27476428
   20 H                    1.0000     0.28301237    -0.29807678    -0.47456134
   21 C                    6.0000    -1.31102440    -1.69051644    -0.49026444
   22 H                    1.0000    -2.36386832    -1.55744629    -0.74067613
   23 C                    6.0000    -0.62116766    -2.39845705    -1.67604468
   24 H                    1.0000    -1.11967083    -3.35611969    -1.83767961
   25 H                    1.0000    -0.78436898    -1.79621493    -2.57146623
   26 C                    6.0000     0.89291934    -2.64854082    -1.53822354
   27 O                    8.0000     1.39452523    -3.49370978    -2.31472271
   28 O                    8.0000     1.54830953    -2.00573687    -0.68474725
   29 C                    6.0000    -1.25106912    -2.58341118     0.76904900
   30 O                    8.0000    -2.05570369    -3.49955019     0.93763879
   31 N                    7.0000    -0.32875176    -2.33009955     1.69046363
   32 H                    1.0000     0.35990292    -1.61489184     1.50028041
   33 H                    1.0000    -0.27952826    -2.91006313     2.50547547

      Atomic Mass 
      ----------- 

      H                  1.007825
      C                 12.000000
      O                 15.994910
      N                 14.003070


 Effective nuclear repulsion energy (a.u.)    1667.2463292002

            Nuclear Dipole moment (a.u.) 
            ----------------------------
        X                 Y               Z
 ---------------- ---------------- ----------------
     0.0000000000     0.0000000000     0.0000000000



                                Z-matrix (autoz)
                                -------- 

 Units are Angstrom for bonds and degrees for angles

      Type          Name      I     J     K     L     M      Value
      ----------- --------  ----- ----- ----- ----- ----- ----------
    1 Stretch                  1     2                       1.08736
    2 Stretch                  2     3                       1.09015
    3 Stretch                  2     4                       1.08677
    4 Stretch                  2     5                       1.50773
    5 Stretch                  5     6                       1.22776
    6 Stretch                  5     7                       1.32839
    7 Stretch                  7     8                       1.01854
    8 Stretch                  7     9                       1.46804
    9 Stretch                  9    10                       1.08986
   10 Stretch                  9    11                       1.54862
   11 Stretch                  9    17                       1.54567
   12 Stretch                 11    12                       1.09139
   13 Stretch                 11    13                       1.09141
   14 Stretch                 11    14                       1.54162
   15 Stretch                 14    15                       1.25205
   16 Stretch                 14    16                       1.25342
   17 Stretch                 17    18                       1.23188
   18 Stretch                 17    19                       1.33834
   19 Stretch                 19    20                       1.01396
   20 Stretch                 19    21                       1.46937
   21 Stretch                 21    22                       1.09036
   22 Stretch                 21    23                       1.54375
   23 Stretch                 21    29                       1.54490
   24 Stretch                 23    24                       1.09167
   25 Stretch                 23    25                       1.09138
   26 Stretch                 23    26                       1.54078
   27 Stretch                 26    27                       1.25255
   28 Stretch                 26    28                       1.25346
   29 Stretch                 29    30                       1.23092
   30 Stretch                 29    31                       1.32810
   31 Stretch                 31    32                       1.01091
   32 Stretch                 31    33                       1.00151
   33 Bend                     1     2     3               109.34220
   34 Bend                     1     2     4               110.84972
   35 Bend                     1     2     5               109.07944
   36 Bend                     2     5     6               120.29577
   37 Bend                     2     5     7               116.19845
   38 Bend                     3     2     4               109.82728
   39 Bend                     3     2     5               108.25320
   40 Bend                     4     2     5               109.44177
   41 Bend                     5     7     8               119.44920
   42 Bend                     5     7     9               125.37572
   43 Bend                     6     5     7               123.49387
   44 Bend                     7     9    10               107.70081
   45 Bend                     7     9    11               111.18391
   46 Bend                     7     9    17               113.34168
   47 Bend                     8     7     9               114.47473
   48 Bend                     9    11    12               108.91504
   49 Bend                     9    11    13               106.75014
   50 Bend                     9    11    14               118.62049
   51 Bend                     9    17    18               119.99698
   52 Bend                     9    17    19               118.36418
   53 Bend                    10     9    11               106.49884
   54 Bend                    10     9    17               104.72494
   55 Bend                    11     9    17               112.80737
   56 Bend                    11    14    15               116.10713
   57 Bend                    11    14    16               120.09679
   58 Bend                    12    11    13               106.40425
   59 Bend                    12    11    14               108.82641
   60 Bend                    13    11    14               106.65596
   61 Bend                    15    14    16               123.70325
   62 Bend                    17    19    20               117.94197
   63 Bend                    17    19    21               124.77119
   64 Bend                    18    17    19               121.49689
   65 Bend                    19    21    22               108.64393
   66 Bend                    19    21    23               110.01573
   67 Bend                    19    21    29               112.63357
   68 Bend                    20    19    21               115.71608
   69 Bend                    21    23    24               108.17739
   70 Bend                    21    23    25               108.07866
   71 Bend                    21    23    26               116.41412
   72 Bend                    21    29    30               121.09340
   73 Bend                    21    29    31               118.83232
   74 Bend                    22    21    23               108.12288
   75 Bend                    22    21    29               107.17030
   76 Bend                    23    21    29               110.10471
   77 Bend                    23    26    27               116.58979
   78 Bend                    23    26    28               119.43774
   79 Bend                    24    23    25               107.11654
   80 Bend                    24    23    26               108.63812
   81 Bend                    25    23    26               108.05321
   82 Bend                    27    26    28               123.96982
   83 Bend                    29    31    32               118.52257
   84 Bend                    29    31    33               119.22704
   85 Bend                    30    29    31               120.05926
   86 Bend                    32    31    33               121.95918
   87 Torsion                  1     2     5     6          -3.02518
   88 Torsion                  1     2     5     7         175.76258
   89 Torsion                  2     5     7     8           1.69417
   90 Torsion                  2     5     7     9         171.55249
   91 Torsion                  3     2     5     6         115.86326
   92 Torsion                  3     2     5     7         -65.34897
   93 Torsion                  4     2     5     6        -124.45580
   94 Torsion                  4     2     5     7          54.33196
   95 Torsion                  5     7     9    10          33.38018
   96 Torsion                  5     7     9    11         149.70139
   97 Torsion                  5     7     9    17         -81.98074
   98 Torsion                  6     5     7     8        -179.56094
   99 Torsion                  6     5     7     9          -9.70261
  100 Torsion                  7     9    11    12         168.99645
  101 Torsion                  7     9    11    13         -76.49092
  102 Torsion                  7     9    11    14          43.85520
  103 Torsion                  7     9    17    18         171.43598
  104 Torsion                  7     9    17    19          -4.29843
  105 Torsion                  8     7     9    10        -156.31866
  106 Torsion                  8     7     9    11         -39.99745
  107 Torsion                  8     7     9    17          88.32042
  108 Torsion                  9    11    14    15         173.97895
  109 Torsion                  9    11    14    16          -9.39569
  110 Torsion                  9    17    19    20          -1.89416
  111 Torsion                  9    17    19    21         163.16490
  112 Torsion                 10     9    11    12         -73.94676
  113 Torsion                 10     9    11    13          40.56587
  114 Torsion                 10     9    11    14         160.91199
  115 Torsion                 10     9    17    18          54.31930
  116 Torsion                 10     9    17    19        -121.41511
  117 Torsion                 11     9    17    18         -61.08868
  118 Torsion                 11     9    17    19         123.17690
  119 Torsion                 12    11     9    17          40.39202
  120 Torsion                 12    11    14    15          48.79470
  121 Torsion                 12    11    14    16        -134.57994
  122 Torsion                 13    11     9    17         154.90466
  123 Torsion                 13    11    14    15         -65.62671
  124 Torsion                 13    11    14    16         110.99865
  125 Torsion                 14    11     9    17         -84.74923
  126 Torsion                 17    19    21    22          42.89667
  127 Torsion                 17    19    21    23         161.07982
  128 Torsion                 17    19    21    29         -75.67346
  129 Torsion                 18    17    19    20        -177.56149
  130 Torsion                 18    17    19    21         -12.50244
  131 Torsion                 19    21    23    24        -177.51539
  132 Torsion                 19    21    23    25         -61.85427
  133 Torsion                 19    21    23    26          59.89075
  134 Torsion                 19    21    29    30         155.49405
  135 Torsion                 19    21    29    31         -23.09660
  136 Torsion                 20    19    21    22        -151.74696
  137 Torsion                 20    19    21    23         -33.56380
  138 Torsion                 20    19    21    29          89.68292
  139 Torsion                 21    23    26    27         162.89703
  140 Torsion                 21    23    26    28         -17.67141
  141 Torsion                 21    29    31    32          -5.55600
  142 Torsion                 21    29    31    33        -179.48159
  143 Torsion                 22    21    23    24         -59.01122
  144 Torsion                 22    21    23    25          56.64991
  145 Torsion                 22    21    23    26         178.39492
  146 Torsion                 22    21    29    30          36.06485
  147 Torsion                 22    21    29    31        -142.52581
  148 Torsion                 23    21    29    30         -81.30883
  149 Torsion                 23    21    29    31         100.10051
  150 Torsion                 24    23    21    29          57.76970
  151 Torsion                 24    23    26    27          40.54411
  152 Torsion                 24    23    26    28        -140.02433
  153 Torsion                 25    23    21    29         173.43083
  154 Torsion                 25    23    26    27         -75.34453
  155 Torsion                 25    23    26    28         104.08702
  156 Torsion                 26    23    21    29         -64.82415
  157 Torsion                 30    29    31    32         175.83839
  158 Torsion                 30    29    31    33           1.91280


            XYZ format geometry
            -------------------
    33
 geometry
 H                     3.85565895     0.11937101     1.46767467
 C                     3.24333038     0.65258023     0.74441632
 H                     3.13255844     0.04404614    -0.15327006
 H                     3.69158098     1.60893305     0.48844622
 C                     1.87370290     0.88146153     1.33176200
 O                     1.59196163     0.43303004     2.43942487
 N                     1.03336306     1.60159509     0.59700789
 H                     1.32955872     1.93765809    -0.31772912
 C                    -0.39229888     1.80007358     0.88550108
 H                    -0.51224538     1.81509217     1.96863924
 C                    -0.88136775     3.17593852     0.36973340
 H                    -1.97101842     3.20678292     0.42298790
 H                    -0.51696130     3.92418457     1.07578707
 C                    -0.43851523     3.63887975    -1.03246917
 O                    -0.95290033     4.70131847    -1.44990533
 O                     0.43747096     2.99732159    -1.65866189
 C                    -1.28244153     0.63021676     0.40783267
 O                    -2.47228461     0.59247628     0.72464665
 N                    -0.70861830    -0.36775283    -0.27476428
 H                     0.28301237    -0.29807678    -0.47456134
 C                    -1.31102440    -1.69051644    -0.49026444
 H                    -2.36386832    -1.55744629    -0.74067613
 C                    -0.62116766    -2.39845705    -1.67604468
 H                    -1.11967083    -3.35611969    -1.83767961
 H                    -0.78436898    -1.79621493    -2.57146623
 C                     0.89291934    -2.64854082    -1.53822354
 O                     1.39452523    -3.49370978    -2.31472271
 O                     1.54830953    -2.00573687    -0.68474725
 C                    -1.25106912    -2.58341118     0.76904900
 O                    -2.05570369    -3.49955019     0.93763879
 N                    -0.32875176    -2.33009955     1.69046363
 H                     0.35990292    -1.61489184     1.50028041
 H                    -0.27952826    -2.91006313     2.50547547

 ==============================================================================
                                internuclear distances
 ------------------------------------------------------------------------------
       center one      |      center two      | atomic units |  angstroms
 ------------------------------------------------------------------------------
    2 C                |   1 H                |     2.05482  |     1.08736
    3 H                |   2 C                |     2.06008  |     1.09015
    4 H                |   2 C                |     2.05369  |     1.08677
    5 C                |   2 C                |     2.84919  |     1.50773
    6 O                |   5 C                |     2.32012  |     1.22776
    7 N                |   5 C                |     2.51030  |     1.32839
    8 H                |   7 N                |     1.92475  |     1.01854
    9 C                |   7 N                |     2.77419  |     1.46804
   10 H                |   9 C                |     2.05954  |     1.08986
   11 C                |   9 C                |     2.92646  |     1.54862
   12 H                |  11 C                |     2.06242  |     1.09139
   13 H                |  11 C                |     2.06247  |     1.09141
   14 C                |  11 C                |     2.91325  |     1.54162
   15 O                |  14 C                |     2.36603  |     1.25205
   16 O                |  14 C                |     2.36862  |     1.25342
   17 C                |   9 C                |     2.92089  |     1.54567
   18 O                |  17 C                |     2.32791  |     1.23188
   19 N                |  17 C                |     2.52910  |     1.33834
   20 H                |  19 N                |     1.91610  |     1.01396
   21 C                |  19 N                |     2.77670  |     1.46937
   22 H                |  21 C                |     2.06049  |     1.09036
   23 C                |  21 C                |     2.91726  |     1.54375
   24 H                |  23 C                |     2.06296  |     1.09167
   25 H                |  23 C                |     2.06241  |     1.09138
   26 C                |  23 C                |     2.91165  |     1.54078
   27 O                |  26 C                |     2.36697  |     1.25255
   28 O                |  26 C                |     2.36869  |     1.25346
   29 C                |  21 C                |     2.91944  |     1.54490
   30 O                |  29 C                |     2.32611  |     1.23092
   31 N                |  29 C                |     2.50974  |     1.32810
   32 H                |  31 N                |     1.91034  |     1.01091
   33 H                |  31 N                |     1.89258  |     1.00151
 ------------------------------------------------------------------------------
                         number of included internuclear distances:         32
 ==============================================================================



 ==============================================================================
                                 internuclear angles
 ------------------------------------------------------------------------------
        center 1       |       center 2       |       center 3       |  degrees
 ------------------------------------------------------------------------------
    1 H                |   2 C                |   3 H                |   109.34
    1 H                |   2 C                |   4 H                |   110.85
    1 H                |   2 C                |   5 C                |   109.08
    3 H                |   2 C                |   4 H                |   109.83
    3 H                |   2 C                |   5 C                |   108.25
    4 H                |   2 C                |   5 C                |   109.44
    2 C                |   5 C                |   6 O                |   120.30
    2 C                |   5 C                |   7 N                |   116.20
    6 O                |   5 C                |   7 N                |   123.49
    5 C                |   7 N                |   8 H                |   119.45
    5 C                |   7 N                |   9 C                |   125.38
    8 H                |   7 N                |   9 C                |   114.47
    7 N                |   9 C                |  10 H                |   107.70
    7 N                |   9 C                |  11 C                |   111.18
    7 N                |   9 C                |  17 C                |   113.34
   10 H                |   9 C                |  11 C                |   106.50
   10 H                |   9 C                |  17 C                |   104.72
   11 C                |   9 C                |  17 C                |   112.81
    9 C                |  11 C                |  12 H                |   108.92
    9 C                |  11 C                |  13 H                |   106.75
    9 C                |  11 C                |  14 C                |   118.62
   12 H                |  11 C                |  13 H                |   106.40
   12 H                |  11 C                |  14 C                |   108.83
   13 H                |  11 C                |  14 C                |   106.66
   11 C                |  14 C                |  15 O                |   116.11
   11 C                |  14 C                |  16 O                |   120.10
   15 O                |  14 C                |  16 O                |   123.70
    9 C                |  17 C                |  18 O                |   120.00
    9 C                |  17 C                |  19 N                |   118.36
   18 O                |  17 C                |  19 N                |   121.50
   17 C                |  19 N                |  20 H                |   117.94
   17 C                |  19 N                |  21 C                |   124.77
   20 H                |  19 N                |  21 C                |   115.72
   19 N                |  21 C                |  22 H                |   108.64
   19 N                |  21 C                |  23 C                |   110.02
   19 N                |  21 C                |  29 C                |   112.63
   22 H                |  21 C                |  23 C                |   108.12
   22 H                |  21 C                |  29 C                |   107.17
   23 C                |  21 C                |  29 C                |   110.10
   21 C                |  23 C                |  24 H                |   108.18
   21 C                |  23 C                |  25 H                |   108.08
   21 C                |  23 C                |  26 C                |   116.41
   24 H                |  23 C                |  25 H                |   107.12
   24 H                |  23 C                |  26 C                |   108.64
   25 H                |  23 C                |  26 C                |   108.05
   23 C                |  26 C                |  27 O                |   116.59
   23 C                |  26 C                |  28 O                |   119.44
   27 O                |  26 C                |  28 O                |   123.97
   21 C                |  29 C                |  30 O                |   121.09
   21 C                |  29 C                |  31 N                |   118.83
   30 O                |  29 C                |  31 N                |   120.06
   29 C                |  31 N                |  32 H                |   118.52
   29 C                |  31 N                |  33 H                |   119.23
   32 H                |  31 N                |  33 H                |   121.96
 ------------------------------------------------------------------------------
                            number of included internuclear angles:         54
 ==============================================================================



  library name resolved from: environment
  library file name is: </opt/rit/el9/20230413/app/linux-rhel9-x86_64_v3/gcc-11.2.1/nwchem-7.2.0-oxtctbuhfuzyfaoziquq6bki22grib3g/share/nwchem/libraries/>
  


 Summary of "ao basis" -> "" (cartesian)
 ------------------------------------------------------------------------------
       Tag                 Description            Shells   Functions and Types
 ---------------- ------------------------------  ------  ---------------------
 *                        aug-cc-pvdz                 on all atoms 


                      Basis "ao basis" -> "ao basis" (cartesian)
                      -----
  H (Hydrogen)
  ------------
            Exponent  Coefficients 
       -------------- ---------------------------------------------------------
  1 S  1.30100000E+01  0.019685
  1 S  1.96200000E+00  0.137977
  1 S  4.44600000E-01  0.478148

  2 S  1.22000000E-01  1.000000

  3 S  2.97400000E-02  1.000000

  4 P  7.27000000E-01  1.000000

  5 P  1.41000000E-01  1.000000

  C (Carbon)
  ----------
            Exponent  Coefficients 
       -------------- ---------------------------------------------------------
  1 S  6.66500000E+03  0.000692
  1 S  1.00000000E+03  0.005329
  1 S  2.28000000E+02  0.027077
  1 S  6.47100000E+01  0.101718
  1 S  2.10600000E+01  0.274740
  1 S  7.49500000E+00  0.448564
  1 S  2.79700000E+00  0.285074
  1 S  5.21500000E-01  0.015204

  2 S  6.66500000E+03 -0.000146
  2 S  1.00000000E+03 -0.001154
  2 S  2.28000000E+02 -0.005725
  2 S  6.47100000E+01 -0.023312
  2 S  2.10600000E+01 -0.063955
  2 S  7.49500000E+00 -0.149981
  2 S  2.79700000E+00 -0.127262
  2 S  5.21500000E-01  0.544529

  3 S  1.59600000E-01  1.000000

  4 S  4.69000000E-02  1.000000

  5 P  9.43900000E+00  0.038109
  5 P  2.00200000E+00  0.209480
  5 P  5.45600000E-01  0.508557

  6 P  1.51700000E-01  1.000000

  7 P  4.04100000E-02  1.000000

  8 D  5.50000000E-01  1.000000

  9 D  1.51000000E-01  1.000000

  O (Oxygen)
  ----------
            Exponent  Coefficients 
       -------------- ---------------------------------------------------------
  1 S  1.17200000E+04  0.000710
  1 S  1.75900000E+03  0.005470
  1 S  4.00800000E+02  0.027837
  1 S  1.13700000E+02  0.104800
  1 S  3.70300000E+01  0.283062
  1 S  1.32700000E+01  0.448719
  1 S  5.02500000E+00  0.270952
  1 S  1.01300000E+00  0.015458

  2 S  1.17200000E+04 -0.000160
  2 S  1.75900000E+03 -0.001263
  2 S  4.00800000E+02 -0.006267
  2 S  1.13700000E+02 -0.025716
  2 S  3.70300000E+01 -0.070924
  2 S  1.32700000E+01 -0.165411
  2 S  5.02500000E+00 -0.116955
  2 S  1.01300000E+00  0.557368

  3 S  3.02300000E-01  1.000000

  4 S  7.89600000E-02  1.000000

  5 P  1.77000000E+01  0.043018
  5 P  3.85400000E+00  0.228913
  5 P  1.04600000E+00  0.508728

  6 P  2.75300000E-01  1.000000

  7 P  6.85600000E-02  1.000000

  8 D  1.18500000E+00  1.000000

  9 D  3.32000000E-01  1.000000

  N (Nitrogen)
  ------------
            Exponent  Coefficients 
       -------------- ---------------------------------------------------------
  1 S  9.04600000E+03  0.000700
  1 S  1.35700000E+03  0.005389
  1 S  3.09300000E+02  0.027406
  1 S  8.77300000E+01  0.103207
  1 S  2.85600000E+01  0.278723
  1 S  1.02100000E+01  0.448540
  1 S  3.83800000E+00  0.278238
  1 S  7.46600000E-01  0.015440

  2 S  9.04600000E+03 -0.000153
  2 S  1.35700000E+03 -0.001208
  2 S  3.09300000E+02 -0.005992
  2 S  8.77300000E+01 -0.024544
  2 S  2.85600000E+01 -0.067459
  2 S  1.02100000E+01 -0.158078
  2 S  3.83800000E+00 -0.121831
  2 S  7.46600000E-01  0.549003

  3 S  2.24800000E-01  1.000000

  4 S  6.12400000E-02  1.000000

  5 P  1.35500000E+01  0.039919
  5 P  2.91700000E+00  0.217169
  5 P  7.97300000E-01  0.510319

  6 P  2.18500000E-01  1.000000

  7 P  5.61100000E-02  1.000000

  8 D  8.17000000E-01  1.000000

  9 D  2.30000000E-01  1.000000



 Summary of "ao basis" -> "ao basis" (cartesian)
 ------------------------------------------------------------------------------
       Tag                 Description            Shells   Functions and Types
 ---------------- ------------------------------  ------  ---------------------
 H                        aug-cc-pvdz                5        9   3s2p
 C                        aug-cc-pvdz                9       25   4s3p2d
 O                        aug-cc-pvdz                9       25   4s3p2d
 N                        aug-cc-pvdz                9       25   4s3p2d


                                 NWChem SCF Module
                                 -----------------



  ao basis        = "ao basis"
  functions       =   617
  atoms           =    33
  closed shells   =    75
  open shells     =     0
  charge          =   0.00
  wavefunction    = RHF 
  input vectors   = atomic
  output vectors  = ./ASP_ASP_3.movecs
  use symmetry    = F
  symmetry adapt  = F


 Summary of "ao basis" -> "ao basis" (cartesian)
 ------------------------------------------------------------------------------
       Tag                 Description            Shells   Functions and Types
 ---------------- ------------------------------  ------  ---------------------
 H                        aug-cc-pvdz                5        9   3s2p
 C                        aug-cc-pvdz                9       25   4s3p2d
 O                        aug-cc-pvdz                9       25   4s3p2d
 N                        aug-cc-pvdz                9       25   4s3p2d



 Forming initial guess at       0.6s


 !! The overlap matrix has   4 vectors deemed linearly dependent with
    eigenvalues:
 3.74D-06 3.89D-06 7.28D-06 8.05D-06


      Superposition of Atomic Density Guess
      -------------------------------------

 Sum of atomic energies:       -1069.43740700

      Non-variational initial energy
      ------------------------------

 Total energy =   -1080.513988
 1-e energy   =   -4776.578317
 2-e energy   =    2028.817999
 HOMO         =      -0.310243
 LUMO         =      -0.307693


 Starting SCF solution at     209.5s



 ----------------------------------------------
         Quadratically convergent ROHF

 Convergence threshold     :          1.000E-04
 Maximum no. of iterations :           30
 Final Fock-matrix accuracy:          1.000E-10
 ----------------------------------------------


              iter       energy          gnorm     gmax       time
             ----- ------------------- --------- --------- --------
                 1    -1072.6536342837  3.59D+00  2.42D-01    434.9
  Setting level-shift to   2.96 to force positive preconditioner
                 2    -1073.3500066225  1.11D+00  6.95D-02    661.3
  ga_iter_lsolve: convergence stagnant ... aborting solve

 Disabled NR: increased maxiter to  40

                 3    -1073.4240696792  5.89D-01  6.36D-02   1719.2
                 4    -1073.4472261568  3.31D-01  2.98D-02   2171.9
                 5    -1073.4548483936  1.75D-01  2.60D-02   2398.3
                 6    -1073.4609405749  2.27D-01  2.08D-02   2850.9
                 7    -1073.4671109888  1.98D-01  2.17D-02   3303.9
                 8    -1073.4705326997  1.32D-01  2.13D-02   3530.3
                 9    -1073.4721052395  1.03D-01  1.22D-02   3983.3
                10    -1073.4735290084  7.23D-02  6.44D-03   4209.8
                11    -1073.4740989336  5.34D-02  7.48D-03   4436.3
                12    -1073.4743041837  4.20D-02  5.93D-03   4888.8
                13    -1073.4744793983  3.17D-02  6.14D-03   5115.1
                14    -1073.4746627614  3.57D-02  5.10D-03   5567.9
                15    -1073.4748968677  4.35D-02  5.71D-03   6020.5
                16    -1073.4750994725  4.63D-02  7.04D-03   6473.2
                17    -1073.4753939838  4.37D-02  4.92D-03   6699.6
                18    -1073.4757111475  4.34D-02  3.99D-03   7152.3
                19    -1073.4759615932  4.02D-02  5.14D-03   7604.9
                20    -1073.4760785048  3.20D-02  6.03D-03   8057.7
                21    -1073.4762468572  2.60D-02  3.46D-03   8284.1
                22    -1073.4764042857  3.34D-02  3.87D-03   8736.8
                23    -1073.4765862163  3.68D-02  5.74D-03   9189.5
                24    -1073.4767187360  3.59D-02  4.88D-03   9639.4
                25    -1073.4769454630  3.80D-02  4.01D-03  10091.9
                26    -1073.4771482982  3.44D-02  4.04D-03  10544.7
                27    -1073.4773631701  3.89D-02  7.19D-03  10997.1
                28    -1073.4775226971  4.03D-02  5.69D-03  11449.5
                29    -1073.4778619659  4.91D-02  5.89D-03  11901.9
                30    -1073.4781538238  4.78D-02  8.59D-03  12128.2
                31    -1073.4783849745  3.76D-02  7.21D-03  12580.6
                32    -1073.4788078507  5.18D-02  6.90D-03  13033.1
                33    -1073.4792010107  5.20D-02  1.01D-02  13483.2
                34    -1073.4794476444  4.71D-02  9.10D-03  13931.5
                35    -1073.4799409822  6.34D-02  8.79D-03  14384.0
                36    -1073.4803076628  6.56D-02  1.29D-02  14836.5
                37    -1073.4807511635  5.65D-02  8.20D-03  15515.2
                38    -1073.4812060320  5.75D-02  1.12D-02  15965.8
                39    -1073.4814942254  6.31D-02  9.41D-03  16417.1
                40    -1073.4819705061  4.75D-02  5.63D-03  16643.4

      Calculation failed to converge
      ------------------------------



       Final RHF  results 
       ------------------ 

         Total SCF energy =  -1073.481970506136
      One-electron energy =  -4783.471561222413
      Two-electron energy =   2042.743261516079
 Nuclear repulsion energy =   1667.246329200198

        Time for solution =  16434.9s


             Final eigenvalues
             -----------------

              1      
    1  -20.6564
    2  -20.6549
    3  -20.6475
    4  -20.6386
    5  -20.5989
    6  -20.5788
    7  -20.5587
    8  -15.6844
    9  -15.6397
   10  -15.6394
   11  -11.4243
   12  -11.4127
   13  -11.4109
   14  -11.4027
   15  -11.3883
   16  -11.3546
   17  -11.3427
   18  -11.3024
   19  -11.2892
   20  -11.2604
   21   -1.4941
   22   -1.4877
   23   -1.4471
   24   -1.4272
   25   -1.4196
   26   -1.3845
   27   -1.3778
   28   -1.3153
   29   -1.2837
   30   -1.2585
   31   -1.1206
   32   -1.0982
   33   -1.0263
   34   -0.9872
   35   -0.9501
   36   -0.8760
   37   -0.8511
   38   -0.8480
   39   -0.8153
   40   -0.8045
   41   -0.7922
   42   -0.7696
   43   -0.7417
   44   -0.7200
   45   -0.7174
   46   -0.7154
   47   -0.7134
   48   -0.7008
   49   -0.6855
   50   -0.6730
   51   -0.6670
   52   -0.6540
   53   -0.6472
   54   -0.6386
   55   -0.6264
   56   -0.6194
   57   -0.6097
   58   -0.6041
   59   -0.5876
   60   -0.5813
   61   -0.5674
   62   -0.5646
   63   -0.5557
   64   -0.5509
   65   -0.5298
   66   -0.5226
   67   -0.4970
   68   -0.4925
   69   -0.4914
   70   -0.4798
   71   -0.4548
   72   -0.4437
   73   -0.4293
   74   -0.4177
   75   -0.3727
   76   -0.2840
   77    0.0261
   78    0.0319
   79    0.0383
   80    0.0393
   81    0.0530
   82    0.0541
   83    0.0579
   84    0.0617
   85    0.0644

                       ROHF Final Molecular Orbital Analysis
                       -------------------------------------

 Vector   21  Occ=2.000000D+00  E=-1.494062D+00
              MO Center=  1.3D+00, -2.6D+00, -1.4D+00, r^2= 1.2D+00
   Bfn.  Coefficient  Atom+Function         Bfn.  Coefficient  Atom+Function  
  ----- ------------  ---------------      ----- ------------  ---------------
   502      0.312985  28 O  s               501      0.291234  28 O  s         
   477      0.268708  27 O  s               451      0.253450  26 C  s         
   476      0.247157  27 O  s               453     -0.199055  26 C  s         

 Vector   22  Occ=2.000000D+00  E=-1.487660D+00
              MO Center= -2.2D-01,  3.7D+00, -1.4D+00, r^2= 1.1D+00
   Bfn.  Coefficient  Atom+Function         Bfn.  Coefficient  Atom+Function  
  ----- ------------  ---------------      ----- ------------  ---------------
   266      0.312998  16 O  s               265      0.293152  16 O  s         
   241      0.263891  15 O  s               215      0.251707  14 C  s         
   240      0.246388  15 O  s               217     -0.220769  14 C  s         

 Vector   23  Occ=2.000000D+00  E=-1.447140D+00
              MO Center= -1.8D+00,  3.2D-01,  5.2D-01, r^2= 1.8D+00
   Bfn.  Coefficient  Atom+Function         Bfn.  Coefficient  Atom+Function  
  ----- ------------  ---------------      ----- ------------  ---------------
   316      0.351534  18 O  s               315      0.330602  18 O  s         
   290      0.238979  17 C  s         

 Vector   24  Occ=2.000000D+00  E=-1.427178D+00
              MO Center= -1.6D+00, -2.9D+00,  9.4D-01, r^2= 1.5D+00
   Bfn.  Coefficient  Atom+Function         Bfn.  Coefficient  Atom+Function  
  ----- ------------  ---------------      ----- ------------  ---------------
   552      0.377071  30 O  s               551      0.345823  30 O  s         
   526      0.242309  29 C  s         

 Vector   25  Occ=2.000000D+00  E=-1.419586D+00
              MO Center=  1.5D+00,  7.1D-01,  1.8D+00, r^2= 1.4D+00
   Bfn.  Coefficient  Atom+Function         Bfn.  Coefficient  Atom+Function  
  ----- ------------  ---------------      ----- ------------  ---------------
    80      0.354686   6 O  s                79      0.341986   6 O  s         
    54      0.244663   5 C  s               139     -0.171919   9 C  s         
   291      0.169493  17 C  s         

 Vector   26  Occ=2.000000D+00  E=-1.384479D+00
              MO Center=  1.3D+00, -2.8D+00, -1.6D+00, r^2= 1.5D+00
   Bfn.  Coefficient  Atom+Function         Bfn.  Coefficient  Atom+Function  
  ----- ------------  ---------------      ----- ------------  ---------------
   477      0.364382  27 O  s               476      0.327818  27 O  s         
   502     -0.303214  28 O  s               501     -0.288691  28 O  s         
   456     -0.185975  26 C  pz              455     -0.172289  26 C  py        

 Vector   27  Occ=2.000000D+00  E=-1.377834D+00
              MO Center= -3.7D-01,  3.9D+00, -1.4D+00, r^2= 1.5D+00
   Bfn.  Coefficient  Atom+Function         Bfn.  Coefficient  Atom+Function  
  ----- ------------  ---------------      ----- ------------  ---------------
   241      0.361799  15 O  s               240      0.328879  15 O  s         
   266     -0.307895  16 O  s               265     -0.288498  16 O  s         
   219      0.197950  14 C  py              218     -0.155598  14 C  px        
   139      0.151268   9 C  s         

 Vector   28  Occ=2.000000D+00  E=-1.315277D+00
              MO Center= -8.7D-01, -2.5D-01,  9.5D-02, r^2= 2.8D+00
   Bfn.  Coefficient  Atom+Function         Bfn.  Coefficient  Atom+Function  
  ----- ------------  ---------------      ----- ------------  ---------------
   341      0.323454  19 N  s               340      0.315901  19 N  s         
   316     -0.239660  18 O  s               315     -0.192328  18 O  s         
   375     -0.173820  21 C  s               293      0.152455  17 C  px        

 Vector   29  Occ=2.000000D+00  E=-1.283749D+00
              MO Center=  8.0D-01,  1.1D+00,  8.3D-01, r^2= 3.1D+00
   Bfn.  Coefficient  Atom+Function         Bfn.  Coefficient  Atom+Function  
  ----- ------------  ---------------      ----- ------------  ---------------
   105      0.381215   7 N  s               104      0.323330   7 N  s         
    80     -0.213964   6 O  s                79     -0.178756   6 O  s         
   341     -0.167308  19 N  s               139     -0.164167   9 C  s         
    59     -0.153186   5 C  pz        

 Vector   30  Occ=2.000000D+00  E=-1.258475D+00
              MO Center= -6.1D-01, -2.2D+00,  1.3D+00, r^2= 2.1D+00
   Bfn.  Coefficient  Atom+Function         Bfn.  Coefficient  Atom+Function  
  ----- ------------  ---------------      ----- ------------  ---------------
   577      0.370871  31 N  s               576      0.362283  31 N  s         
   552     -0.205300  30 O  s               375     -0.172605  21 C  s         
   551     -0.169904  30 O  s               341     -0.166817  19 N  s         
   529      0.161674  29 C  px              600      0.159371  32 H  s         
   528      0.156234  29 C  s               609      0.155403  33 H  s         

 Vector   31  Occ=2.000000D+00  E=-1.120550D+00
              MO Center= -5.7D-01, -6.4D-01, -3.4D-01, r^2= 6.3D+00
   Bfn.  Coefficient  Atom+Function         Bfn.  Coefficient  Atom+Function  
  ----- ------------  ---------------      ----- ------------  ---------------
   408      0.212533  23 C  s               374      0.209182  21 C  s         

 Vector   32  Occ=2.000000D+00  E=-1.098233D+00
              MO Center= -2.7D-01,  9.6D-01,  7.7D-02, r^2= 7.7D+00
   Bfn.  Coefficient  Atom+Function         Bfn.  Coefficient  Atom+Function  
  ----- ------------  ---------------      ----- ------------  ---------------
   172      0.220474  11 C  s               138      0.195128   9 C  s         
   408      0.164052  23 C  s                12     -0.154551   2 C  s         

 Vector   33  Occ=2.000000D+00  E=-1.026272D+00
              MO Center=  2.1D+00,  1.3D+00,  6.7D-01, r^2= 5.1D+00
   Bfn.  Coefficient  Atom+Function         Bfn.  Coefficient  Atom+Function  
  ----- ------------  ---------------      ----- ------------  ---------------
    11      0.313194   2 C  s               172      0.169090  11 C  s         
    55      0.163350   5 C  s                57      0.152740   5 C  px        

 Vector   34  Occ=2.000000D+00  E=-9.871792D-01
              MO Center= -4.3D-01, -1.0D+00, -5.8D-01, r^2= 7.3D+00
   Bfn.  Coefficient  Atom+Function         Bfn.  Coefficient  Atom+Function  
  ----- ------------  ---------------      ----- ------------  ---------------
   409      0.255246  23 C  s               408      0.217549  23 C  s         
   382     -0.191422  21 C  pz              374     -0.165208  21 C  s         
   414      0.152062  23 C  px        

 Vector   35  Occ=2.000000D+00  E=-9.501336D-01
              MO Center= -3.2D-01,  7.8D-01,  2.1D-01, r^2= 8.4D+00
   Bfn.  Coefficient  Atom+Function         Bfn.  Coefficient  Atom+Function  
  ----- ------------  ---------------      ----- ------------  ---------------
   375     -0.229610  21 C  s               173      0.215083  11 C  s         
   138     -0.192199   9 C  s               172      0.153857  11 C  s         

 Vector   36  Occ=2.000000D+00  E=-8.759731D-01
              MO Center= -5.3D-01, -2.4D-01,  1.4D-01, r^2= 5.3D+00
   Bfn.  Coefficient  Atom+Function         Bfn.  Coefficient  Atom+Function  
  ----- ------------  ---------------      ----- ------------  ---------------
   375      0.235971  21 C  s               364     -0.202454  20 H  s         
   343     -0.198758  19 N  px              344      0.191689  19 N  py        
   290      0.180577  17 C  s               297     -0.174901  17 C  py        
   316     -0.163923  18 O  s               345      0.158108  19 N  pz        

 Vector   37  Occ=2.000000D+00  E=-8.510963D-01
              MO Center= -6.8D-01, -1.8D+00,  4.9D-01, r^2= 4.0D+00
   Bfn.  Coefficient  Atom+Function         Bfn.  Coefficient  Atom+Function  
  ----- ------------  ---------------      ----- ------------  ---------------
   291      0.241741  17 C  s               581      0.224867  31 N  pz        
   534     -0.218011  29 C  pz              343     -0.208017  19 N  px        
   609      0.196812  33 H  s               382     -0.194109  21 C  pz        
   526     -0.193389  29 C  s               381      0.184174  21 C  py        
   364     -0.180217  20 H  s               579      0.175354  31 N  px        

 Vector   38  Occ=2.000000D+00  E=-8.480471D-01
              MO Center=  9.1D-01,  1.4D+00,  6.0D-01, r^2= 3.4D+00
   Bfn.  Coefficient  Atom+Function         Bfn.  Coefficient  Atom+Function  
  ----- ------------  ---------------      ----- ------------  ---------------
   109      0.277589   7 N  pz              128     -0.263595   8 H  s         
   105     -0.204978   7 N  s                55      0.203658   5 C  s         
    54      0.188602   5 C  s               108     -0.185192   7 N  py        
   129     -0.177340   8 H  s                80     -0.161355   6 O  s         
    60     -0.160462   5 C  px        

 Vector   39  Occ=2.000000D+00  E=-8.153334D-01
              MO Center=  4.8D-01, -1.2D+00, -9.1D-01, r^2= 8.2D+00
   Bfn.  Coefficient  Atom+Function         Bfn.  Coefficient  Atom+Function  
  ----- ------------  ---------------      ----- ------------  ---------------
   502     -0.235194  28 O  s               451      0.225790  26 C  s         
   477     -0.203342  27 O  s               506     -0.173552  28 O  pz        
   505     -0.152206  28 O  py        

 Vector   40  Occ=2.000000D+00  E=-8.044864D-01
              MO Center= -9.1D-03,  2.5D+00, -9.1D-01, r^2= 7.7D+00
   Bfn.  Coefficient  Atom+Function         Bfn.  Coefficient  Atom+Function  
  ----- ------------  ---------------      ----- ------------  ---------------
   266     -0.261377  16 O  s               215      0.238397  14 C  s         
   241     -0.212147  15 O  s               268     -0.211948  16 O  px        
   244     -0.180860  15 O  py              216      0.157516  14 C  s         
   269      0.158115  16 O  py              265     -0.150694  16 O  s         

 Vector   41  Occ=2.000000D+00  E=-7.921574D-01
              MO Center= -4.3D-01, -1.8D+00,  9.0D-01, r^2= 4.7D+00
   Bfn.  Coefficient  Atom+Function         Bfn.  Coefficient  Atom+Function  
  ----- ------------  ---------------      ----- ------------  ---------------
   600      0.301223  32 H  s               579      0.254313  31 N  px        
   580      0.253237  31 N  py              527     -0.205672  29 C  s         
   531     -0.204517  29 C  pz              528      0.164883  29 C  s         

 Vector   42  Occ=2.000000D+00  E=-7.695823D-01
              MO Center= -1.4D-01, -2.3D-01,  3.4D-01, r^2= 7.5D+00
   Bfn.  Coefficient  Atom+Function         Bfn.  Coefficient  Atom+Function  
  ----- ------------  ---------------      ----- ------------  ---------------
   144      0.230828   9 C  px              291      0.226542  17 C  s         
   294     -0.199634  17 C  py               55      0.195794   5 C  s         
   145      0.166257   9 C  py              609     -0.154987  33 H  s         
   452     -0.150387  26 C  s         

 Vector   43  Occ=2.000000D+00  E=-7.416898D-01
              MO Center= -7.6D-01, -5.5D-01,  1.6D-01, r^2= 7.6D+00
   Bfn.  Coefficient  Atom+Function         Bfn.  Coefficient  Atom+Function  
  ----- ------------  ---------------      ----- ------------  ---------------
   318      0.203733  18 O  px              381      0.197024  21 C  py        
   316     -0.190544  18 O  s               144     -0.176908   9 C  px        
   344     -0.175717  19 N  py               55     -0.160630   5 C  s         
   378      0.159381  21 C  py              527      0.151267  29 C  s         

 Vector   44  Occ=2.000000D+00  E=-7.200193D-01
              MO Center=  7.1D-01, -2.4D+00, -1.2D+00, r^2= 6.2D+00
   Bfn.  Coefficient  Atom+Function         Bfn.  Coefficient  Atom+Function  
  ----- ------------  ---------------      ----- ------------  ---------------
   504      0.249731  28 O  px              481      0.242252  27 O  pz        
   480      0.219867  27 O  py              477     -0.218674  27 O  s         
   455     -0.193746  26 C  py              454      0.167409  26 C  px        
   507      0.161425  28 O  px              456     -0.157631  26 C  pz        

 Vector   45  Occ=2.000000D+00  E=-7.173587D-01
              MO Center=  2.4D-01, -1.3D+00, -4.4D-01, r^2= 1.0D+01
   Bfn.  Coefficient  Atom+Function         Bfn.  Coefficient  Atom+Function  
  ----- ------------  ---------------      ----- ------------  ---------------
   479      0.203452  27 O  px              505     -0.174601  28 O  py        
   506     -0.163378  28 O  pz              581     -0.161462  31 N  pz        
   454      0.159454  26 C  px              375     -0.156965  21 C  s         
   456      0.155426  26 C  pz              609     -0.155456  33 H  s         

 Vector   46  Occ=2.000000D+00  E=-7.153950D-01
              MO Center=  1.9D-01,  2.7D+00, -5.4D-01, r^2= 8.4D+00
   Bfn.  Coefficient  Atom+Function         Bfn.  Coefficient  Atom+Function  
  ----- ------------  ---------------      ----- ------------  ---------------
   244      0.250859  15 O  py              219     -0.217884  14 C  py        
   270      0.209316  16 O  pz              241      0.201010  15 O  s         
   218      0.180770  14 C  px              245     -0.174191  15 O  pz        
   268     -0.172682  16 O  px              266     -0.170103  16 O  s         

 Vector   47  Occ=2.000000D+00  E=-7.134001D-01
              MO Center=  1.0D-01,  1.3D+00, -6.2D-01, r^2= 1.1D+01
   Bfn.  Coefficient  Atom+Function         Bfn.  Coefficient  Atom+Function  
  ----- ------------  ---------------      ----- ------------  ---------------
   220      0.217000  14 C  pz              269     -0.185409  16 O  py        
   177     -0.178966  11 C  pz              139      0.152013   9 C  s         
   180     -0.152318  11 C  pz        

 Vector   48  Occ=2.000000D+00  E=-7.008377D-01
              MO Center=  1.1D+00,  1.7D+00,  6.1D-01, r^2= 8.8D+00
   Bfn.  Coefficient  Atom+Function         Bfn.  Coefficient  Atom+Function  
  ----- ------------  ---------------      ----- ------------  ---------------
    84      0.218328   6 O  pz               80      0.209504   6 O  s         
   244      0.206569  15 O  py               82     -0.191995   6 O  px        
    17      0.174308   2 C  px              219     -0.172337  14 C  py        
    57     -0.158797   5 C  px        

 Vector   49  Occ=2.000000D+00  E=-6.855414D-01
              MO Center= -5.2D-01, -6.2D-01, -3.8D-01, r^2= 9.2D+00
   Bfn.  Coefficient  Atom+Function         Bfn.  Coefficient  Atom+Function  
  ----- ------------  ---------------      ----- ------------  ---------------
   318      0.204533  18 O  px              377      0.162302  21 C  px        
   375     -0.153122  21 C  s         

 Vector   50  Occ=2.000000D+00  E=-6.729962D-01
              MO Center= -3.9D-01, -1.2D-01, -2.4D-01, r^2= 1.1D+01
   Bfn.  Coefficient  Atom+Function         Bfn.  Coefficient  Atom+Function  
  ----- ------------  ---------------      ----- ------------  ---------------
   173      0.186596  11 C  s               555     -0.164860  30 O  py        
   441     -0.154746  25 H  s               143     -0.150409   9 C  pz        

 Vector   51  Occ=2.000000D+00  E=-6.670242D-01
              MO Center= -9.4D-01, -8.1D-03,  5.7D-01, r^2= 8.0D+00
   Bfn.  Coefficient  Atom+Function         Bfn.  Coefficient  Atom+Function  
  ----- ------------  ---------------      ----- ------------  ---------------
   318      0.278274  18 O  px              293     -0.240871  17 C  px        
   316     -0.187162  18 O  s               320     -0.159414  18 O  pz        

 Vector   52  Occ=2.000000D+00  E=-6.540463D-01
              MO Center=  5.0D-01,  9.2D-01,  6.1D-01, r^2= 9.8D+00
   Bfn.  Coefficient  Atom+Function         Bfn.  Coefficient  Atom+Function  
  ----- ------------  ---------------      ----- ------------  ---------------
    15      0.172938   2 C  py              163      0.172670  10 H  s         
    58      0.167075   5 C  py              205     -0.163613  13 H  s         

 Vector   53  Occ=2.000000D+00  E=-6.472007D-01
              MO Center= -4.9D-01, -4.9D-01, -8.8D-02, r^2= 1.1D+01
   Bfn.  Coefficient  Atom+Function         Bfn.  Coefficient  Atom+Function  
  ----- ------------  ---------------      ----- ------------  ---------------
   555      0.178712  30 O  py              399     -0.162809  22 H  s         
   344     -0.159951  19 N  py              342      0.153106  19 N  s         

 Vector   54  Occ=2.000000D+00  E=-6.385890D-01
              MO Center= -5.3D-02, -6.6D-01,  4.4D-01, r^2= 1.0D+01
   Bfn.  Coefficient  Atom+Function         Bfn.  Coefficient  Atom+Function  
  ----- ------------  ---------------      ----- ------------  ---------------
   554     -0.209905  30 O  px              530      0.199171  29 C  py        
   173      0.151382  11 C  s         

 Vector   55  Occ=2.000000D+00  E=-6.263661D-01
              MO Center= -7.3D-01, -2.1D+00, -4.4D-01, r^2= 5.0D+00
   Bfn.  Coefficient  Atom+Function         Bfn.  Coefficient  Atom+Function  
  ----- ------------  ---------------      ----- ------------  ---------------
   377      0.233158  21 C  px              412      0.200507  23 C  py        
   398     -0.188773  22 H  s               432     -0.151297  24 H  s         
   480      0.150786  27 O  py        

 Vector   56  Occ=2.000000D+00  E=-6.193569D-01
              MO Center= -1.2D-02,  9.5D-01,  2.4D-01, r^2= 1.0D+01
   Bfn.  Coefficient  Atom+Function         Bfn.  Coefficient  Atom+Function  
  ----- ------------  ---------------      ----- ------------  ---------------
   139      0.196619   9 C  s               293     -0.151883  17 C  px        

 Vector   57  Occ=2.000000D+00  E=-6.096939D-01
              MO Center= -1.1D-01,  5.1D-01,  2.0D-01, r^2= 1.0D+01
   Bfn.  Coefficient  Atom+Function         Bfn.  Coefficient  Atom+Function  
  ----- ------------  ---------------      ----- ------------  ---------------
   139      0.214551   9 C  s               382      0.177278  21 C  pz        
    16     -0.173137   2 C  pz              176     -0.150719  11 C  py        

 Vector   58  Occ=2.000000D+00  E=-6.041404D-01
              MO Center=  1.1D+00,  8.2D-01,  1.1D+00, r^2= 6.1D+00
   Bfn.  Coefficient  Atom+Function         Bfn.  Coefficient  Atom+Function  
  ----- ------------  ---------------      ----- ------------  ---------------
    84      0.281894   6 O  pz               59     -0.207138   5 C  pz        
   128     -0.169869   8 H  s               129     -0.169888   8 H  s         
    57      0.161407   5 C  px              143     -0.157341   9 C  pz        
    16      0.150813   2 C  pz               80      0.150784   6 O  s         

 Vector   59  Occ=2.000000D+00  E=-5.875800D-01
              MO Center=  1.4D+00,  2.4D-02,  2.3D-01, r^2= 1.1D+01
   Bfn.  Coefficient  Atom+Function         Bfn.  Coefficient  Atom+Function  
  ----- ------------  ---------------      ----- ------------  ---------------
     1      0.268148   1 H  s                 2      0.267278   1 H  s         
    15     -0.221344   2 C  py               16      0.189688   2 C  pz        
    44     -0.181477   4 H  s                56     -0.164312   5 C  s         
   173     -0.157681  11 C  s                13     -0.150620   2 C  s         

 Vector   60  Occ=2.000000D+00  E=-5.812960D-01
              MO Center=  2.3D-01, -1.6D+00, -3.4D-01, r^2= 9.2D+00
   Bfn.  Coefficient  Atom+Function         Bfn.  Coefficient  Atom+Function  
  ----- ------------  ---------------      ----- ------------  ---------------
   412      0.220882  23 C  py              432     -0.207254  24 H  s         
   442      0.207399  25 H  s               433     -0.202467  24 H  s         
   350      0.180452  19 N  py              528      0.172666  29 C  s         
    15     -0.160008   2 C  py              554     -0.156146  30 O  px        

 Vector   61  Occ=2.000000D+00  E=-5.673742D-01
              MO Center= -4.5D-01, -2.0D+00, -5.0D-01, r^2= 6.4D+00
   Bfn.  Coefficient  Atom+Function         Bfn.  Coefficient  Atom+Function  
  ----- ------------  ---------------      ----- ------------  ---------------
   413      0.251423  23 C  pz              441     -0.214849  25 H  s         
   556      0.187642  30 O  pz              505      0.174559  28 O  py        
   433      0.171091  24 H  s               379     -0.151460  21 C  pz        
   580      0.152001  31 N  py              410     -0.151124  23 C  s         

 Vector   62  Occ=2.000000D+00  E=-5.646130D-01
              MO Center= -3.0D-01,  1.1D+00,  3.3D-01, r^2= 9.2D+00
   Bfn.  Coefficient  Atom+Function         Bfn.  Coefficient  Atom+Function  
  ----- ------------  ---------------      ----- ------------  ---------------
   175      0.180749  11 C  px              143     -0.155041   9 C  pz        
     1      0.150864   1 H  s                 2      0.150727   1 H  s         
   196     -0.150035  12 H  s         

 Vector   63  Occ=2.000000D+00  E=-5.557066D-01
              MO Center= -6.7D-01,  2.6D+00, -1.9D-01, r^2= 6.2D+00
   Bfn.  Coefficient  Atom+Function         Bfn.  Coefficient  Atom+Function  
  ----- ------------  ---------------      ----- ------------  ---------------
   197      0.248598  12 H  s               205     -0.241513  13 H  s         
   175     -0.221124  11 C  px              196      0.203719  12 H  s         
   319     -0.196062  18 O  py              206     -0.186026  13 H  s         
   176     -0.182262  11 C  py              113     -0.173168   7 N  px        
   268      0.162000  16 O  px              322     -0.157665  18 O  py        

 Vector   64  Occ=2.000000D+00  E=-5.509076D-01
              MO Center=  1.7D+00,  9.2D-01,  7.9D-01, r^2= 5.8D+00
   Bfn.  Coefficient  Atom+Function         Bfn.  Coefficient  Atom+Function  
  ----- ------------  ---------------      ----- ------------  ---------------
    35      0.241947   3 H  s                36      0.228109   3 H  s         
   108      0.197240   7 N  py               83      0.186618   6 O  py        
    15     -0.181902   2 C  py               45     -0.175283   4 H  s         
   111      0.170982   7 N  py               44     -0.169454   4 H  s         
    16     -0.165957   2 C  pz              139     -0.161353   9 C  s         

 Vector   65  Occ=2.000000D+00  E=-5.298372D-01
              MO Center=  1.0D+00, -2.2D+00, -1.3D+00, r^2= 5.0D+00
   Bfn.  Coefficient  Atom+Function         Bfn.  Coefficient  Atom+Function  
  ----- ------------  ---------------      ----- ------------  ---------------
   481      0.345271  27 O  pz              505      0.342372  28 O  py        
   504     -0.272480  28 O  px              508      0.267894  28 O  py        
   484      0.254351  27 O  pz              507     -0.238822  28 O  px        
   479      0.235080  27 O  px              482      0.199290  27 O  px        
   471      0.189730  26 C  dxz             442     -0.182678  25 H  s         

 Vector   66  Occ=2.000000D+00  E=-5.226326D-01
              MO Center= -1.8D-01,  3.3D+00, -1.1D+00, r^2= 4.6D+00
   Bfn.  Coefficient  Atom+Function         Bfn.  Coefficient  Atom+Function  
  ----- ------------  ---------------      ----- ------------  ---------------
   173      0.339906  11 C  s               245     -0.333806  15 O  pz        
   270      0.303830  16 O  pz              269     -0.281636  16 O  py        
   248     -0.275318  15 O  pz              273      0.264955  16 O  pz        
   113     -0.245086   7 N  px              272     -0.233164  16 O  py        
   206     -0.225814  13 H  s               237      0.209590  14 C  dyz       

 Vector   67  Occ=2.000000D+00  E=-4.970043D-01
              MO Center= -3.8D-01, -8.5D-02, -1.4D-02, r^2= 9.6D+00
   Bfn.  Coefficient  Atom+Function         Bfn.  Coefficient  Atom+Function  
  ----- ------------  ---------------      ----- ------------  ---------------
   319     -0.318679  18 O  py              139      0.306934   9 C  s         
   322     -0.254575  18 O  py              479      0.207017  27 O  px        
   504      0.197404  28 O  px               83      0.177341   6 O  py        
   163     -0.150347  10 H  s         

 Vector   68  Occ=2.000000D+00  E=-4.925124D-01
              MO Center=  2.6D-02, -1.2D+00, -5.5D-01, r^2= 8.9D+00
   Bfn.  Coefficient  Atom+Function         Bfn.  Coefficient  Atom+Function  
  ----- ------------  ---------------      ----- ------------  ---------------
   479      0.295249  27 O  px              504      0.244153  28 O  px        
   319      0.221173  18 O  py              411      0.211783  23 C  px        
   482      0.206258  27 O  px              320      0.189242  18 O  pz        
   399      0.186177  22 H  s               139     -0.174157   9 C  s         
   322      0.174084  18 O  py              507      0.171002  28 O  px        

 Vector   69  Occ=2.000000D+00  E=-4.914112D-01
              MO Center= -4.4D-01,  2.5D+00, -6.1D-01, r^2= 8.7D+00
   Bfn.  Coefficient  Atom+Function         Bfn.  Coefficient  Atom+Function  
  ----- ------------  ---------------      ----- ------------  ---------------
   245      0.307457  15 O  pz              177      0.260028  11 C  pz        
   270      0.240572  16 O  pz              248      0.214722  15 O  pz        
   220     -0.197261  14 C  pz              217     -0.179939  14 C  s         
   223     -0.170442  14 C  pz              174      0.167195  11 C  s         
   216     -0.166770  14 C  s               273      0.165776  16 O  pz        

 Vector   70  Occ=2.000000D+00  E=-4.798236D-01
              MO Center= -1.6D+00, -1.7D+00,  5.5D-01, r^2= 6.9D+00
   Bfn.  Coefficient  Atom+Function         Bfn.  Coefficient  Atom+Function  
  ----- ------------  ---------------      ----- ------------  ---------------
   556      0.410340  30 O  pz              559      0.319368  30 O  pz        
   399     -0.227319  22 H  s               320     -0.202688  18 O  pz        
   375      0.181162  21 C  s               345      0.169194  19 N  pz        
   348      0.168504  19 N  pz              554      0.157459  30 O  px        
   323     -0.155766  18 O  pz        

 Vector   71  Occ=2.000000D+00  E=-4.547877D-01
              MO Center=  1.7D+00,  5.2D-01,  1.9D+00, r^2= 2.8D+00
   Bfn.  Coefficient  Atom+Function         Bfn.  Coefficient  Atom+Function  
  ----- ------------  ---------------      ----- ------------  ---------------
    82      0.492423   6 O  px               85      0.389829   6 O  px        
   105      0.262222   7 N  s                83     -0.216703   6 O  py        
    13      0.207122   2 C  s                17      0.197005   2 C  px        
    63     -0.184621   5 C  px               14      0.176833   2 C  px        
    86     -0.172372   6 O  py              144     -0.166653   9 C  px        

 Vector   72  Occ=2.000000D+00  E=-4.437026D-01
              MO Center= -1.1D+00, -2.1D+00,  1.0D+00, r^2= 4.6D+00
   Bfn.  Coefficient  Atom+Function         Bfn.  Coefficient  Atom+Function  
  ----- ------------  ---------------      ----- ------------  ---------------
   579      0.248956  31 N  px              580     -0.240821  31 N  py        
   583     -0.223949  31 N  py              554     -0.219950  30 O  px        
   555      0.204119  30 O  py              556      0.199309  30 O  pz        
   410     -0.193610  23 C  s               582      0.194281  31 N  px        
   409     -0.173996  23 C  s               558      0.172559  30 O  py        

 Vector   73  Occ=2.000000D+00  E=-4.293415D-01
              MO Center=  5.1D-01,  1.1D+00,  1.0D+00, r^2= 4.3D+00
   Bfn.  Coefficient  Atom+Function         Bfn.  Coefficient  Atom+Function  
  ----- ------------  ---------------      ----- ------------  ---------------
   108      0.344666   7 N  py              111      0.332702   7 N  py        
    83     -0.247091   6 O  py              319     -0.206238  18 O  py        
   106      0.194531   7 N  s                86     -0.193149   6 O  py        
   109      0.174591   7 N  pz              145     -0.174761   9 C  py        
   322     -0.167374  18 O  py               82     -0.156994   6 O  px        

 Vector   74  Occ=2.000000D+00  E=-4.176812D-01
              MO Center= -6.9D-01, -1.8D+00, -1.4D-01, r^2= 7.3D+00
   Bfn.  Coefficient  Atom+Function         Bfn.  Coefficient  Atom+Function  
  ----- ------------  ---------------      ----- ------------  ---------------
   345      0.243187  19 N  pz              348      0.238832  19 N  pz        
   556     -0.191642  30 O  pz              320     -0.184569  18 O  pz        
   480      0.177272  27 O  py              554     -0.172213  30 O  px        
   399      0.165839  22 H  s               555      0.160142  30 O  py        
   342     -0.151400  19 N  s         

 Vector   75  Occ=2.000000D+00  E=-3.727477D-01
              MO Center=  2.5D-01,  1.0D+00, -1.3D+00, r^2= 1.4D+01
   Bfn.  Coefficient  Atom+Function         Bfn.  Coefficient  Atom+Function  
  ----- ------------  ---------------      ----- ------------  ---------------
   350      0.313484  19 N  py              243      0.280076  15 O  px        
   246      0.224482  15 O  px              269     -0.210456  16 O  py        
   506      0.207353  28 O  pz              480      0.205940  27 O  py        
   268     -0.199483  16 O  px              272     -0.176656  16 O  py        
   509      0.173041  28 O  pz              271     -0.165191  16 O  px        

 Vector   76  Occ=0.000000D+00  E=-2.840281D-01
              MO Center=  1.9D-01,  2.0D-01, -1.0D+00, r^2= 1.3D+01
   Bfn.  Coefficient  Atom+Function         Bfn.  Coefficient  Atom+Function  
  ----- ------------  ---------------      ----- ------------  ---------------
   243      0.224282  15 O  px              506     -0.216829  28 O  pz        
   480     -0.205573  27 O  py              528      0.197030  29 C  s         
   269     -0.187192  16 O  py              246      0.180144  15 O  px        
   509     -0.179225  28 O  pz              268     -0.172847  16 O  px        
   342     -0.167418  19 N  s               366     -0.162677  20 H  s         

 Vector   77  Occ=0.000000D+00  E= 2.607716D-02
              MO Center=  1.3D+00,  1.5D+00, -4.0D-01, r^2= 3.2D+01
   Bfn.  Coefficient  Atom+Function         Bfn.  Coefficient  Atom+Function  
  ----- ------------  ---------------      ----- ------------  ---------------
   217      4.858367  14 C  s               528      3.597928  29 C  s         
   147      2.927544   9 C  px               63      2.211872   5 C  px        
   300      2.217513  17 C  py              453      2.094343  26 C  s         
   443     -1.964613  25 H  s                46     -1.716285   4 H  s         
   376      1.561867  21 C  s               183      1.534690  11 C  pz        

 Vector   78  Occ=0.000000D+00  E= 3.185375D-02
              MO Center= -2.7D-01,  3.1D-01, -1.6D+00, r^2= 3.5D+01
   Bfn.  Coefficient  Atom+Function         Bfn.  Coefficient  Atom+Function  
  ----- ------------  ---------------      ----- ------------  ---------------
   300      4.968049  17 C  py              410      4.079058  23 C  s         
   385      3.315976  21 C  pz              443      3.236799  25 H  s         
   528     -3.099531  29 C  s               366     -3.075120  20 H  s         
   147      2.495435   9 C  px              419      2.479759  23 C  pz        
   207     -2.457326  13 H  s               130      1.847583   8 H  s         

 Vector   79  Occ=0.000000D+00  E= 3.827378D-02
              MO Center=  1.1D+00, -1.0D+00,  2.5D+00, r^2= 3.3D+01
   Bfn.  Coefficient  Atom+Function         Bfn.  Coefficient  Atom+Function  
  ----- ------------  ---------------      ----- ------------  ---------------
   217      3.020494  14 C  s               611      2.670053  33 H  s         
   174     -2.506007  11 C  s               578      2.450430  31 N  s         
    63     -2.366713   5 C  px                3      2.240844   1 H  s         
   207     -1.990523  13 H  s               350      1.728725  19 N  py        
   148      1.673427   9 C  py              182      1.634685  11 C  py        

 Vector   80  Occ=0.000000D+00  E= 3.928177D-02
              MO Center=  8.0D-01,  8.7D-01,  1.5D+00, r^2= 3.5D+01
   Bfn.  Coefficient  Atom+Function         Bfn.  Coefficient  Atom+Function  
  ----- ------------  ---------------      ----- ------------  ---------------
    63      3.872681   5 C  px              147      3.139380   9 C  px        
   164      2.823259  10 H  s                37     -2.245014   3 H  s         
   148     -2.107551   9 C  py               46     -1.947175   4 H  s         
   611      1.816508  33 H  s               149     -1.801967   9 C  pz        
    12      1.609171   2 C  s               578      1.423288  31 N  s         

 Vector   81  Occ=0.000000D+00  E= 5.303181D-02
              MO Center= -2.0D-01, -1.5D+00, -1.2D+00, r^2= 3.6D+01
   Bfn.  Coefficient  Atom+Function         Bfn.  Coefficient  Atom+Function  
  ----- ------------  ---------------      ----- ------------  ---------------
   217      4.566655  14 C  s               528      4.225197  29 C  s         
   578     -4.095658  31 N  s               400      3.769300  22 H  s         
   434      3.737238  24 H  s               130     -3.421247   8 H  s         
    37     -2.862713   3 H  s               174     -2.770614  11 C  s         
   300      2.734088  17 C  py              443     -2.605680  25 H  s         

 Vector   82  Occ=0.000000D+00  E= 5.412660D-02
              MO Center= -2.0D-01, -2.4D-01, -8.1D-02, r^2= 4.3D+01
   Bfn.  Coefficient  Atom+Function         Bfn.  Coefficient  Atom+Function  
  ----- ------------  ---------------      ----- ------------  ---------------
   198      4.125353  12 H  s               147     -3.541918   9 C  px        
   434     -3.450127  24 H  s                 3      3.216680   1 H  s         
   300     -2.944178  17 C  py              410     -2.802799  23 C  s         
   181      2.774685  11 C  px              453      2.664070  26 C  s         
   400      2.571734  22 H  s               217     -2.468011  14 C  s         

 Vector   83  Occ=0.000000D+00  E= 5.789360D-02
              MO Center=  1.0D+00,  7.1D-02,  4.3D-01, r^2= 4.0D+01
   Bfn.  Coefficient  Atom+Function         Bfn.  Coefficient  Atom+Function  
  ----- ------------  ---------------      ----- ------------  ---------------
   217      4.041547  14 C  s               400     -3.643777  22 H  s         
   410      3.506195  23 C  s               174     -3.449053  11 C  s         
    46     -3.431520   4 H  s                 3      3.211039   1 H  s         
   383     -2.831794  21 C  px              528     -2.542680  29 C  s         
    13      2.311157   2 C  s               300     -2.261258  17 C  py        

 Vector   84  Occ=0.000000D+00  E= 6.171251D-02
              MO Center=  9.3D-02, -1.7D-01, -8.4D-01, r^2= 4.0D+01
   Bfn.  Coefficient  Atom+Function         Bfn.  Coefficient  Atom+Function  
  ----- ------------  ---------------      ----- ------------  ---------------
    37      5.544634   3 H  s               410      5.159929  23 C  s         
   434      3.877631  24 H  s               443     -3.887111  25 H  s         
   198      3.680755  12 H  s               453     -3.670633  26 C  s         
   418      3.554909  23 C  py               63     -2.980640   5 C  px        
   342     -2.757194  19 N  s               147     -2.617474   9 C  px        

 Vector   85  Occ=0.000000D+00  E= 6.442766D-02
              MO Center=  2.6D-02,  2.0D+00,  1.9D+00, r^2= 3.1D+01
   Bfn.  Coefficient  Atom+Function         Bfn.  Coefficient  Atom+Function  
  ----- ------------  ---------------      ----- ------------  ---------------
   164      7.305964  10 H  s               217      5.209600  14 C  s         
   147      4.923425   9 C  px              149     -4.814102   9 C  pz        
    56     -4.187477   5 C  s               207     -3.786590  13 H  s         
   300      3.312246  17 C  py               37      3.242930   3 H  s         
   183      3.255927  11 C  pz               13     -3.085901   2 C  s         

 Vector   86  Occ=0.000000D+00  E= 7.381611D-02
              MO Center= -8.5D-01,  7.9D-01, -5.6D-01, r^2= 4.1D+01
   Bfn.  Coefficient  Atom+Function         Bfn.  Coefficient  Atom+Function  
  ----- ------------  ---------------      ----- ------------  ---------------
   400      5.603484  22 H  s               198     -4.665025  12 H  s         
   207      4.575702  13 H  s                37      4.523264   3 H  s         
   383      4.332524  21 C  px               46     -3.392517   4 H  s         
   410     -3.321665  23 C  s               181     -2.553914  11 C  px        
   342      2.486356  19 N  s               164     -2.394111  10 H  s         

 Vector   87  Occ=0.000000D+00  E= 8.067856D-02
              MO Center=  1.0D+00,  9.6D-01,  1.8D-02, r^2= 3.8D+01
   Bfn.  Coefficient  Atom+Function         Bfn.  Coefficient  Atom+Function  
  ----- ------------  ---------------      ----- ------------  ---------------
   217      9.373922  14 C  s               130     -6.523067   8 H  s         
   410     -4.902827  23 C  s               602     -4.486000  32 H  s         
    56      4.297884   5 C  s               453      4.286266  26 C  s         
   174     -4.049221  11 C  s               164     -3.327633  10 H  s         
   207      3.219807  13 H  s                63     -3.033005   5 C  px        

 Vector   88  Occ=0.000000D+00  E= 8.789745D-02
              MO Center=  1.2D+00,  2.1D-01, -1.0D+00, r^2= 3.5D+01
   Bfn.  Coefficient  Atom+Function         Bfn.  Coefficient  Atom+Function  
  ----- ------------  ---------------      ----- ------------  ---------------
   366     11.249400  20 H  s               453    -10.625248  26 C  s         
   410      9.758053  23 C  s               217      8.116294  14 C  s         
   174     -7.765200  11 C  s                56     -5.087708   5 C  s         
   130     -4.660860   8 H  s                63      3.863371   5 C  px        
    37     -3.732044   3 H  s               147      3.275563   9 C  px        

 Vector   89  Occ=0.000000D+00  E= 9.487321D-02
              MO Center=  2.1D-01, -1.6D+00,  8.7D-01, r^2= 3.3D+01
   Bfn.  Coefficient  Atom+Function         Bfn.  Coefficient  Atom+Function  
[...]
   217     15.250979  14 C  s               366     -9.858834  20 H  s         
   528      9.538076  29 C  s               301      8.160549  17 C  pz        
   300     -6.712598  17 C  py              147      6.664170   9 C  px        
   537     -6.433595  29 C  pz              385     -6.215357  21 C  pz        
   384      6.052356  21 C  py              174     -5.753512  11 C  s         

 Vector  176  Occ=0.000000D+00  E= 4.157848D-01
              MO Center= -4.2D-01,  1.1D+00,  3.3D-01, r^2= 2.2D+01
   Bfn.  Coefficient  Atom+Function         Bfn.  Coefficient  Atom+Function  
  ----- ------------  ---------------      ----- ------------  ---------------
   106     15.778720   7 N  s               528    -14.745611  29 C  s         
   453      8.941814  26 C  s               300     -8.683194  17 C  py        
   385      7.891998  21 C  pz              140      7.640768   9 C  s         
   114     -7.162401   7 N  py              148      7.024991   9 C  py        
   139     -6.498247   9 C  s               578      5.860504  31 N  s         

 Vector  177  Occ=0.000000D+00  E= 4.189313D-01
              MO Center=  8.3D-02,  7.1D-01,  1.6D-01, r^2= 2.3D+01
   Bfn.  Coefficient  Atom+Function         Bfn.  Coefficient  Atom+Function  
  ----- ------------  ---------------      ----- ------------  ---------------
   342     14.518433  19 N  s                56     12.725907   5 C  s         
   366    -12.744708  20 H  s               148     10.522738   9 C  py        
   115     -7.429512   7 N  pz              147     -7.413344   9 C  px        
   385     -7.060945  21 C  pz              114      6.337081   7 N  py        
   300     -6.328381  17 C  py              267     -6.178457  16 O  s         

 Vector  178  Occ=0.000000D+00  E= 4.247190D-01
              MO Center=  5.7D-01, -3.2D-01, -1.5D-01, r^2= 2.0D+01
   Bfn.  Coefficient  Atom+Function         Bfn.  Coefficient  Atom+Function  
  ----- ------------  ---------------      ----- ------------  ---------------
   410    -17.570946  23 C  s               366     16.510954  20 H  s         
   342     15.583338  19 N  s                56     14.239580   5 C  s         
   217    -11.467663  14 C  s               106    -10.424371   7 N  s         
    63     -8.105006   5 C  px              453     -7.327145  26 C  s         
   140     -7.129513   9 C  s               147     -6.719572   9 C  px        

 Vector  179  Occ=0.000000D+00  E= 4.300373D-01
              MO Center=  3.3D-01, -3.7D-01,  3.3D-01, r^2= 2.0D+01
   Bfn.  Coefficient  Atom+Function         Bfn.  Coefficient  Atom+Function  
  ----- ------------  ---------------      ----- ------------  ---------------
   453     19.572085  26 C  s               528    -19.640403  29 C  s         
   385     11.224130  21 C  pz              342      8.048678  19 N  s         
   417     -7.968635  23 C  px              503     -6.929012  28 O  s         
    36     -6.551373   3 H  s               149      6.226655   9 C  pz        
    12      5.725351   2 C  s               376     -5.423649  21 C  s         

 Vector  180  Occ=0.000000D+00  E= 4.308052D-01
              MO Center=  1.5D+00,  4.4D-01,  4.1D-01, r^2= 2.0D+01
   Bfn.  Coefficient  Atom+Function         Bfn.  Coefficient  Atom+Function  
  ----- ------------  ---------------      ----- ------------  ---------------
   148     13.513132   9 C  py               56     12.812542   5 C  s         
   453    -12.273409  26 C  s               342     10.776527  19 N  s         
    12      9.298320   2 C  s               217     -7.811096  14 C  s         
    63      7.770643   5 C  px              350      7.684768  19 N  py        
   183     -7.443883  11 C  pz              147     -7.211177   9 C  px        

 Vector  181  Occ=0.000000D+00  E= 4.368052D-01
              MO Center=  8.3D-01,  8.8D-01,  2.0D-01, r^2= 2.0D+01
   Bfn.  Coefficient  Atom+Function         Bfn.  Coefficient  Atom+Function  
  ----- ------------  ---------------      ----- ------------  ---------------
   528     24.354459  29 C  s               217    -18.910838  14 C  s         
   385    -15.424202  21 C  pz              410    -15.294457  23 C  s         
   300    -15.213595  17 C  py              174     14.130386  11 C  s         
    56     12.932813   5 C  s               147    -12.212283   9 C  px        
   148     10.696353   9 C  py              183    -10.742218  11 C  pz        

 Vector  182  Occ=0.000000D+00  E= 4.398297D-01
              MO Center=  4.9D-01,  7.0D-01,  2.4D-01, r^2= 2.0D+01
   Bfn.  Coefficient  Atom+Function         Bfn.  Coefficient  Atom+Function  
  ----- ------------  ---------------      ----- ------------  ---------------
   300     16.647859  17 C  py              528    -15.720890  29 C  s         
   148    -14.162670   9 C  py              385     11.698818  21 C  pz        
   106    -11.151307   7 N  s                13     11.069535   2 C  s         
   113     -9.625373   7 N  px              410      9.616251  23 C  s         
   174     -8.980359  11 C  s               350     -7.654593  19 N  py        

 Vector  183  Occ=0.000000D+00  E= 4.437882D-01
              MO Center= -8.4D-01,  2.2D-01,  1.4D-01, r^2= 1.9D+01
   Bfn.  Coefficient  Atom+Function         Bfn.  Coefficient  Atom+Function  
  ----- ------------  ---------------      ----- ------------  ---------------
   300     18.900917  17 C  py              410     18.352358  23 C  s         
   528    -15.073975  29 C  s               217    -14.659029  14 C  s         
   106    -10.181206   7 N  s               174      9.976427  11 C  s         
   578      9.662147  31 N  s                56     -9.502542   5 C  s         
   149     -7.377408   9 C  pz              442     -6.992794  25 H  s         

 Vector  184  Occ=0.000000D+00  E= 4.481733D-01
              MO Center= -2.8D-01, -2.3D-02,  9.6D-02, r^2= 1.9D+01
   Bfn.  Coefficient  Atom+Function         Bfn.  Coefficient  Atom+Function  
  ----- ------------  ---------------      ----- ------------  ---------------
   453     22.043825  26 C  s               217    -15.010795  14 C  s         
   578      9.337728  31 N  s               410     -8.676152  23 C  s         
   174      8.068345  11 C  s               528     -7.575454  29 C  s         
   385      7.108882  21 C  pz              376     -6.630999  21 C  s         
   417     -6.044934  23 C  px              503     -5.784272  28 O  s         

 Vector  185  Occ=0.000000D+00  E= 4.507201D-01
              MO Center=  4.5D-01, -1.2D+00, -3.4D-01, r^2= 2.0D+01
   Bfn.  Coefficient  Atom+Function         Bfn.  Coefficient  Atom+Function  
  ----- ------------  ---------------      ----- ------------  ---------------
   453     22.651294  26 C  s               366    -15.039768  20 H  s         
   528     -9.523238  29 C  s               478     -8.053385  27 O  s         
   503     -7.020967  28 O  s               419      6.109718  23 C  pz        
   410      5.358707  23 C  s               409     -5.270302  23 C  s         
   384      5.029844  21 C  py              452      5.010295  26 C  s         

 Vector  186  Occ=0.000000D+00  E= 4.594257D-01
              MO Center= -1.6D-01, -3.2D-01, -2.7D-01, r^2= 1.7D+01
   Bfn.  Coefficient  Atom+Function         Bfn.  Coefficient  Atom+Function  
  ----- ------------  ---------------      ----- ------------  ---------------
   528     11.631706  29 C  s               578     -7.972418  31 N  s         
    13      7.727398   2 C  s               217      6.568882  14 C  s         
    56      6.169081   5 C  s               342     -5.742510  19 N  s         
    63     -5.359443   5 C  px              173     -5.199429  11 C  s         
   417      5.077307  23 C  px              292     -4.944149  17 C  s         

 Vector  187  Occ=0.000000D+00  E= 4.630424D-01
              MO Center=  9.9D-01, -8.0D-03,  8.0D-02, r^2= 2.0D+01
   Bfn.  Coefficient  Atom+Function         Bfn.  Coefficient  Atom+Function  
  ----- ------------  ---------------      ----- ------------  ---------------
   453    -19.693892  26 C  s               410     18.382067  23 C  s         
   300    -12.168896  17 C  py              350     11.252268  19 N  py        
   106     10.204923   7 N  s                56      9.861480   5 C  s         
   147     -9.715907   9 C  px              342     -8.536045  19 N  s         
   148      7.337649   9 C  py               63     -7.127796   5 C  px        

 Vector  188  Occ=0.000000D+00  E= 4.670213D-01
              MO Center=  4.5D-02, -1.1D+00, -3.4D-01, r^2= 2.0D+01
   Bfn.  Coefficient  Atom+Function         Bfn.  Coefficient  Atom+Function  
  ----- ------------  ---------------      ----- ------------  ---------------
   410     32.210662  23 C  s               300    -14.518222  17 C  py        
   147    -13.200159   9 C  px              385     13.210958  21 C  pz        
   528    -10.655426  29 C  s                13      9.677556   2 C  s         
   442     -9.418150  25 H  s               350      9.089461  19 N  py        
   453     -9.009995  26 C  s               578     -9.003114  31 N  s         

 Vector  189  Occ=0.000000D+00  E= 4.700186D-01
              MO Center=  2.2D-01,  5.6D-01,  4.4D-01, r^2= 2.1D+01
   Bfn.  Coefficient  Atom+Function         Bfn.  Coefficient  Atom+Function  
  ----- ------------  ---------------      ----- ------------  ---------------
   106     16.088272   7 N  s               174    -14.595192  11 C  s         
   300     10.456013  17 C  py              342     10.420302  19 N  s         
    13     -9.744773   2 C  s               453      9.433502  26 C  s         
   217      7.619254  14 C  s               410     -7.389020  23 C  s         
   206      7.231112  13 H  s               197      7.123805  12 H  s         

 Vector  190  Occ=0.000000D+00  E= 4.741265D-01
              MO Center= -5.7D-01,  3.8D-01,  1.2D-01, r^2= 2.0D+01
   Bfn.  Coefficient  Atom+Function         Bfn.  Coefficient  Atom+Function  
  ----- ------------  ---------------      ----- ------------  ---------------
   453     10.335993  26 C  s               174      9.283525  11 C  s         
    56     -8.518495   5 C  s                63      7.676776   5 C  px        
   385      7.370735  21 C  pz              528     -7.203590  29 C  s         
    13     -7.044429   2 C  s               292      7.039287  17 C  s         
   417     -6.987193  23 C  px              217     -6.890934  14 C  s         

 Vector  191  Occ=0.000000D+00  E= 4.788878D-01
              MO Center=  3.4D-02, -8.1D-02,  1.6D-01, r^2= 2.0D+01
   Bfn.  Coefficient  Atom+Function         Bfn.  Coefficient  Atom+Function  
  ----- ------------  ---------------      ----- ------------  ---------------
   528     22.944532  29 C  s               410    -20.154953  23 C  s         
    56    -16.989271   5 C  s                63     15.856114   5 C  px        
   147     15.248367   9 C  px               13    -13.080273   2 C  s         
   385    -12.948327  21 C  pz              292     12.308126  17 C  s         
   300     11.877246  17 C  py              148    -10.644571   9 C  py        

 Vector  192  Occ=0.000000D+00  E= 4.835122D-01
              MO Center=  3.0D-01,  3.8D-01,  8.7D-02, r^2= 2.1D+01
   Bfn.  Coefficient  Atom+Function         Bfn.  Coefficient  Atom+Function  
  ----- ------------  ---------------      ----- ------------  ---------------
   453     17.777802  26 C  s               528    -17.165580  29 C  s         
    56    -14.490813   5 C  s                12     -9.457701   2 C  s         
   385      9.129335  21 C  pz               36      7.564723   3 H  s         
   197      6.964055  12 H  s                 2      6.506040   1 H  s         
    13     -6.533851   2 C  s               417     -6.328034  23 C  px        

 Vector  193  Occ=0.000000D+00  E= 4.902988D-01
              MO Center= -4.3D-01,  2.5D-01,  1.0D-01, r^2= 2.1D+01
   Bfn.  Coefficient  Atom+Function         Bfn.  Coefficient  Atom+Function  
  ----- ------------  ---------------      ----- ------------  ---------------
   410     30.711136  23 C  s               528    -24.956326  29 C  s         
   385     13.802647  21 C  pz               56    -13.255403   5 C  s         
   174     -9.859726  11 C  s               433     -9.776965  24 H  s         
   147      8.086399   9 C  px              409      8.005722  23 C  s         
   366      7.141536  20 H  s               300      6.966607  17 C  py        

 Vector  194  Occ=0.000000D+00  E= 4.936943D-01
              MO Center= -3.2D-01, -6.8D-01,  4.6D-01, r^2= 1.8D+01
   Bfn.  Coefficient  Atom+Function         Bfn.  Coefficient  Atom+Function  
  ----- ------------  ---------------      ----- ------------  ---------------
   300     24.530836  17 C  py              528     20.457743  29 C  s         
   106    -18.932946   7 N  s                13     17.955655   2 C  s         
    63    -13.187657   5 C  px              140    -10.871077   9 C  s         
   376     10.485053  21 C  s               384      8.603280  21 C  py        
   174     -8.223042  11 C  s               149     -8.073197   9 C  pz        

 Vector  195  Occ=0.000000D+00  E= 4.989993D-01
              MO Center=  6.8D-01, -4.1D-01,  4.7D-01, r^2= 1.7D+01
   Bfn.  Coefficient  Atom+Function         Bfn.  Coefficient  Atom+Function  
  ----- ------------  ---------------      ----- ------------  ---------------
   453      8.839431  26 C  s               174     -7.391131  11 C  s         
   350      7.366817  19 N  py              602     -5.948797  32 H  s         
   342      5.436118  19 N  s               528      5.255130  29 C  s         
   503     -4.654224  28 O  s               114      4.540041   7 N  py        
   113      4.381586   7 N  px              197      4.162174  12 H  s         

 Vector  196  Occ=0.000000D+00  E= 5.030230D-01
              MO Center= -1.2D-01,  8.8D-01,  3.1D-01, r^2= 1.9D+01
   Bfn.  Coefficient  Atom+Function         Bfn.  Coefficient  Atom+Function  
  ----- ------------  ---------------      ----- ------------  ---------------
   106     10.542037   7 N  s               174     -8.108727  11 C  s         
   342      7.662241  19 N  s               115      7.426807   7 N  pz        
   173      7.307710  11 C  s               528      6.680392  29 C  s         
    45      5.924510   4 H  s               147     -5.860671   9 C  px        
   114     -5.702076   7 N  py              148      5.178075   9 C  py        


 center of mass
 --------------
 x =  -0.03332214 y =  -0.00734912 z =  -0.02166644

 moments of inertia (a.u.)
 ------------------
        7971.516523372153          -0.000000000003          -0.000000000001
          -0.000000000003        3970.101349276019          -0.000000000002
          -0.000000000001          -0.000000000002        8459.214423554793

  Mulliken analysis of the total density
  --------------------------------------

    Atom       Charge   Shell Charges
 -----------   ------   -------------------------------------------------------
    1 H    1     1.05   0.77  0.31  0.01  0.03 -0.06
    2 C    6     6.10   2.01  0.66  0.25  0.05  2.07  0.92 -0.01  0.06  0.09
    3 H    1     0.88   0.76  0.14  0.01  0.03 -0.05
    4 H    1     0.85   0.77  0.13 -0.00  0.03 -0.08
    5 C    6     5.21   2.01  0.68  0.15 -0.07  1.89  0.33 -0.01  0.24 -0.00
    6 O    8     8.78   2.01  0.82  1.02  0.18  2.79  1.84  0.13  0.01 -0.01
    7 N    7     7.43   2.01  0.72  0.77 -0.13  2.45  1.42  0.13  0.05  0.01
    8 H    1     0.90   0.73  0.20  0.00  0.06 -0.09
    9 C    6     6.44   2.01  0.66  0.01  0.03  1.99  1.35  0.13  0.14  0.12
   10 H    1     1.08   0.77  0.27 -0.01  0.03  0.02
   11 C    6     6.58   2.01  0.66  0.55  0.09  2.04  0.93  0.02  0.08  0.19
   12 H    1     0.84   0.76  0.09  0.00  0.03 -0.05
   13 H    1     0.79   0.77  0.04  0.00  0.03 -0.05
   14 C    6     4.55   2.01  0.67  0.05 -0.26  1.88  0.17 -0.05  0.26 -0.18
   15 O    8     8.56   2.01  0.84  1.02  0.17  2.71  1.72  0.12  0.01 -0.03
   16 O    8     8.58   2.01  0.83  1.00  0.14  2.72  1.77  0.13  0.01 -0.03
   17 C    6     4.65   2.01  0.68  0.07 -0.03  1.90  0.10  0.04  0.23 -0.34
   18 O    8     8.75   2.01  0.83  1.04  0.17  2.76  1.83  0.11  0.01 -0.01
   19 N    7     7.38   2.01  0.73  0.79 -0.20  2.41  1.42  0.17  0.05  0.01
   20 H    1     0.86   0.73  0.21 -0.04  0.06 -0.10
   21 C    6     6.16   2.01  0.67  0.13 -0.01  1.99  1.14 -0.01  0.13  0.11
   22 H    1     1.09   0.77  0.30 -0.01  0.03  0.00
   23 C    6     6.87   2.01  0.67  0.60  0.23  2.04  0.94  0.05  0.08  0.26
   24 H    1     0.83   0.76  0.11  0.00  0.03 -0.07
   25 H    1     0.75   0.77  0.03  0.01  0.03 -0.08
   26 C    6     4.52   2.01  0.67  0.04 -0.25  1.88  0.12 -0.03  0.26 -0.18
   27 O    8     8.59   2.01  0.84  1.03  0.18  2.71  1.73  0.12  0.01 -0.03
   28 O    8     8.58   2.01  0.83  0.99  0.13  2.73  1.78  0.13  0.01 -0.03
   29 C    6     4.52   2.01  0.68  0.04 -0.04  1.89 -0.19  0.02  0.23 -0.13
   30 O    8     8.78   2.01  0.82  1.05  0.19  2.77  1.81  0.13  0.01 -0.00
   31 N    7     7.15   2.01  0.73  0.79 -0.20  2.45  1.22  0.14  0.04 -0.03
   32 H    1     0.85   0.74  0.15 -0.03  0.06 -0.06
   33 H    1     1.03   0.75  0.24 -0.00  0.06 -0.02

       Multipole analysis of the density wrt the origin
       ------------------------------------------------

     L   x y z        total         open         nuclear
     -   - - -        -----         ----         -------
     0   0 0 0     -0.000000      0.000000    150.000000

     1   1 0 0      0.749178      0.000000      0.000000
     1   0 1 0      0.383198      0.000000      0.000000
     1   0 0 1      0.107485      0.000000      0.000000

     2   2 0 0    -94.325293      0.000000   1207.301439
     2   1 1 0      3.276127      0.000000     15.622204
     2   1 0 1      5.089173      0.000000     17.240452
     2   0 2 0   -104.129761      0.000000   3228.014511
     2   0 1 1      5.219275      0.000000     21.007399
     2   0 0 2    -93.565133      0.000000    918.682450

 ------------------------------------------------------------------------
 scf energy failed                                                                                  0
 ------------------------------------------------------------------------
 ------------------------------------------------------------------------
  current input line : 
    48: task scf energy
 ------------------------------------------------------------------------
 ------------------------------------------------------------------------
 This type of error is most commonly associated with calculations not reaching convergence criteria
 ------------------------------------------------------------------------
 For more information see the NWChem manual at https://nwchemgit.github.io


 For further details see manual section:                                                                                                                                                                                                                                                                
0:scf energy failed:Received an Error in Communication
--------------------------------------------------------------------------
MPI_ABORT was invoked on rank 0 in communicator MPI COMMUNICATOR 3 DUP FROM 0
with errorcode -1.

NOTE: invoking MPI_ABORT causes Open MPI to kill all MPI processes.
You may or may not see output from other processes, depending on
exactly when Open MPI kills them.
--------------------------------------------------------------------------
slurmstepd: error: *** STEP 6619389.95 ON nova21-swift-4 CANCELLED AT 2025-07-10T21:48:25 ***
srun: Job step aborted: Waiting up to 32 seconds for job step to finish.
srun: error: nova21-swift-4: task 0: Exited with exit code 255
srun: error: nova21-swift-4: tasks 1-7: Killed
