export TMOUT=5400
export TMPDIR=/tmp
export PTMPDIR=/tmp/ptmp
 argument  1 = inputs/ASP_ASN_4.nw



============================== echo of input deck ==============================
start ASP_ASN_4
geometry
H         14.65400       15.75400       13.04900
C         15.18900       16.59800       13.47700
H         16.21800       16.60600       13.12400
H         15.17700       16.52600       14.56300
C         14.50300       17.88600       13.06700
O         14.03500       18.61400       13.92800
N         14.41400       18.19900       11.77700
H         14.00700       19.10300       11.56100
C         15.00200       17.47000       10.64200
H         14.89500       16.39900       10.80500
C         14.23400       17.80300        9.34300
H         14.70400       17.25900        8.52200
H         13.21800       17.41700        9.44600
C         14.13700       19.29000        8.95600
O         14.50200       20.16900        9.77600
O         13.74800       19.55600        7.80300
C         16.51000       17.75500       10.49400
O         17.31700       16.82700       10.46200
N         16.89700       19.03200       10.49800
H         16.13900       19.71100       10.50900
C         18.26200       19.55100       10.36800
H         18.77600       18.95800        9.60900
C         18.17800       21.00300        9.85100
H         17.47700       21.57700       10.45600
H         19.15800       21.47300        9.93100
C         17.77600       21.08200        8.38700
O         18.61700       21.08700        7.50400
N         16.50500       21.14800        8.07200
H         15.76900       21.01400        8.76800
H         16.25900       21.10100        7.10200
C         19.10100       19.39600       11.66200
O         19.88600       20.26100       12.03800
N         18.94200       18.30000       12.39000
H         19.47000       18.20200       13.23900
H         18.33000       17.57300       12.04500
end

basis
 * library aug-cc-pvdz
end

echo

scf
 direct
end

task scf energy
================================================================================


                                         
                                         


             Northwest Computational Chemistry Package (NWChem) 7.2.0
             --------------------------------------------------------


                    Environmental Molecular Sciences Laboratory
                       Pacific Northwest National Laboratory
                                Richland, WA 99352

                              Copyright (c) 1994-2022
                       Pacific Northwest National Laboratory
                            Battelle Memorial Institute

             NWChem is an open-source computational chemistry package
                        distributed under the terms of the
                      Educational Community License (ECL) 2.0
             A copy of the license is included with this distribution
                              in the LICENSE.TXT file

                                  ACKNOWLEDGMENT
                                  --------------

            This software and its documentation were developed at the
            EMSL at Pacific Northwest National Laboratory, a multiprogram
            national laboratory, operated for the U.S. Department of Energy
            by Battelle under Contract Number DE-AC05-76RL01830. Support
            for this work was provided by the Department of Energy Office
            of Biological and Environmental Research, Office of Basic
            Energy Sciences, and the Office of Advanced Scientific Computing.


           Job information
           ---------------

    hostname        = nova21-speedy-11
    program         = /opt/rit/el9/20230413/app/linux-rhel9-x86_64_v3/gcc-11.2.1/nwchem-7.2.0-oxtctbuhfuzyfaoziquq6bki22grib3g/bin/nwchem
    date            = Thu Jul 10 17:10:02 2025

    compiled        = Wed_May_17_23:46:39_2023
    source          = /tmp/root/spack-stage/spack-stage-nwchem-7.2.0-oxtctbuhfuzyfaoziquq6bki22grib3g/spack-src
    nwchem branch   = 7.2.0
    nwchem revision = d0d141fd
    ga revision     = 5.8.0
    use scalapack   = T
    input           = inputs/ASP_ASN_4.nw
    prefix          = ASP_ASN_4.
    data base       = ./ASP_ASN_4.db
    status          = startup
    nproc           =        8
    time left       =     -1s



           Memory information
           ------------------

    heap     =   26214394 doubles =    200.0 Mbytes
    stack    =   26214399 doubles =    200.0 Mbytes
    global   =   52428800 doubles =    400.0 Mbytes (distinct from heap & stack)
    total    =  104857593 doubles =    800.0 Mbytes
    verify   = yes
    hardfail = no 


           Directory information
           ---------------------

  0 permanent = .
  0 scratch   = .




                                NWChem Input Module
                                -------------------



 Scaling coordinates for geometry "geometry" by  1.889725989
 (inverse scale =  0.529177249)

 C1  symmetry detected

          ------
          auto-z
          ------
  no constraints, skipping    0.0000000000000000     
  no constraints, skipping    0.0000000000000000     


                             Geometry "geometry" -> ""
                             -------------------------

 Output coordinates in angstroms (scale by  1.889725989 to convert to a.u.)

  No.       Tag          Charge          X              Y              Z
 ---- ---------------- ---------- -------------- -------------- --------------
    1 H                    1.0000     0.71259262    -4.28239570    -1.10215929
    2 C                    6.0000     1.28879583    -3.77197677    -0.33456085
    3 H                    1.0000     1.83772463    -2.94008845    -0.77062620
    4 H                    1.0000     1.98776672    -4.46982357     0.12279410
    5 C                    6.0000     0.34884799    -3.25305414     0.73541922
    6 O                    8.0000     0.46050282    -3.66430234     1.87941970
    7 N                    7.0000    -0.58728536    -2.36526971     0.41063751
    8 H                    1.0000    -1.14454372    -1.99962061     1.17567662
    9 C                    6.0000    -0.78459603    -1.71814201    -0.89615408
   10 H                    1.0000    -0.62920934    -2.44797818    -1.68877829
   11 C                    6.0000    -2.24181125    -1.22052906    -1.02661158
   12 H                    1.0000    -2.34875195    -0.73455186    -1.99783084
   13 H                    1.0000    -2.89555580    -2.09486890    -1.02959580
   14 C                    6.0000    -2.74647825    -0.25756120     0.06350361
   15 O                    8.0000    -2.05057700    -0.06580059     1.09171337
   16 O                    8.0000    -3.81522993     0.34352664    -0.15546956
   17 C                    6.0000     0.22415228    -0.57600144    -1.13096199
   18 O                    8.0000     0.92679226    -0.56608956    -2.14074208
   19 N                    7.0000     0.36251951     0.33022707    -0.16136496
   20 H                    1.0000    -0.28611623     0.23021323     0.61644922
   21 C                    6.0000     1.24617392     1.50008674    -0.15304294
   22 H                    1.0000     1.21838887     1.94915220    -1.14777617
   23 C                    6.0000     0.67191577     2.53037928     0.84263466
   24 H                    1.0000     0.46164032     2.05190036     1.79853431
   25 H                    1.0000     1.40599835     3.31777425     1.01243432
   26 C                    6.0000    -0.58397114     3.21138931     0.32290935
   27 O                    8.0000    -0.51790287     4.24765824    -0.31644712
   28 N                    7.0000    -1.75483231     2.67532047     0.56935676
   29 H                    1.0000    -1.84618457     1.74581499     0.98377482
   30 H                    1.0000    -2.55939641     3.08603492     0.13621101
   31 C                    6.0000     2.73198022     1.14233462     0.10536572
   32 O                    8.0000     3.46095051     1.84468358     0.79900414
   33 N                    7.0000     3.21492578     0.02867212    -0.42661212
   34 H                    1.0000     4.17234506    -0.21753398    -0.24795075
   35 H                    1.0000     2.61966573    -0.51563810    -1.03611180

      Atomic Mass 
      ----------- 

      H                  1.007825
      C                 12.000000
      O                 15.994910
      N                 14.003070


 Effective nuclear repulsion energy (a.u.)    1703.7552710565

            Nuclear Dipole moment (a.u.) 
            ----------------------------
        X                 Y               Z
 ---------------- ---------------- ----------------
     0.0000000000    -0.0000000000     0.0000000000



                                Z-matrix (autoz)
                                -------- 

 Units are Angstrom for bonds and degrees for angles

      Type          Name      I     J     K     L     M      Value
      ----------- --------  ----- ----- ----- ----- ----- ----------
    1 Stretch                  1     2                       1.08708
    2 Stretch                  2     3                       1.08789
    3 Stretch                  2     4                       1.08845
    4 Stretch                  2     5                       1.51580
    5 Stretch                  5     6                       1.22079
    6 Stretch                  5     7                       1.33041
    7 Stretch                  7     8                       1.01465
    8 Stretch                  7     9                       1.47153
    9 Stretch                  9    10                       1.08860
   10 Stretch                  9    11                       1.54535
   11 Stretch                  9    17                       1.54181
   12 Stretch                 11    12                       1.09127
   13 Stretch                 11    13                       1.09172
   14 Stretch                 11    14                       1.53959
   15 Stretch                 14    15                       1.25629
   16 Stretch                 14    16                       1.24559
   17 Stretch                 17    18                       1.23023
   18 Stretch                 17    19                       1.33436
   19 Stretch                 19    20                       1.01771
   20 Stretch                 19    21                       1.46611
   21 Stretch                 21    22                       1.09175
   22 Stretch                 21    23                       1.54358
   23 Stretch                 21    31                       1.54996
   24 Stretch                 23    24                       1.08945
   25 Stretch                 23    25                       1.08982
   26 Stretch                 23    26                       1.52024
   27 Stretch                 26    27                       1.21942
   28 Stretch                 26    28                       1.31111
   29 Stretch                 28    29                       1.02180
   30 Stretch                 28    30                       1.00181
   31 Stretch                 31    32                       1.22712
   32 Stretch                 31    33                       1.32532
   33 Stretch                 33    34                       1.00458
   34 Stretch                 33    35                       1.01099
   35 Bend                     1     2     3               110.08767
   36 Bend                     1     2     4               109.63611
   37 Bend                     1     2     5               109.29862
   38 Bend                     2     5     6               119.30406
   39 Bend                     2     5     7               119.50201
   40 Bend                     3     2     4               109.55211
   41 Bend                     3     2     5               109.51488
   42 Bend                     4     2     5               108.72913
   43 Bend                     5     7     8               116.28633
   44 Bend                     5     7     9               127.19970
   45 Bend                     6     5     7               121.19257
   46 Bend                     7     9    10               109.42819
   47 Bend                     7     9    11               110.06054
   48 Bend                     7     9    17               111.91830
   49 Bend                     8     7     9               115.94203
   50 Bend                     9    11    12               108.11579
   51 Bend                     9    11    13               107.87902
   52 Bend                     9    11    14               116.79045
   53 Bend                     9    17    18               120.30817
   54 Bend                     9    17    19               117.40515
   55 Bend                    10     9    11               106.79902
   56 Bend                    10     9    17               106.99967
   57 Bend                    11     9    17               111.44170
   58 Bend                    11    14    15               119.56448
   59 Bend                    11    14    16               117.29783
   60 Bend                    12    11    13               107.19001
   61 Bend                    12    11    14               108.63246
   62 Bend                    13    11    14               107.85282
   63 Bend                    15    14    16               123.05982
   64 Bend                    17    19    20               114.99402
   65 Bend                    17    19    21               127.48396
   66 Bend                    18    17    19               122.12268
   67 Bend                    19    21    22               107.92060
   68 Bend                    19    21    23               108.18143
   69 Bend                    19    21    31               113.23756
   70 Bend                    20    19    21               117.27239
   71 Bend                    21    23    24               110.15912
   72 Bend                    21    23    25               109.39968
   73 Bend                    21    23    26               112.69439
   74 Bend                    21    31    32               122.11311
   75 Bend                    21    31    33               118.44705
   76 Bend                    22    21    23               107.68033
   77 Bend                    22    21    31               105.73803
   78 Bend                    23    21    31               113.77524
   79 Bend                    23    26    27               121.00852
   80 Bend                    23    26    28               119.36172
   81 Bend                    24    23    25               108.09663
   82 Bend                    24    23    26               109.70973
   83 Bend                    25    23    26               106.62257
   84 Bend                    26    28    29               121.87115
   85 Bend                    26    28    30               117.92435
   86 Bend                    27    26    28               119.62965
   87 Bend                    29    28    30               118.45695
   88 Bend                    31    33    34               118.80599
   89 Bend                    31    33    35               118.67539
   90 Bend                    32    31    33               119.43052
   91 Bend                    34    33    35               122.43990
   92 Torsion                  1     2     5     6         118.30423
   93 Torsion                  1     2     5     7         -61.27605
   94 Torsion                  2     5     7     8        -175.64054
   95 Torsion                  2     5     7     9          -4.72318
   96 Torsion                  3     2     5     6        -121.01942
   97 Torsion                  3     2     5     7          59.40029
   98 Torsion                  4     2     5     6          -1.34469
   99 Torsion                  4     2     5     7         179.07503
  100 Torsion                  5     7     9    10          40.50300
  101 Torsion                  5     7     9    11         157.57163
  102 Torsion                  5     7     9    17         -77.92754
  103 Torsion                  6     5     7     8           4.78732
  104 Torsion                  6     5     7     9         175.70468
  105 Torsion                  7     9    11    12         179.17480
  106 Torsion                  7     9    11    13         -65.21345
  107 Torsion                  7     9    11    14          56.37050
  108 Torsion                  7     9    17    18         125.71144
  109 Torsion                  7     9    17    19         -49.73233
  110 Torsion                  8     7     9    10        -148.55271
  111 Torsion                  8     7     9    11         -31.48407
  112 Torsion                  8     7     9    17          93.01676
  113 Torsion                  9    11    14    15          -9.98662
  114 Torsion                  9    11    14    16         166.90304
  115 Torsion                  9    17    19    20          -5.69364
  116 Torsion                  9    17    19    21        -179.74853
  117 Torsion                 10     9    11    12         -62.13080
  118 Torsion                 10     9    11    13          53.48096
  119 Torsion                 10     9    11    14         175.06491
  120 Torsion                 10     9    17    18           5.84781
  121 Torsion                 10     9    17    19        -169.59595
  122 Torsion                 11     9    17    18        -110.56026
  123 Torsion                 11     9    17    19          73.99598
  124 Torsion                 12    11     9    17          54.39970
  125 Torsion                 12    11    14    15        -132.52329
  126 Torsion                 12    11    14    16          44.36637
  127 Torsion                 13    11     9    17         170.01145
  128 Torsion                 13    11    14    15         111.61107
  129 Torsion                 13    11    14    16         -71.49927
  130 Torsion                 14    11     9    17         -68.40460
  131 Torsion                 17    19    21    22          40.67794
  132 Torsion                 17    19    21    23         156.92062
  133 Torsion                 17    19    21    31         -76.00755
  134 Torsion                 18    17    19    20         178.95108
  135 Torsion                 18    17    19    21           4.89619
  136 Torsion                 19    21    23    24          50.33069
  137 Torsion                 19    21    23    25         169.02191
  138 Torsion                 19    21    23    26         -72.55336
  139 Torsion                 19    21    31    32        -141.39634
  140 Torsion                 19    21    31    33          37.48672
  141 Torsion                 20    19    21    22        -133.25937
  142 Torsion                 20    19    21    23         -17.01669
  143 Torsion                 20    19    21    31         110.05514
  144 Torsion                 21    23    26    27         -90.73168
  145 Torsion                 21    23    26    28          89.38728
  146 Torsion                 21    31    33    34        -178.83402
  147 Torsion                 21    31    33    35           4.31265
  148 Torsion                 22    21    23    24         166.72932
  149 Torsion                 22    21    23    25         -74.57946
  150 Torsion                 22    21    23    26          43.84527
  151 Torsion                 22    21    31    32         100.64034
  152 Torsion                 22    21    31    33         -80.47660
  153 Torsion                 23    21    31    32         -17.32524
  154 Torsion                 23    21    31    33         161.55782
  155 Torsion                 23    26    28    29          -8.92072
  156 Torsion                 23    26    28    30        -173.62220
  157 Torsion                 24    23    21    31         -76.42985
  158 Torsion                 24    23    26    27         146.13338
  159 Torsion                 24    23    26    28         -33.74766
  160 Torsion                 25    23    21    31          42.26137
  161 Torsion                 25    23    26    27          29.30678
  162 Torsion                 25    23    26    28        -150.57426
  163 Torsion                 26    23    21    31         160.68610
  164 Torsion                 27    26    28    29         171.19658
  165 Torsion                 27    26    28    30           6.49510
  166 Torsion                 32    31    33    34           0.07976
  167 Torsion                 32    31    33    35        -176.77357


            XYZ format geometry
            -------------------
    35
 geometry
 H                     0.71259262    -4.28239570    -1.10215929
 C                     1.28879583    -3.77197677    -0.33456085
 H                     1.83772463    -2.94008845    -0.77062620
 H                     1.98776672    -4.46982357     0.12279410
 C                     0.34884799    -3.25305414     0.73541922
 O                     0.46050282    -3.66430234     1.87941970
 N                    -0.58728536    -2.36526971     0.41063751
 H                    -1.14454372    -1.99962061     1.17567662
 C                    -0.78459603    -1.71814201    -0.89615408
 H                    -0.62920934    -2.44797818    -1.68877829
 C                    -2.24181125    -1.22052906    -1.02661158
 H                    -2.34875195    -0.73455186    -1.99783084
 H                    -2.89555580    -2.09486890    -1.02959580
 C                    -2.74647825    -0.25756120     0.06350361
 O                    -2.05057700    -0.06580059     1.09171337
 O                    -3.81522993     0.34352664    -0.15546956
 C                     0.22415228    -0.57600144    -1.13096199
 O                     0.92679226    -0.56608956    -2.14074208
 N                     0.36251951     0.33022707    -0.16136496
 H                    -0.28611623     0.23021323     0.61644922
 C                     1.24617392     1.50008674    -0.15304294
 H                     1.21838887     1.94915220    -1.14777617
 C                     0.67191577     2.53037928     0.84263466
 H                     0.46164032     2.05190036     1.79853431
 H                     1.40599835     3.31777425     1.01243432
 C                    -0.58397114     3.21138931     0.32290935
 O                    -0.51790287     4.24765824    -0.31644712
 N                    -1.75483231     2.67532047     0.56935676
 H                    -1.84618457     1.74581499     0.98377482
 H                    -2.55939641     3.08603492     0.13621101
 C                     2.73198022     1.14233462     0.10536572
 O                     3.46095051     1.84468358     0.79900414
 N                     3.21492578     0.02867212    -0.42661212
 H                     4.17234506    -0.21753398    -0.24795075
 H                     2.61966573    -0.51563810    -1.03611180

 ==============================================================================
                                internuclear distances
 ------------------------------------------------------------------------------
       center one      |      center two      | atomic units |  angstroms
 ------------------------------------------------------------------------------
    2 C                |   1 H                |     2.05429  |     1.08708
    3 H                |   2 C                |     2.05582  |     1.08789
    4 H                |   2 C                |     2.05687  |     1.08845
    5 C                |   2 C                |     2.86444  |     1.51580
    6 O                |   5 C                |     2.30696  |     1.22079
    7 N                |   5 C                |     2.51411  |     1.33041
    8 H                |   7 N                |     1.91742  |     1.01465
    9 C                |   7 N                |     2.78079  |     1.47153
   10 H                |   9 C                |     2.05716  |     1.08860
   11 C                |   9 C                |     2.92029  |     1.54535
   12 H                |  11 C                |     2.06221  |     1.09127
   13 H                |  11 C                |     2.06306  |     1.09172
   14 C                |  11 C                |     2.90941  |     1.53959
   15 O                |  14 C                |     2.37404  |     1.25629
   16 O                |  14 C                |     2.35382  |     1.24559
   17 C                |   9 C                |     2.91361  |     1.54181
   18 O                |  17 C                |     2.32479  |     1.23023
   19 N                |  17 C                |     2.52157  |     1.33436
   20 H                |  19 N                |     1.92319  |     1.01771
   21 C                |  19 N                |     2.77055  |     1.46611
   22 H                |  21 C                |     2.06312  |     1.09175
   23 C                |  21 C                |     2.91695  |     1.54358
   24 H                |  23 C                |     2.05876  |     1.08945
   25 H                |  23 C                |     2.05945  |     1.08982
   26 C                |  23 C                |     2.87284  |     1.52024
   27 O                |  26 C                |     2.30438  |     1.21942
   28 N                |  26 C                |     2.47765  |     1.31111
   29 H                |  28 N                |     1.93092  |     1.02180
   30 H                |  28 N                |     1.89315  |     1.00181
   31 C                |  21 C                |     2.92900  |     1.54996
   32 O                |  31 C                |     2.31892  |     1.22712
   33 N                |  31 C                |     2.50450  |     1.32532
   34 H                |  33 N                |     1.89839  |     1.00458
   35 H                |  33 N                |     1.91049  |     1.01099
 ------------------------------------------------------------------------------
                         number of included internuclear distances:         34
 ==============================================================================



 ==============================================================================
                                 internuclear angles
 ------------------------------------------------------------------------------
        center 1       |       center 2       |       center 3       |  degrees
 ------------------------------------------------------------------------------
    1 H                |   2 C                |   3 H                |   110.09
    1 H                |   2 C                |   4 H                |   109.64
    1 H                |   2 C                |   5 C                |   109.30
    3 H                |   2 C                |   4 H                |   109.55
    3 H                |   2 C                |   5 C                |   109.51
    4 H                |   2 C                |   5 C                |   108.73
    2 C                |   5 C                |   6 O                |   119.30
    2 C                |   5 C                |   7 N                |   119.50
    6 O                |   5 C                |   7 N                |   121.19
    5 C                |   7 N                |   8 H                |   116.29
    5 C                |   7 N                |   9 C                |   127.20
    8 H                |   7 N                |   9 C                |   115.94
    7 N                |   9 C                |  10 H                |   109.43
    7 N                |   9 C                |  11 C                |   110.06
    7 N                |   9 C                |  17 C                |   111.92
   10 H                |   9 C                |  11 C                |   106.80
   10 H                |   9 C                |  17 C                |   107.00
   11 C                |   9 C                |  17 C                |   111.44
    9 C                |  11 C                |  12 H                |   108.12
    9 C                |  11 C                |  13 H                |   107.88
    9 C                |  11 C                |  14 C                |   116.79
   12 H                |  11 C                |  13 H                |   107.19
   12 H                |  11 C                |  14 C                |   108.63
   13 H                |  11 C                |  14 C                |   107.85
   11 C                |  14 C                |  15 O                |   119.56
   11 C                |  14 C                |  16 O                |   117.30
   15 O                |  14 C                |  16 O                |   123.06
    9 C                |  17 C                |  18 O                |   120.31
    9 C                |  17 C                |  19 N                |   117.41
   18 O                |  17 C                |  19 N                |   122.12
   17 C                |  19 N                |  20 H                |   114.99
   17 C                |  19 N                |  21 C                |   127.48
   20 H                |  19 N                |  21 C                |   117.27
   19 N                |  21 C                |  22 H                |   107.92
   19 N                |  21 C                |  23 C                |   108.18
   19 N                |  21 C                |  31 C                |   113.24
   22 H                |  21 C                |  23 C                |   107.68
   22 H                |  21 C                |  31 C                |   105.74
   23 C                |  21 C                |  31 C                |   113.78
   21 C                |  23 C                |  24 H                |   110.16
   21 C                |  23 C                |  25 H                |   109.40
   21 C                |  23 C                |  26 C                |   112.69
   24 H                |  23 C                |  25 H                |   108.10
   24 H                |  23 C                |  26 C                |   109.71
   25 H                |  23 C                |  26 C                |   106.62
   23 C                |  26 C                |  27 O                |   121.01
   23 C                |  26 C                |  28 N                |   119.36
   27 O                |  26 C                |  28 N                |   119.63
   26 C                |  28 N                |  29 H                |   121.87
   26 C                |  28 N                |  30 H                |   117.92
   29 H                |  28 N                |  30 H                |   118.46
   21 C                |  31 C                |  32 O                |   122.11
   21 C                |  31 C                |  33 N                |   118.45
   32 O                |  31 C                |  33 N                |   119.43
   31 C                |  33 N                |  34 H                |   118.81
   31 C                |  33 N                |  35 H                |   118.68
   34 H                |  33 N                |  35 H                |   122.44
 ------------------------------------------------------------------------------
                            number of included internuclear angles:         57
 ==============================================================================



  library name resolved from: environment
  library file name is: </opt/rit/el9/20230413/app/linux-rhel9-x86_64_v3/gcc-11.2.1/nwchem-7.2.0-oxtctbuhfuzyfaoziquq6bki22grib3g/share/nwchem/libraries/>
  


 Summary of "ao basis" -> "" (cartesian)
 ------------------------------------------------------------------------------
       Tag                 Description            Shells   Functions and Types
 ---------------- ------------------------------  ------  ---------------------
 *                        aug-cc-pvdz                 on all atoms 


                      Basis "ao basis" -> "ao basis" (cartesian)
                      -----
  H (Hydrogen)
  ------------
            Exponent  Coefficients 
       -------------- ---------------------------------------------------------
  1 S  1.30100000E+01  0.019685
  1 S  1.96200000E+00  0.137977
  1 S  4.44600000E-01  0.478148

  2 S  1.22000000E-01  1.000000

  3 S  2.97400000E-02  1.000000

  4 P  7.27000000E-01  1.000000

  5 P  1.41000000E-01  1.000000

  C (Carbon)
  ----------
            Exponent  Coefficients 
       -------------- ---------------------------------------------------------
  1 S  6.66500000E+03  0.000692
  1 S  1.00000000E+03  0.005329
  1 S  2.28000000E+02  0.027077
  1 S  6.47100000E+01  0.101718
  1 S  2.10600000E+01  0.274740
  1 S  7.49500000E+00  0.448564
  1 S  2.79700000E+00  0.285074
  1 S  5.21500000E-01  0.015204

  2 S  6.66500000E+03 -0.000146
  2 S  1.00000000E+03 -0.001154
  2 S  2.28000000E+02 -0.005725
  2 S  6.47100000E+01 -0.023312
  2 S  2.10600000E+01 -0.063955
  2 S  7.49500000E+00 -0.149981
  2 S  2.79700000E+00 -0.127262
  2 S  5.21500000E-01  0.544529

  3 S  1.59600000E-01  1.000000

  4 S  4.69000000E-02  1.000000

  5 P  9.43900000E+00  0.038109
  5 P  2.00200000E+00  0.209480
  5 P  5.45600000E-01  0.508557

  6 P  1.51700000E-01  1.000000

  7 P  4.04100000E-02  1.000000

  8 D  5.50000000E-01  1.000000

  9 D  1.51000000E-01  1.000000

  O (Oxygen)
  ----------
            Exponent  Coefficients 
       -------------- ---------------------------------------------------------
  1 S  1.17200000E+04  0.000710
  1 S  1.75900000E+03  0.005470
  1 S  4.00800000E+02  0.027837
  1 S  1.13700000E+02  0.104800
  1 S  3.70300000E+01  0.283062
  1 S  1.32700000E+01  0.448719
  1 S  5.02500000E+00  0.270952
  1 S  1.01300000E+00  0.015458

  2 S  1.17200000E+04 -0.000160
  2 S  1.75900000E+03 -0.001263
  2 S  4.00800000E+02 -0.006267
  2 S  1.13700000E+02 -0.025716
  2 S  3.70300000E+01 -0.070924
  2 S  1.32700000E+01 -0.165411
  2 S  5.02500000E+00 -0.116955
  2 S  1.01300000E+00  0.557368

  3 S  3.02300000E-01  1.000000

  4 S  7.89600000E-02  1.000000

  5 P  1.77000000E+01  0.043018
  5 P  3.85400000E+00  0.228913
  5 P  1.04600000E+00  0.508728

  6 P  2.75300000E-01  1.000000

  7 P  6.85600000E-02  1.000000

  8 D  1.18500000E+00  1.000000

  9 D  3.32000000E-01  1.000000

  N (Nitrogen)
  ------------
            Exponent  Coefficients 
       -------------- ---------------------------------------------------------
  1 S  9.04600000E+03  0.000700
  1 S  1.35700000E+03  0.005389
  1 S  3.09300000E+02  0.027406
  1 S  8.77300000E+01  0.103207
  1 S  2.85600000E+01  0.278723
  1 S  1.02100000E+01  0.448540
  1 S  3.83800000E+00  0.278238
  1 S  7.46600000E-01  0.015440

  2 S  9.04600000E+03 -0.000153
  2 S  1.35700000E+03 -0.001208
  2 S  3.09300000E+02 -0.005992
  2 S  8.77300000E+01 -0.024544
  2 S  2.85600000E+01 -0.067459
  2 S  1.02100000E+01 -0.158078
  2 S  3.83800000E+00 -0.121831
  2 S  7.46600000E-01  0.549003

  3 S  2.24800000E-01  1.000000

  4 S  6.12400000E-02  1.000000

  5 P  1.35500000E+01  0.039919
  5 P  2.91700000E+00  0.217169
  5 P  7.97300000E-01  0.510319

  6 P  2.18500000E-01  1.000000

  7 P  5.61100000E-02  1.000000

  8 D  8.17000000E-01  1.000000

  9 D  2.30000000E-01  1.000000



 Summary of "ao basis" -> "ao basis" (cartesian)
 ------------------------------------------------------------------------------
       Tag                 Description            Shells   Functions and Types
 ---------------- ------------------------------  ------  ---------------------
 H                        aug-cc-pvdz                5        9   3s2p
 C                        aug-cc-pvdz                9       25   4s3p2d
 O                        aug-cc-pvdz                9       25   4s3p2d
 N                        aug-cc-pvdz                9       25   4s3p2d


 ------------------------------------------------------------------------
 scf: no. of closed-shell electrons is not even!                   0
 ------------------------------------------------------------------------
 ------------------------------------------------------------------------
  current input line : 
     0: 
 ------------------------------------------------------------------------
 ------------------------------------------------------------------------
 There is an error in the input file
 scf: no. of closed-shell electrons is not even!                   0
 ------------------------------------------------------------------------
 ------------------------------------------------------------------------
  current input line : 
     0: 
 ------------------------------------------------------------------------
 ------------------------------------------------------------------------
 There is an error in the input file
 ------------------------------------------------------------------------
 For more information see the NWChem manual at https://nwchemgit.github.io


 For further details see manual section:                                                                                                                                                                                                                                                                
 scf: no. of closed-shell electrons is not even!                   0
 ------------------------------------------------------------------------
 ------------------------------------------------------------------------
  current input line : 
     0: 
 ------------------------------------------------------------------------
 ------------------------------------------------------------------------
 There is an error in the input file
 ------------------------------------------------------------------------
 For more information see the NWChem manual at https://nwchemgit.github.io


 For further details see manual section:                                                                                                                                                                                                                                                                
 scf: no. of closed-shell electrons is not even!                   0
 ------------------------------------------------------------------------
 ------------------------------------------------------------------------
  current input line : 
     0: 
 ------------------------------------------------------------------------
 ------------------------------------------------------------------------
 There is an error in the input file
 ------------------------------------------------------------------------
 For more information see the NWChem manual at https://nwchemgit.github.io


 For further details see manual section:                                                                                                                                                                                                                                                                
 scf: no. of closed-shell electrons is not even!                   0
 ------------------------------------------------------------------------
 ------------------------------------------------------------------------
  current input line : 
     0: 
 ------------------------------------------------------------------------
 ------------------------------------------------------------------------
 There is an error in the input file
 ------------------------------------------------------------------------
 For more information see the NWChem manual at https://nwchemgit.github.io


 For further details see manual section:                                                                                                                                                                                                                                                                
 scf: no. of closed-shell electrons is not even!                   0
 ------------------------------------------------------------------------
 ------------------------------------------------------------------------
  current input line : 
     0: 
 ------------------------------------------------------------------------
 ------------------------------------------------------------------------
 There is an error in the input file
 ------------------------------------------------------------------------
 For more information see the NWChem manual at https://nwchemgit.github.io


 For further details see manual section:                                                                                                                                                                                                                                                                
 scf: no. of closed-shell electrons is not even!                   0
 ------------------------------------------------------------------------
 ------------------------------------------------------------------------
  current input line : 
     0: 
 ------------------------------------------------------------------------
 ------------------------------------------------------------------------
 There is an error in the input file
 ------------------------------------------------------------------------
 For more information see the NWChem manual at https://nwchemgit.github.io


 For further details see manual section:                                                                                                                                                                                                                                                                
 ------------------------------------------------------------------------
 For more information see the NWChem manual at https://nwchemgit.github.io


 For further details see manual section:                                                                                                                                                                                                                                                                
1:scf: no. of closed-shell electrons is not even!:Received an Error in Communication
2:scf: no. of closed-shell electrons is not even!:Received an Error in Communication
3:scf: no. of closed-shell electrons is not even!:Received an Error in Communication
4:scf: no. of closed-shell electrons is not even!:Received an Error in Communication
5:scf: no. of closed-shell electrons is not even!:Received an Error in Communication
6:scf: no. of closed-shell electrons is not even!:Received an Error in Communication
7:scf: no. of closed-shell electrons is not even!:Received an Error in Communication
 scf: no. of closed-shell electrons is not even!                   0
 ------------------------------------------------------------------------
 ------------------------------------------------------------------------
  current input line : 
    50: task scf energy
 ------------------------------------------------------------------------
 ------------------------------------------------------------------------
 There is an error in the input file
 ------------------------------------------------------------------------
 For more information see the NWChem manual at https://nwchemgit.github.io


 For further details see manual section:                                                                                                                                                                                                                                                                
0:scf: no. of closed-shell electrons is not even!:Received an Error in Communication
--------------------------------------------------------------------------
MPI_ABORT was invoked on rank 5 in communicator MPI COMMUNICATOR 3 DUP FROM 0
with errorcode -1.

NOTE: invoking MPI_ABORT causes Open MPI to kill all MPI processes.
You may or may not see output from other processes, depending on
exactly when Open MPI kills them.
--------------------------------------------------------------------------
--------------------------------------------------------------------------
MPI_ABORT was invoked on rank 7 in communicator MPI COMMUNICATOR 3 DUP FROM 0
with errorcode -1.

NOTE: invoking MPI_ABORT causes Open MPI to kill all MPI processes.
You may or may not see output from other processes, depending on
exactly when Open MPI kills them.
--------------------------------------------------------------------------
--------------------------------------------------------------------------
MPI_ABORT was invoked on rank 0 in communicator MPI COMMUNICATOR 3 DUP FROM 0
with errorcode -1.

NOTE: invoking MPI_ABORT causes Open MPI to kill all MPI processes.
You may or may not see output from other processes, depending on
exactly when Open MPI kills them.
--------------------------------------------------------------------------
--------------------------------------------------------------------------
MPI_ABORT was invoked on rank 2 in communicator MPI COMMUNICATOR 3 DUP FROM 0
with errorcode -1.

NOTE: invoking MPI_ABORT causes Open MPI to kill all MPI processes.
You may or may not see output from other processes, depending on
exactly when Open MPI kills them.
--------------------------------------------------------------------------
--------------------------------------------------------------------------
MPI_ABORT was invoked on rank 4 in communicator MPI COMMUNICATOR 3 DUP FROM 0
with errorcode -1.

NOTE: invoking MPI_ABORT causes Open MPI to kill all MPI processes.
You may or may not see output from other processes, depending on
exactly when Open MPI kills them.
--------------------------------------------------------------------------
--------------------------------------------------------------------------
MPI_ABORT was invoked on rank 6 in communicator MPI COMMUNICATOR 3 DUP FROM 0
with errorcode -1.

NOTE: invoking MPI_ABORT causes Open MPI to kill all MPI processes.
You may or may not see output from other processes, depending on
exactly when Open MPI kills them.
--------------------------------------------------------------------------
--------------------------------------------------------------------------
MPI_ABORT was invoked on rank 1 in communicator MPI COMMUNICATOR 3 DUP FROM 0
with errorcode -1.

NOTE: invoking MPI_ABORT causes Open MPI to kill all MPI processes.
You may or may not see output from other processes, depending on
exactly when Open MPI kills them.
--------------------------------------------------------------------------
--------------------------------------------------------------------------
MPI_ABORT was invoked on rank 3 in communicator MPI COMMUNICATOR 3 DUP FROM 0
with errorcode -1.

NOTE: invoking MPI_ABORT causes Open MPI to kill all MPI processes.
You may or may not see output from other processes, depending on
exactly when Open MPI kills them.
--------------------------------------------------------------------------
slurmstepd: error: *** STEP 6619389.90 ON nova21-speedy-11 CANCELLED AT 2025-07-10T17:10:02 ***
srun: Job step aborted: Waiting up to 32 seconds for job step to finish.
slurmstepd: error: --task-epilog failed status=9
srun: error: nova21-speedy-11: tasks 0-7: Killed
