export TMOUT=5400
export TMPDIR=/tmp
export PTMPDIR=/tmp/ptmp
 argument  1 = ALA_LEU_0.nw
                                         
                                         


             Northwest Computational Chemistry Package (NWChem) 7.2.0
             --------------------------------------------------------


                    Environmental Molecular Sciences Laboratory
                       Pacific Northwest National Laboratory
                                Richland, WA 99352

                              Copyright (c) 1994-2022
                       Pacific Northwest National Laboratory
                            Battelle Memorial Institute

             NWChem is an open-source computational chemistry package
                        distributed under the terms of the
                      Educational Community License (ECL) 2.0
             A copy of the license is included with this distribution
                              in the LICENSE.TXT file

                                  ACKNOWLEDGMENT
                                  --------------

            This software and its documentation were developed at the
            EMSL at Pacific Northwest National Laboratory, a multiprogram
            national laboratory, operated for the U.S. Department of Energy
            by Battelle under Contract Number DE-AC05-76RL01830. Support
            for this work was provided by the Department of Energy Office
            of Biological and Environmental Research, Office of Basic
            Energy Sciences, and the Office of Advanced Scientific Computing.


           Job information
           ---------------

    hostname        = nova18-22
    program         = /opt/rit/el9/20230413/app/linux-rhel9-x86_64_v3/gcc-11.2.1/nwchem-7.2.0-oxtctbuhfuzyfaoziquq6bki22grib3g/bin/nwchem
    date            = Fri Jun 27 11:26:15 2025

    compiled        = Wed_May_17_23:46:39_2023
    source          = /tmp/root/spack-stage/spack-stage-nwchem-7.2.0-oxtctbuhfuzyfaoziquq6bki22grib3g/spack-src
    nwchem branch   = 7.2.0
    nwchem revision = d0d141fd
    ga revision     = 5.8.0
    use scalapack   = T
    input           = ALA_LEU_0.nw
    prefix          = ALA_LEU_0.
    data base       = ./ALA_LEU_0.db
    status          = startup
    nproc           =        8
    time left       =     -1s



           Memory information
           ------------------

    heap     =   26214394 doubles =    200.0 Mbytes
    stack    =   26214399 doubles =    200.0 Mbytes
    global   =   52428800 doubles =    400.0 Mbytes (distinct from heap & stack)
    total    =  104857593 doubles =    800.0 Mbytes
    verify   = yes
    hardfail = no 


           Directory information
           ---------------------

  0 permanent = .
  0 scratch   = .




                                NWChem Input Module
                                -------------------



 Scaling coordinates for geometry "geometry" by  1.889725989
 (inverse scale =  0.529177249)

 C1  symmetry detected

          ------
          auto-z
          ------
  no constraints, skipping    0.0000000000000000     
  no constraints, skipping    0.0000000000000000     


                             Geometry "geometry" -> ""
                             -------------------------

 Output coordinates in angstroms (scale by  1.889725989 to convert to a.u.)

  No.       Tag          Charge          X              Y              Z
 ---- ---------------- ---------- -------------- -------------- --------------
    1 H                    1.0000    -2.91773928    -3.00919343     1.10858478
    2 C                    6.0000    -2.14408626    -3.26950652     0.38681466
    3 H                    1.0000    -2.47386770    -2.99725205    -0.61470754
    4 H                    1.0000    -1.94528599    -4.33833788     0.43612983
    5 C                    6.0000    -0.88377574    -2.50855484     0.72459997
    6 O                    8.0000    -0.86626011    -1.73789218     1.67480061
    7 N                    7.0000     0.16755289    -2.70740501    -0.06813184
    8 H                    1.0000     0.06243485    -3.34986331    -0.83564571
    9 C                    6.0000     1.47894117    -2.06564386     0.09429475
   10 H                    1.0000     1.72976326    -2.08354306     1.15699551
   11 C                    6.0000     2.52075787    -2.92231462    -0.64302415
   12 H                    1.0000     2.49741785    -3.94540221    -0.26632663
   13 H                    1.0000     2.31492323    -2.92264495    -1.71425802
   14 H                    1.0000     3.51667551    -2.50993009    -0.47553372
   15 C                    6.0000     1.49171314    -0.57628216    -0.33424649
   16 O                    8.0000     2.30870472    -0.15755393    -1.15233722
   17 N                    7.0000     0.56318252     0.22534076     0.19645925
   18 H                    1.0000    -0.05350820    -0.19234651     0.88634903
   19 C                    6.0000     0.32845508     1.63550058    -0.15128534
   20 H                    1.0000     0.44661314     1.73754209    -1.23043973
   21 C                    6.0000    -1.12659713     2.01283663     0.20453566
   22 H                    1.0000    -1.23601363     1.96604832     1.28931761
   23 H                    1.0000    -1.29929047     3.04664556    -0.09979492
   24 C                    6.0000    -2.22111673     1.13245110    -0.43305446
   25 H                    1.0000    -2.10102627     0.10075282    -0.10434190
   26 C                    6.0000    -3.59904261     1.61515963     0.01954552
   27 H                    1.0000    -3.66185700     1.57203147     1.10652910
   28 H                    1.0000    -3.76459328     2.64117659    -0.30946841
   29 H                    1.0000    -4.37281046     0.97221115    -0.40037062
   30 C                    6.0000    -2.18379537     1.16385462    -1.96291686
   31 H                    1.0000    -1.25468117     0.72411386    -2.32272216
   32 H                    1.0000    -3.01533309     0.58455067    -2.36409757
   33 H                    1.0000    -2.25935582     2.19257615    -2.31629148
   34 C                    6.0000     1.36446276     2.60456704     0.46686130
   35 O                    8.0000     1.02498928     3.64026463     1.02570499
   36 N                    7.0000     2.64784997     2.27870254     0.40471157
   37 H                    1.0000     2.91932021     1.44073476    -0.09082745
   38 H                    1.0000     3.32314844     2.90270833     0.81155275

      Atomic Mass 
      ----------- 

      H                  1.007825
      C                 12.000000
      O                 15.994910
      N                 14.003070


 Effective nuclear repulsion energy (a.u.)    1333.6484484458

            Nuclear Dipole moment (a.u.) 
            ----------------------------
        X                 Y               Z
 ---------------- ---------------- ----------------
    -0.0000000000     0.0000000000     0.0000000000



                                Z-matrix (autoz)
                                -------- 

 Units are Angstrom for bonds and degrees for angles

      Type          Name      I     J     K     L     M      Value
      ----------- --------  ----- ----- ----- ----- ----- ----------
    1 Stretch                  1     2                       1.08961
    2 Stretch                  2     3                       1.08900
    3 Stretch                  2     4                       1.08828
    4 Stretch                  2     5                       1.51047
    5 Stretch                  5     6                       1.22356
    6 Stretch                  5     7                       1.33164
    7 Stretch                  7     8                       1.00642
    8 Stretch                  7     9                       1.46901
    9 Stretch                  9    10                       1.09205
   10 Stretch                  9    11                       1.53717
   11 Stretch                  9    15                       1.54984
   12 Stretch                 11    12                       1.09048
   13 Stretch                 11    13                       1.09083
   14 Stretch                 11    14                       1.09086
   15 Stretch                 15    16                       1.22967
   16 Stretch                 15    17                       1.33657
   17 Stretch                 17    18                       1.01524
   18 Stretch                 17    19                       1.47125
   19 Stretch                 19    20                       1.09039
   20 Stretch                 19    21                       1.54472
   21 Stretch                 19    34                       1.54742
   22 Stretch                 21    22                       1.09129
   23 Stretch                 21    23                       1.09142
   24 Stretch                 21    24                       1.54259
   25 Stretch                 24    25                       1.08944
   26 Stretch                 24    26                       1.52857
   27 Stretch                 24    30                       1.53064
   28 Stretch                 26    27                       1.08965
   29 Stretch                 26    28                       1.09012
   30 Stretch                 26    29                       1.09015
   31 Stretch                 30    31                       1.08908
   32 Stretch                 30    32                       1.08995
   33 Stretch                 30    33                       1.09034
   34 Stretch                 34    35                       1.22483
   35 Stretch                 34    36                       1.32557
   36 Stretch                 36    37                       1.01067
   37 Stretch                 36    38                       1.00545
   38 Bend                     1     2     3               109.53941
   39 Bend                     1     2     4               109.53126
   40 Bend                     1     2     5               108.90152
   41 Bend                     2     5     6               120.19334
   42 Bend                     2     5     7               116.76860
   43 Bend                     3     2     4               110.03105
   44 Bend                     3     2     5               109.41402
   45 Bend                     4     2     5               109.40401
   46 Bend                     5     7     8               117.83033
   47 Bend                     5     7     9               125.01089
   48 Bend                     6     5     7               123.02861
   49 Bend                     7     9    10               107.78671
   50 Bend                     7     9    11               107.97041
   51 Bend                     7     9    15               113.36600
   52 Bend                     8     7     9               117.15774
   53 Bend                     9    11    12               110.03897
   54 Bend                     9    11    13               110.07943
   55 Bend                     9    11    14               109.53817
   56 Bend                     9    15    16               121.10893
   57 Bend                     9    15    17               117.44137
   58 Bend                    10     9    11               107.57590
   59 Bend                    10     9    15               106.43541
   60 Bend                    11     9    15               113.41203
   61 Bend                    12    11    13               109.56721
   62 Bend                    12    11    14               108.73400
   63 Bend                    13    11    14               108.85473
   64 Bend                    15    17    18               116.42700
   65 Bend                    15    17    19               126.28799
   66 Bend                    16    15    17               121.43298
   67 Bend                    17    19    20               107.83839
   68 Bend                    17    19    21               109.26686
   69 Bend                    17    19    34               113.51630
   70 Bend                    18    17    19               117.26045
   71 Bend                    19    21    22               108.23666
   72 Bend                    19    21    23               108.43287
   73 Bend                    19    21    24               115.70431
   74 Bend                    19    34    35               121.75213
   75 Bend                    19    34    36               118.39337
   76 Bend                    20    19    21               107.88972
   77 Bend                    20    19    34               105.31929
   78 Bend                    21    19    34               112.68409
   79 Bend                    21    24    25               109.72755
   80 Bend                    21    24    26               109.69402
   81 Bend                    21    24    30               112.58823
   82 Bend                    22    21    23               107.57311
   83 Bend                    22    21    24               108.37596
   84 Bend                    23    21    24               108.24461
   85 Bend                    24    26    27               109.56248
   86 Bend                    24    26    28               110.16668
   87 Bend                    24    26    29               109.84823
   88 Bend                    24    30    31               110.04308
   89 Bend                    24    30    32               109.77813
   90 Bend                    24    30    33               109.97422
   91 Bend                    25    24    26               108.00393
   92 Bend                    25    24    30               108.56105
   93 Bend                    26    24    30               108.14626
   94 Bend                    27    26    28               109.24284
   95 Bend                    27    26    29               108.66222
   96 Bend                    28    26    29               109.33255
   97 Bend                    31    30    32               108.33974
   98 Bend                    31    30    33               109.45109
   99 Bend                    32    30    33               109.22611
  100 Bend                    34    36    37               119.13506
  101 Bend                    34    36    38               118.60222
  102 Bend                    35    34    36               119.84138
  103 Bend                    37    36    38               122.17893
  104 Torsion                  1     2     5     6          -0.80796
  105 Torsion                  1     2     5     7        -179.72342
  106 Torsion                  2     5     7     8          -0.26193
  107 Torsion                  2     5     7     9        -179.87924
  108 Torsion                  3     2     5     6         118.89508
  109 Torsion                  3     2     5     7         -60.02038
  110 Torsion                  4     2     5     6        -120.49513
  111 Torsion                  4     2     5     7          60.58941
  112 Torsion                  5     7     9    10          42.95568
  113 Torsion                  5     7     9    11         158.89670
  114 Torsion                  5     7     9    15         -74.57885
  115 Torsion                  6     5     7     8        -179.14384
  116 Torsion                  6     5     7     9           1.23886
  117 Torsion                  7     9    11    12         -56.24808
  118 Torsion                  7     9    11    13          64.60866
  119 Torsion                  7     9    11    14        -175.73305
  120 Torsion                  7     9    15    16        -126.12820
  121 Torsion                  7     9    15    17          52.40549
  122 Torsion                  8     7     9    10        -136.66396
  123 Torsion                  8     7     9    11         -20.72293
  124 Torsion                  8     7     9    15         105.80151
  125 Torsion                  9    15    17    18           3.37724
  126 Torsion                  9    15    17    19        -174.76114
  127 Torsion                 10     9    11    12          59.83067
  128 Torsion                 10     9    11    13        -179.31259
  129 Torsion                 10     9    11    14         -59.65430
  130 Torsion                 10     9    15    16         115.55246
  131 Torsion                 10     9    15    17         -65.91386
  132 Torsion                 11     9    15    16          -2.53408
  133 Torsion                 11     9    15    17         175.99960
  134 Torsion                 12    11     9    15         177.25436
  135 Torsion                 13    11     9    15         -61.88890
  136 Torsion                 14    11     9    15          57.76940
  137 Torsion                 15    17    19    20          39.33985
  138 Torsion                 15    17    19    21         156.36177
  139 Torsion                 15    17    19    34         -76.93723
  140 Torsion                 16    15    17    18        -178.09412
  141 Torsion                 16    15    17    19           3.76750
  142 Torsion                 17    19    21    22          66.09518
  143 Torsion                 17    19    21    23        -177.48798
  144 Torsion                 17    19    21    24         -55.70645
  145 Torsion                 17    19    34    35        -133.51568
  146 Torsion                 17    19    34    36          45.16415
  147 Torsion                 18    17    19    20        -138.78477
  148 Torsion                 18    17    19    21         -21.76285
  149 Torsion                 18    17    19    34         104.93815
  150 Torsion                 19    21    24    25          60.93308
  151 Torsion                 19    21    24    26         179.42972
  152 Torsion                 19    21    24    30         -60.09382
  153 Torsion                 19    34    36    37           3.71412
  154 Torsion                 19    34    36    38        -179.54097
  155 Torsion                 20    19    21    22        -176.91537
  156 Torsion                 20    19    21    23         -60.49852
  157 Torsion                 20    19    21    24          61.28300
  158 Torsion                 20    19    34    35         108.73600
  159 Torsion                 20    19    34    36         -72.58417
  160 Torsion                 21    19    34    35          -8.63204
  161 Torsion                 21    19    34    36         170.04779
  162 Torsion                 21    24    26    27         -58.64218
  163 Torsion                 21    24    26    28          61.56395
  164 Torsion                 21    24    26    29        -177.93733
  165 Torsion                 21    24    30    31          64.75182
  166 Torsion                 21    24    30    32        -176.09675
  167 Torsion                 21    24    30    33         -55.89577
  168 Torsion                 22    21    19    34         -61.07797
  169 Torsion                 22    21    24    25         -60.79413
  170 Torsion                 22    21    24    26          57.70251
  171 Torsion                 22    21    24    30         178.17898
  172 Torsion                 23    21    19    34          55.33887
  173 Torsion                 23    21    24    25        -177.18488
  174 Torsion                 23    21    24    26         -58.68824
  175 Torsion                 23    21    24    30          61.78822
  176 Torsion                 24    21    19    34         177.12040
  177 Torsion                 25    24    26    27          60.91585
  178 Torsion                 25    24    26    28        -178.87801
  179 Torsion                 25    24    26    29         -58.37929
  180 Torsion                 25    24    30    31         -56.93956
  181 Torsion                 25    24    30    32          62.21187
  182 Torsion                 25    24    30    33        -177.58716
  183 Torsion                 26    24    30    31        -173.88591
  184 Torsion                 26    24    30    32         -54.73448
  185 Torsion                 26    24    30    33          65.46649
  186 Torsion                 27    26    24    30         178.22149
  187 Torsion                 28    26    24    30         -61.57238
  188 Torsion                 29    26    24    30          58.92635
  189 Torsion                 35    34    36    37        -177.58006
  190 Torsion                 35    34    36    38          -0.83516


            XYZ format geometry
            -------------------
    38
 geometry
 H                    -2.91773928    -3.00919343     1.10858478
 C                    -2.14408626    -3.26950652     0.38681466
 H                    -2.47386770    -2.99725205    -0.61470754
 H                    -1.94528599    -4.33833788     0.43612983
 C                    -0.88377574    -2.50855484     0.72459997
 O                    -0.86626011    -1.73789218     1.67480061
 N                     0.16755289    -2.70740501    -0.06813184
 H                     0.06243485    -3.34986331    -0.83564571
 C                     1.47894117    -2.06564386     0.09429475
 H                     1.72976326    -2.08354306     1.15699551
 C                     2.52075787    -2.92231462    -0.64302415
 H                     2.49741785    -3.94540221    -0.26632663
 H                     2.31492323    -2.92264495    -1.71425802
 H                     3.51667551    -2.50993009    -0.47553372
 C                     1.49171314    -0.57628216    -0.33424649
 O                     2.30870472    -0.15755393    -1.15233722
 N                     0.56318252     0.22534076     0.19645925
 H                    -0.05350820    -0.19234651     0.88634903
 C                     0.32845508     1.63550058    -0.15128534
 H                     0.44661314     1.73754209    -1.23043973
 C                    -1.12659713     2.01283663     0.20453566
 H                    -1.23601363     1.96604832     1.28931761
 H                    -1.29929047     3.04664556    -0.09979492
 C                    -2.22111673     1.13245110    -0.43305446
 H                    -2.10102627     0.10075282    -0.10434190
 C                    -3.59904261     1.61515963     0.01954552
 H                    -3.66185700     1.57203147     1.10652910
 H                    -3.76459328     2.64117659    -0.30946841
 H                    -4.37281046     0.97221115    -0.40037062
 C                    -2.18379537     1.16385462    -1.96291686
 H                    -1.25468117     0.72411386    -2.32272216
 H                    -3.01533309     0.58455067    -2.36409757
 H                    -2.25935582     2.19257615    -2.31629148
 C                     1.36446276     2.60456704     0.46686130
 O                     1.02498928     3.64026463     1.02570499
 N                     2.64784997     2.27870254     0.40471157
 H                     2.91932021     1.44073476    -0.09082745
 H                     3.32314844     2.90270833     0.81155275

 ==============================================================================
                                internuclear distances
 ------------------------------------------------------------------------------
       center one      |      center two      | atomic units |  angstroms
 ------------------------------------------------------------------------------
    2 C                |   1 H                |     2.05907  |     1.08961
    3 H                |   2 C                |     2.05792  |     1.08900
    4 H                |   2 C                |     2.05655  |     1.08828
    5 C                |   2 C                |     2.85438  |     1.51047
    6 O                |   5 C                |     2.31220  |     1.22356
    7 N                |   5 C                |     2.51643  |     1.33164
    8 H                |   7 N                |     1.90186  |     1.00642
    9 C                |   7 N                |     2.77602  |     1.46901
   10 H                |   9 C                |     2.06367  |     1.09205
   11 C                |   9 C                |     2.90484  |     1.53717
   12 H                |  11 C                |     2.06071  |     1.09048
   13 H                |  11 C                |     2.06137  |     1.09083
   14 H                |  11 C                |     2.06142  |     1.09086
   15 C                |   9 C                |     2.92878  |     1.54984
   16 O                |  15 C                |     2.32373  |     1.22967
   17 N                |  15 C                |     2.52575  |     1.33657
   18 H                |  17 N                |     1.91853  |     1.01524
   19 C                |  17 N                |     2.78026  |     1.47125
   20 H                |  19 C                |     2.06054  |     1.09039
   21 C                |  19 C                |     2.91910  |     1.54472
   22 H                |  21 C                |     2.06224  |     1.09129
   23 H                |  21 C                |     2.06249  |     1.09142
   24 C                |  21 C                |     2.91507  |     1.54259
   25 H                |  24 C                |     2.05874  |     1.08944
   26 C                |  24 C                |     2.88858  |     1.52857
   27 H                |  26 C                |     2.05914  |     1.08965
   28 H                |  26 C                |     2.06003  |     1.09012
   29 H                |  26 C                |     2.06009  |     1.09015
   30 C                |  24 C                |     2.89249  |     1.53064
   31 H                |  30 C                |     2.05805  |     1.08908
   32 H                |  30 C                |     2.05971  |     1.08995
   33 H                |  30 C                |     2.06045  |     1.09034
   34 C                |  19 C                |     2.92420  |     1.54742
   35 O                |  34 C                |     2.31460  |     1.22483
   36 N                |  34 C                |     2.50496  |     1.32557
   37 H                |  36 N                |     1.90988  |     1.01067
   38 H                |  36 N                |     1.90003  |     1.00545
 ------------------------------------------------------------------------------
                         number of included internuclear distances:         37
 ==============================================================================



 ==============================================================================
                                 internuclear angles
 ------------------------------------------------------------------------------
        center 1       |       center 2       |       center 3       |  degrees
 ------------------------------------------------------------------------------
    1 H                |   2 C                |   3 H                |   109.54
    1 H                |   2 C                |   4 H                |   109.53
    1 H                |   2 C                |   5 C                |   108.90
    3 H                |   2 C                |   4 H                |   110.03
    3 H                |   2 C                |   5 C                |   109.41
    4 H                |   2 C                |   5 C                |   109.40
    2 C                |   5 C                |   6 O                |   120.19
    2 C                |   5 C                |   7 N                |   116.77
    6 O                |   5 C                |   7 N                |   123.03
    5 C                |   7 N                |   8 H                |   117.83
    5 C                |   7 N                |   9 C                |   125.01
    8 H                |   7 N                |   9 C                |   117.16
    7 N                |   9 C                |  10 H                |   107.79
    7 N                |   9 C                |  11 C                |   107.97
    7 N                |   9 C                |  15 C                |   113.37
   10 H                |   9 C                |  11 C                |   107.58
   10 H                |   9 C                |  15 C                |   106.44
   11 C                |   9 C                |  15 C                |   113.41
    9 C                |  11 C                |  12 H                |   110.04
    9 C                |  11 C                |  13 H                |   110.08
    9 C                |  11 C                |  14 H                |   109.54
   12 H                |  11 C                |  13 H                |   109.57
   12 H                |  11 C                |  14 H                |   108.73
   13 H                |  11 C                |  14 H                |   108.85
    9 C                |  15 C                |  16 O                |   121.11
    9 C                |  15 C                |  17 N                |   117.44
   16 O                |  15 C                |  17 N                |   121.43
   15 C                |  17 N                |  18 H                |   116.43
   15 C                |  17 N                |  19 C                |   126.29
   18 H                |  17 N                |  19 C                |   117.26
   17 N                |  19 C                |  20 H                |   107.84
   17 N                |  19 C                |  21 C                |   109.27
   17 N                |  19 C                |  34 C                |   113.52
   20 H                |  19 C                |  21 C                |   107.89
   20 H                |  19 C                |  34 C                |   105.32
   21 C                |  19 C                |  34 C                |   112.68
   19 C                |  21 C                |  22 H                |   108.24
   19 C                |  21 C                |  23 H                |   108.43
   19 C                |  21 C                |  24 C                |   115.70
   22 H                |  21 C                |  23 H                |   107.57
   22 H                |  21 C                |  24 C                |   108.38
   23 H                |  21 C                |  24 C                |   108.24
   21 C                |  24 C                |  25 H                |   109.73
   21 C                |  24 C                |  26 C                |   109.69
   21 C                |  24 C                |  30 C                |   112.59
   25 H                |  24 C                |  26 C                |   108.00
   25 H                |  24 C                |  30 C                |   108.56
   26 C                |  24 C                |  30 C                |   108.15
   24 C                |  26 C                |  27 H                |   109.56
   24 C                |  26 C                |  28 H                |   110.17
   24 C                |  26 C                |  29 H                |   109.85
   27 H                |  26 C                |  28 H                |   109.24
   27 H                |  26 C                |  29 H                |   108.66
   28 H                |  26 C                |  29 H                |   109.33
   24 C                |  30 C                |  31 H                |   110.04
   24 C                |  30 C                |  32 H                |   109.78
   24 C                |  30 C                |  33 H                |   109.97
   31 H                |  30 C                |  32 H                |   108.34
   31 H                |  30 C                |  33 H                |   109.45
   32 H                |  30 C                |  33 H                |   109.23
   19 C                |  34 C                |  35 O                |   121.75
   19 C                |  34 C                |  36 N                |   118.39
   35 O                |  34 C                |  36 N                |   119.84
   34 C                |  36 N                |  37 H                |   119.14
   34 C                |  36 N                |  38 H                |   118.60
   37 H                |  36 N                |  38 H                |   122.18
 ------------------------------------------------------------------------------
                            number of included internuclear angles:         66
 ==============================================================================



  library name resolved from: environment
  library file name is: </opt/rit/el9/20230413/app/linux-rhel9-x86_64_v3/gcc-11.2.1/nwchem-7.2.0-oxtctbuhfuzyfaoziquq6bki22grib3g/share/nwchem/libraries/>
  


 Summary of "ao basis" -> "" (cartesian)
 ------------------------------------------------------------------------------
       Tag                 Description            Shells   Functions and Types
 ---------------- ------------------------------  ------  ---------------------
 *                        aug-cc-pvdz                 on all atoms 


                      Basis "ao basis" -> "ao basis" (cartesian)
                      -----
  H (Hydrogen)
  ------------
            Exponent  Coefficients 
       -------------- ---------------------------------------------------------
  1 S  1.30100000E+01  0.019685
  1 S  1.96200000E+00  0.137977
  1 S  4.44600000E-01  0.478148

  2 S  1.22000000E-01  1.000000

  3 S  2.97400000E-02  1.000000

  4 P  7.27000000E-01  1.000000

  5 P  1.41000000E-01  1.000000

  C (Carbon)
  ----------
            Exponent  Coefficients 
       -------------- ---------------------------------------------------------
  1 S  6.66500000E+03  0.000692
  1 S  1.00000000E+03  0.005329
  1 S  2.28000000E+02  0.027077
  1 S  6.47100000E+01  0.101718
  1 S  2.10600000E+01  0.274740
  1 S  7.49500000E+00  0.448564
  1 S  2.79700000E+00  0.285074
  1 S  5.21500000E-01  0.015204

  2 S  6.66500000E+03 -0.000146
  2 S  1.00000000E+03 -0.001154
  2 S  2.28000000E+02 -0.005725
  2 S  6.47100000E+01 -0.023312
  2 S  2.10600000E+01 -0.063955
  2 S  7.49500000E+00 -0.149981
  2 S  2.79700000E+00 -0.127262
  2 S  5.21500000E-01  0.544529

  3 S  1.59600000E-01  1.000000

  4 S  4.69000000E-02  1.000000

  5 P  9.43900000E+00  0.038109
  5 P  2.00200000E+00  0.209480
  5 P  5.45600000E-01  0.508557

  6 P  1.51700000E-01  1.000000

  7 P  4.04100000E-02  1.000000

  8 D  5.50000000E-01  1.000000

  9 D  1.51000000E-01  1.000000

  O (Oxygen)
  ----------
            Exponent  Coefficients 
       -------------- ---------------------------------------------------------
  1 S  1.17200000E+04  0.000710
  1 S  1.75900000E+03  0.005470
  1 S  4.00800000E+02  0.027837
  1 S  1.13700000E+02  0.104800
  1 S  3.70300000E+01  0.283062
  1 S  1.32700000E+01  0.448719
  1 S  5.02500000E+00  0.270952
  1 S  1.01300000E+00  0.015458

  2 S  1.17200000E+04 -0.000160
  2 S  1.75900000E+03 -0.001263
  2 S  4.00800000E+02 -0.006267
  2 S  1.13700000E+02 -0.025716
  2 S  3.70300000E+01 -0.070924
  2 S  1.32700000E+01 -0.165411
  2 S  5.02500000E+00 -0.116955
  2 S  1.01300000E+00  0.557368

  3 S  3.02300000E-01  1.000000

  4 S  7.89600000E-02  1.000000

  5 P  1.77000000E+01  0.043018
  5 P  3.85400000E+00  0.228913
  5 P  1.04600000E+00  0.508728

  6 P  2.75300000E-01  1.000000

  7 P  6.85600000E-02  1.000000

  8 D  1.18500000E+00  1.000000

  9 D  3.32000000E-01  1.000000

  N (Nitrogen)
  ------------
            Exponent  Coefficients 
       -------------- ---------------------------------------------------------
  1 S  9.04600000E+03  0.000700
  1 S  1.35700000E+03  0.005389
  1 S  3.09300000E+02  0.027406
  1 S  8.77300000E+01  0.103207
  1 S  2.85600000E+01  0.278723
  1 S  1.02100000E+01  0.448540
  1 S  3.83800000E+00  0.278238
  1 S  7.46600000E-01  0.015440

  2 S  9.04600000E+03 -0.000153
  2 S  1.35700000E+03 -0.001208
  2 S  3.09300000E+02 -0.005992
  2 S  8.77300000E+01 -0.024544
  2 S  2.85600000E+01 -0.067459
  2 S  1.02100000E+01 -0.158078
  2 S  3.83800000E+00 -0.121831
  2 S  7.46600000E-01  0.549003

  3 S  2.24800000E-01  1.000000

  4 S  6.12400000E-02  1.000000

  5 P  1.35500000E+01  0.039919
  5 P  2.91700000E+00  0.217169
  5 P  7.97300000E-01  0.510319

  6 P  2.18500000E-01  1.000000

  7 P  5.61100000E-02  1.000000

  8 D  8.17000000E-01  1.000000

  9 D  2.30000000E-01  1.000000



 Summary of "ao basis" -> "ao basis" (cartesian)
 ------------------------------------------------------------------------------
       Tag                 Description            Shells   Functions and Types
 ---------------- ------------------------------  ------  ---------------------
 H                        aug-cc-pvdz                5        9   3s2p
 C                        aug-cc-pvdz                9       25   4s3p2d
 O                        aug-cc-pvdz                9       25   4s3p2d
 N                        aug-cc-pvdz                9       25   4s3p2d


                                 NWChem SCF Module
                                 -----------------



  ao basis        = "ao basis"
  functions       =   614
  atoms           =    38
  closed shells   =    66
  open shells     =     0
  charge          =   0.00
  wavefunction    = RHF 
  input vectors   = atomic
  output vectors  = ./ALA_LEU_0.movecs
  use symmetry    = F
  symmetry adapt  = F


 Summary of "ao basis" -> "ao basis" (cartesian)
 ------------------------------------------------------------------------------
       Tag                 Description            Shells   Functions and Types
 ---------------- ------------------------------  ------  ---------------------
 H                        aug-cc-pvdz                5        9   3s2p
 C                        aug-cc-pvdz                9       25   4s3p2d
 O                        aug-cc-pvdz                9       25   4s3p2d
 N                        aug-cc-pvdz                9       25   4s3p2d



 Forming initial guess at       1.2s


 !! The overlap matrix has   6 vectors deemed linearly dependent with
    eigenvalues:
 2.18D-06 3.08D-06 3.90D-06 7.98D-06 8.82D-06 9.72D-06


      Superposition of Atomic Density Guess
      -------------------------------------

 Sum of atomic energies:        -812.03184720

      Non-variational initial energy
      ------------------------------

 Total energy =    -823.523517
 1-e energy   =   -3751.159522
 2-e energy   =    1593.987556
 HOMO         =      -0.308296
 LUMO         =       0.004255


 Starting SCF solution at     348.6s



 ----------------------------------------------
         Quadratically convergent ROHF

 Convergence threshold     :          1.000E-04
 Maximum no. of iterations :           30
 Final Fock-matrix accuracy:          1.000E-10
 ----------------------------------------------


              iter       energy          gnorm     gmax       time
             ----- ------------------- --------- --------- --------
                 1     -816.5180270659  2.42D+00  1.45D-01    666.3
                 2     -816.8328244442  8.45D-01  4.91D-02   1360.3
                 3     -816.8948749626  6.25D-02  4.01D-03   2433.8
                 4     -816.8954694041  1.90D-03  9.79D-05   4221.4
                 5     -816.8954698665  4.77D-06  3.53D-07   6605.2


       Final RHF  results 
       ------------------ 

         Total SCF energy =   -816.895469866544
      One-electron energy =  -3764.440113017755
      Two-electron energy =   1613.896194705417
 Nuclear repulsion energy =   1333.648448445794

        Time for solution =   6261.0s


             Final eigenvalues
             -----------------

              1      
    1  -20.5506
    2  -20.5413
    3  -20.5095
    4  -15.6248
    5  -15.5964
    6  -15.5719
    7  -11.3802
    8  -11.3702
    9  -11.3428
   10  -11.3152
   11  -11.2900
   12  -11.2621
   13  -11.2521
   14  -11.2330
   15  -11.2294
   16  -11.2197
   17  -11.2167
   18   -1.4171
   19   -1.4003
   20   -1.3710
   21   -1.2723
   22   -1.2444
   23   -1.2008
   24   -1.0980
   25   -1.0755
   26   -1.0170
   27   -1.0100
   28   -0.9314
   29   -0.9126
   30   -0.8869
   31   -0.8333
   32   -0.8047
   33   -0.7846
   34   -0.7656
   35   -0.7361
   36   -0.7265
   37   -0.7048
   38   -0.6915
   39   -0.6682
   40   -0.6638
   41   -0.6376
   42   -0.6296
   43   -0.6139
   44   -0.6059
   45   -0.5992
   46   -0.5915
   47   -0.5824
   48   -0.5744
   49   -0.5664
   50   -0.5566
   51   -0.5536
   52   -0.5464
   53   -0.5403
   54   -0.5335
   55   -0.5307
   56   -0.5221
   57   -0.5027
   58   -0.4724
   59   -0.4628
   60   -0.4587
   61   -0.4542
   62   -0.4451
   63   -0.4330
   64   -0.4110
   65   -0.3935
   66   -0.3841
   67    0.0198
   68    0.0332
   69    0.0390
   70    0.0400
   71    0.0491
   72    0.0528
   73    0.0550
   74    0.0595
   75    0.0600
   76    0.0678

                       ROHF Final Molecular Orbital Analysis
                       -------------------------------------

 Vector   18  Occ=2.000000D+00  E=-1.417116D+00
              MO Center= -5.7D-01, -1.9D+00,  1.1D+00, r^2= 1.7D+00
   Bfn.  Coefficient  Atom+Function         Bfn.  Coefficient  Atom+Function  
  ----- ------------  ---------------      ----- ------------  ---------------
    80      0.342146   6 O  s                79      0.336482   6 O  s         
    54      0.236445   5 C  s                12      0.179041   2 C  s         

 Vector   19  Occ=2.000000D+00  E=-1.400275D+00
              MO Center=  1.7D+00, -3.1D-01, -6.1D-01, r^2= 2.1D+00
   Bfn.  Coefficient  Atom+Function         Bfn.  Coefficient  Atom+Function  
  ----- ------------  ---------------      ----- ------------  ---------------
   250      0.364411  16 O  s               249      0.341859  16 O  s         
   224      0.230958  15 C  s         

 Vector   20  Occ=2.000000D+00  E=-1.370972D+00
              MO Center=  1.3D+00,  3.1D+00,  7.6D-01, r^2= 1.1D+00
   Bfn.  Coefficient  Atom+Function         Bfn.  Coefficient  Atom+Function  
  ----- ------------  ---------------      ----- ------------  ---------------
   549      0.373326  35 O  s               548      0.350420  35 O  s         
   523      0.244351  34 C  s         

 Vector   21  Occ=2.000000D+00  E=-1.272320D+00
              MO Center=  1.2D-01, -2.4D+00,  1.9D-01, r^2= 1.9D+00
   Bfn.  Coefficient  Atom+Function         Bfn.  Coefficient  Atom+Function  
  ----- ------------  ---------------      ----- ------------  ---------------
   105      0.401362   7 N  s               104      0.340413   7 N  s         
    80     -0.220609   6 O  s                79     -0.181555   6 O  s         
   128      0.156956   8 H  s                59     -0.151286   5 C  pz        

 Vector   22  Occ=2.000000D+00  E=-1.244391D+00
              MO Center=  7.7D-01,  2.6D-01,  1.3D-02, r^2= 2.2D+00
   Bfn.  Coefficient  Atom+Function         Bfn.  Coefficient  Atom+Function  
  ----- ------------  ---------------      ----- ------------  ---------------
   275      0.404602  17 N  s               274      0.338906  17 N  s         
   250     -0.204108  16 O  s               309     -0.176192  19 C  s         
   249     -0.161681  16 O  s         

 Vector   23  Occ=2.000000D+00  E=-1.200815D+00
              MO Center=  2.2D+00,  2.4D+00,  4.5D-01, r^2= 1.6D+00
   Bfn.  Coefficient  Atom+Function         Bfn.  Coefficient  Atom+Function  
  ----- ------------  ---------------      ----- ------------  ---------------
   574      0.391789  36 N  s               573      0.367596  36 N  s         
   549     -0.210869  35 O  s               548     -0.175511  35 O  s         
   526      0.168037  34 C  px              597      0.164804  37 H  s         
   606      0.157752  38 H  s               275     -0.150610  17 N  s         

 Vector   24  Occ=2.000000D+00  E=-1.098050D+00
              MO Center= -1.6D+00,  1.1D+00, -3.6D-01, r^2= 4.3D+00
   Bfn.  Coefficient  Atom+Function         Bfn.  Coefficient  Atom+Function  
  ----- ------------  ---------------      ----- ------------  ---------------
   343      0.402003  21 C  s               385      0.239284  24 C  s         
   342      0.194111  21 C  s               386     -0.193338  24 C  s         
   391     -0.167787  24 C  px              348     -0.162882  21 C  px        
   349     -0.156265  21 C  py        

 Vector   25  Occ=2.000000D+00  E=-1.075490D+00
              MO Center=  4.2D-01, -2.1D+00, -6.0D-02, r^2= 6.3D+00
   Bfn.  Coefficient  Atom+Function         Bfn.  Coefficient  Atom+Function  
  ----- ------------  ---------------      ----- ------------  ---------------
   138      0.233709   9 C  s               343      0.209256  21 C  s         
   172      0.192407  11 C  s                12     -0.168855   2 C  s         
   144      0.165424   9 C  px              225      0.163512  15 C  s         
    11     -0.150410   2 C  s         

 Vector   26  Occ=2.000000D+00  E=-1.016958D+00
              MO Center= -7.8D-01,  3.1D-01, -7.1D-02, r^2= 8.0D+00
   Bfn.  Coefficient  Atom+Function         Bfn.  Coefficient  Atom+Function  
  ----- ------------  ---------------      ----- ------------  ---------------
   308      0.227717  19 C  s                11     -0.172365   2 C  s         
   386      0.153949  24 C  s         

 Vector   27  Occ=2.000000D+00  E=-1.009962D+00
              MO Center= -4.4D-01, -2.2D+00,  5.6D-02, r^2= 8.3D+00
   Bfn.  Coefficient  Atom+Function         Bfn.  Coefficient  Atom+Function  
  ----- ------------  ---------------      ----- ------------  ---------------
    11      0.267231   2 C  s               172      0.191715  11 C  s         
   144      0.178818   9 C  px               55      0.152931   5 C  s         

 Vector   28  Occ=2.000000D+00  E=-9.313539D-01
              MO Center= -2.6D+00,  1.3D+00, -1.1D+00, r^2= 3.0D+00
   Bfn.  Coefficient  Atom+Function         Bfn.  Coefficient  Atom+Function  
  ----- ------------  ---------------      ----- ------------  ---------------
   393      0.319913  24 C  pz              471     -0.298431  30 C  s         
   419      0.240512  26 C  s               391     -0.202315  24 C  px        
   479      0.174263  30 C  pz              495     -0.159448  31 H  s         
   425     -0.150986  26 C  px        

 Vector   29  Occ=2.000000D+00  E=-9.126018D-01
              MO Center=  4.7D-01, -7.9D-01, -1.8D-01, r^2= 1.0D+01
   Bfn.  Coefficient  Atom+Function         Bfn.  Coefficient  Atom+Function  
  ----- ------------  ---------------      ----- ------------  ---------------
   139      0.293843   9 C  s               145      0.242722   9 C  py        
   172     -0.210488  11 C  s               225     -0.198558  15 C  s         
   472     -0.185008  30 C  s               342      0.178651  21 C  s         
   173     -0.171332  11 C  s         

 Vector   30  Occ=2.000000D+00  E=-8.868628D-01
              MO Center=  1.8D-01,  6.3D-01, -2.6D-02, r^2= 9.7D+00
   Bfn.  Coefficient  Atom+Function         Bfn.  Coefficient  Atom+Function  
  ----- ------------  ---------------      ----- ------------  ---------------
   309      0.271018  19 C  s               342     -0.166846  21 C  s         
   139      0.165323   9 C  s         

 Vector   31  Occ=2.000000D+00  E=-8.333400D-01
              MO Center=  8.8D-02, -2.2D+00,  1.3D-01, r^2= 4.4D+00
   Bfn.  Coefficient  Atom+Function         Bfn.  Coefficient  Atom+Function  
  ----- ------------  ---------------      ----- ------------  ---------------
   109      0.233167   7 N  pz              139      0.233122   9 C  s         
   107     -0.224519   7 N  px              128     -0.224963   8 H  s         
    54      0.212902   5 C  s                80     -0.168435   6 O  s         
    56     -0.167537   5 C  s               343      0.167725  21 C  s         
   105     -0.160409   7 N  s         

 Vector   32  Occ=2.000000D+00  E=-8.047495D-01
              MO Center=  7.8D-01, -4.0D-01,  4.5D-02, r^2= 5.6D+00
   Bfn.  Coefficient  Atom+Function         Bfn.  Coefficient  Atom+Function  
  ----- ------------  ---------------      ----- ------------  ---------------
   277      0.218160  17 N  px              343      0.187569  21 C  s         
   128      0.182021   8 H  s               224      0.178274  15 C  s         
   298     -0.173375  18 H  s               309      0.171639  19 C  s         
   250     -0.169061  16 O  s               109     -0.165082   7 N  pz        
   145      0.163563   9 C  py              275     -0.156882  17 N  s         

 Vector   33  Occ=2.000000D+00  E=-7.846074D-01
              MO Center=  3.8D-01,  1.7D+00,  5.3D-02, r^2= 7.5D+00
   Bfn.  Coefficient  Atom+Function         Bfn.  Coefficient  Atom+Function  
  ----- ------------  ---------------      ----- ------------  ---------------
   386      0.394182  24 C  s               576     -0.265001  36 N  px        
   420     -0.237440  26 C  s               314      0.198716  19 C  px        
   523      0.181164  34 C  s               529      0.172312  34 C  px        
   385      0.155537  24 C  s               472     -0.152343  30 C  s         
   574     -0.150789  36 N  s         

 Vector   34  Occ=2.000000D+00  E=-7.655620D-01
              MO Center= -8.0D-01,  1.0D+00, -2.0D-01, r^2= 6.5D+00
   Bfn.  Coefficient  Atom+Function         Bfn.  Coefficient  Atom+Function  
  ----- ------------  ---------------      ----- ------------  ---------------
   343      0.445854  21 C  s               386     -0.354269  24 C  s         
   309     -0.212656  19 C  s               387      0.196819  24 C  s         
   420      0.192084  26 C  s               385     -0.190223  24 C  s         
   472      0.189110  30 C  s               225     -0.186799  15 C  s         
   409     -0.172106  25 H  s               276     -0.167566  17 N  s         

 Vector   35  Occ=2.000000D+00  E=-7.361488D-01
              MO Center=  1.0D+00, -5.0D-01, -9.5D-02, r^2= 7.4D+00
   Bfn.  Coefficient  Atom+Function         Bfn.  Coefficient  Atom+Function  
  ----- ------------  ---------------      ----- ------------  ---------------
   145      0.317087   9 C  py              343     -0.296652  21 C  s         
   225     -0.231868  15 C  s               139      0.209885   9 C  s         
   228     -0.205889  15 C  py              253     -0.176128  16 O  py        
   142      0.163173   9 C  py               55     -0.150868   5 C  s         
   606      0.151164  38 H  s         

 Vector   36  Occ=2.000000D+00  E=-7.264675D-01
              MO Center=  1.6D+00,  1.2D+00,  2.5D-01, r^2= 6.1D+00
   Bfn.  Coefficient  Atom+Function         Bfn.  Coefficient  Atom+Function  
  ----- ------------  ---------------      ----- ------------  ---------------
   225      0.299054  15 C  s               577      0.282144  36 N  py        
   597     -0.275367  37 H  s               139     -0.259090   9 C  s         
   145     -0.248523   9 C  py              526      0.174641  34 C  px        
   315     -0.168133  19 C  py              343      0.168732  21 C  s         
   598     -0.162816  37 H  s               309     -0.159778  19 C  s         

 Vector   37  Occ=2.000000D+00  E=-7.047689D-01
              MO Center= -4.8D-01, -1.8D+00,  4.9D-01, r^2= 6.6D+00
   Bfn.  Coefficient  Atom+Function         Bfn.  Coefficient  Atom+Function  
  ----- ------------  ---------------      ----- ------------  ---------------
    57      0.205767   5 C  px              343     -0.200320  21 C  s         
    83      0.189395   6 O  py               17     -0.185844   2 C  px        
    80      0.164586   6 O  s                14     -0.152169   2 C  px        
    82      0.151516   6 O  px        

 Vector   38  Occ=2.000000D+00  E=-6.915435D-01
              MO Center=  4.5D-01, -2.0D+00,  5.2D-01, r^2= 4.6D+00
   Bfn.  Coefficient  Atom+Function         Bfn.  Coefficient  Atom+Function  
  ----- ------------  ---------------      ----- ------------  ---------------
   144      0.221431   9 C  px               84      0.215888   6 O  pz        
    80      0.195830   6 O  s               162      0.193836  10 H  s         
   108     -0.191015   7 N  py              143      0.181382   9 C  pz        
   141      0.174058   9 C  px               12     -0.166437   2 C  s         
    58     -0.150818   5 C  py              173     -0.150302  11 C  s         

 Vector   39  Occ=2.000000D+00  E=-6.681700D-01
              MO Center=  1.0D+00,  5.7D-01, -1.7D-01, r^2= 6.7D+00
   Bfn.  Coefficient  Atom+Function         Bfn.  Coefficient  Atom+Function  
  ----- ------------  ---------------      ----- ------------  ---------------
   315      0.245679  19 C  py              250      0.216982  16 O  s         
   278     -0.215246  17 N  py              309      0.204029  19 C  s         
   312      0.170187  19 C  py              254     -0.167675  16 O  pz        
   343     -0.157916  21 C  s               252      0.155747  16 O  px        
   227     -0.153167  15 C  px        

 Vector   40  Occ=2.000000D+00  E=-6.637916D-01
              MO Center=  6.8D-01,  1.8D+00,  1.4D-01, r^2= 6.7D+00
   Bfn.  Coefficient  Atom+Function         Bfn.  Coefficient  Atom+Function  
  ----- ------------  ---------------      ----- ------------  ---------------
   526     -0.232265  34 C  px              386      0.217971  24 C  s         
   313      0.195732  19 C  pz              576      0.193735  36 N  px        
   606      0.191168  38 H  s               552     -0.187045  35 O  py        
   139     -0.177884   9 C  s               549     -0.173076  35 O  s         
   225      0.158553  15 C  s         

 Vector   41  Occ=2.000000D+00  E=-6.376480D-01
              MO Center= -1.2D+00, -2.0D+00,  2.1D-01, r^2= 7.1D+00
   Bfn.  Coefficient  Atom+Function         Bfn.  Coefficient  Atom+Function  
  ----- ------------  ---------------      ----- ------------  ---------------
    15      0.218166   2 C  py              139      0.208857   9 C  s         
    44     -0.205563   4 H  s                35      0.190685   3 H  s         
    16     -0.165430   2 C  pz               83      0.154611   6 O  py        

 Vector   42  Occ=2.000000D+00  E=-6.295641D-01
              MO Center= -1.7D+00,  5.6D-01, -3.6D-01, r^2= 7.8D+00
   Bfn.  Coefficient  Atom+Function         Bfn.  Coefficient  Atom+Function  
  ----- ------------  ---------------      ----- ------------  ---------------
   389     -0.176614  24 C  py              343      0.171410  21 C  s         
   392     -0.169640  24 C  py              376     -0.167451  23 H  s         
   475     -0.158101  30 C  py        

 Vector   43  Occ=2.000000D+00  E=-6.138577D-01
              MO Center=  1.2D+00, -5.3D-01, -3.5D-01, r^2= 6.9D+00
   Bfn.  Coefficient  Atom+Function         Bfn.  Coefficient  Atom+Function  
  ----- ------------  ---------------      ----- ------------  ---------------
   254      0.232480  16 O  pz              252     -0.208530  16 O  px        
   139     -0.179767   9 C  s               145     -0.175780   9 C  py        
   298      0.171276  18 H  s               227      0.166809  15 C  px        
   250     -0.167426  16 O  s               299      0.164184  18 H  s         

 Vector   44  Occ=2.000000D+00  E=-6.059494D-01
              MO Center= -1.6D-01, -1.9D+00,  5.2D-01, r^2= 6.6D+00
   Bfn.  Coefficient  Atom+Function         Bfn.  Coefficient  Atom+Function  
  ----- ------------  ---------------      ----- ------------  ---------------
    84      0.250798   6 O  pz               58     -0.205045   5 C  py        
    14      0.192929   2 C  px               59     -0.192556   5 C  pz        
    83      0.174739   6 O  py               80      0.171079   6 O  s         
   128     -0.169686   8 H  s               309     -0.151210  19 C  s         

 Vector   45  Occ=2.000000D+00  E=-5.992394D-01
              MO Center= -1.1D+00,  1.9D+00, -1.3D-01, r^2= 8.8D+00
   Bfn.  Coefficient  Atom+Function         Bfn.  Coefficient  Atom+Function  
  ----- ------------  ---------------      ----- ------------  ---------------
   552      0.248823  35 O  py              474     -0.193365  30 C  px        
   376      0.183800  23 H  s               549      0.173872  35 O  s         
   424     -0.169095  26 C  pz              351      0.164211  21 C  px        
   527     -0.160217  34 C  py              495     -0.157650  31 H  s         
   496     -0.157512  31 H  s               443     -0.153109  27 H  s         

 Vector   46  Occ=2.000000D+00  E=-5.914633D-01
              MO Center= -1.3D+00, -2.7D+00,  3.9D-01, r^2= 6.6D+00
   Bfn.  Coefficient  Atom+Function         Bfn.  Coefficient  Atom+Function  
  ----- ------------  ---------------      ----- ------------  ---------------
     2      0.341690   1 H  s                 1      0.305239   1 H  s         
    16      0.286301   2 C  pz               56     -0.196596   5 C  s         
    13     -0.181009   2 C  s                35     -0.168088   3 H  s         
   175      0.164470  11 C  px               14     -0.152730   2 C  px        

 Vector   47  Occ=2.000000D+00  E=-5.824336D-01
              MO Center= -3.6D-01,  1.7D+00,  1.5D-01, r^2= 9.8D+00
   Bfn.  Coefficient  Atom+Function         Bfn.  Coefficient  Atom+Function  
  ----- ------------  ---------------      ----- ------------  ---------------
   524      0.240073  34 C  s               552     -0.223362  35 O  py        
   314     -0.210877  19 C  px              527      0.179758  34 C  py        
   311     -0.177258  19 C  px              444     -0.174915  27 H  s         
   424     -0.167080  26 C  pz              461      0.159881  29 H  s         
   549     -0.154754  35 O  s               344     -0.152018  21 C  s         

 Vector   48  Occ=2.000000D+00  E=-5.744398D-01
              MO Center=  1.5D-01,  3.9D-01, -4.0D-01, r^2= 1.1D+01
   Bfn.  Coefficient  Atom+Function         Bfn.  Coefficient  Atom+Function  
  ----- ------------  ---------------      ----- ------------  ---------------
   174      0.205730  11 C  s               215     -0.179389  14 H  s         
   139     -0.165752   9 C  s               474      0.156379  30 C  px        

 Vector   49  Occ=2.000000D+00  E=-5.663896D-01
              MO Center=  1.1D+00, -1.5D+00, -2.7D-01, r^2= 1.0D+01
   Bfn.  Coefficient  Atom+Function         Bfn.  Coefficient  Atom+Function  
  ----- ------------  ---------------      ----- ------------  ---------------
   196      0.205500  12 H  s               205     -0.197893  13 H  s         
   177      0.184304  11 C  pz               56      0.182448   5 C  s         
   197      0.183058  12 H  s               206     -0.182137  13 H  s         
   176     -0.171270  11 C  py              175      0.160349  11 C  px        

 Vector   50  Occ=2.000000D+00  E=-5.566260D-01
              MO Center=  7.8D-01, -3.2D-01, -5.1D-01, r^2= 1.1D+01
   Bfn.  Coefficient  Atom+Function         Bfn.  Coefficient  Atom+Function  
  ----- ------------  ---------------      ----- ------------  ---------------
   176      0.251342  11 C  py              496      0.201538  31 H  s         
   215      0.199683  14 H  s               196     -0.193707  12 H  s         
   474      0.152816  30 C  px        

 Vector   51  Occ=2.000000D+00  E=-5.535773D-01
              MO Center=  4.3D-01, -1.6D+00, -9.3D-03, r^2= 8.7D+00
   Bfn.  Coefficient  Atom+Function         Bfn.  Coefficient  Atom+Function  
  ----- ------------  ---------------      ----- ------------  ---------------
   254      0.212707  16 O  pz              215      0.186208  14 H  s         
   108      0.167595   7 N  py              139      0.166328   9 C  s         
    14      0.163462   2 C  px               44      0.162221   4 H  s         
   214      0.158162  14 H  s                12      0.151466   2 C  s         

 Vector   52  Occ=2.000000D+00  E=-5.463654D-01
              MO Center=  8.2D-02, -2.3D+00,  2.4D-01, r^2= 7.5D+00
   Bfn.  Coefficient  Atom+Function         Bfn.  Coefficient  Atom+Function  
  ----- ------------  ---------------      ----- ------------  ---------------
   175      0.231402  11 C  px               16     -0.193337   2 C  pz        
    35      0.192169   3 H  s                83     -0.191141   6 O  py        
   214      0.191745  14 H  s                56      0.186471   5 C  s         
    45     -0.181917   4 H  s               107      0.172774   7 N  px        
   141     -0.169525   9 C  px              215      0.168466  14 H  s         

 Vector   53  Occ=2.000000D+00  E=-5.402829D-01
              MO Center= -2.2D+00,  1.6D+00, -9.0D-01, r^2= 6.5D+00
   Bfn.  Coefficient  Atom+Function         Bfn.  Coefficient  Atom+Function  
  ----- ------------  ---------------      ----- ------------  ---------------
   475     -0.282993  30 C  py              513     -0.266510  33 H  s         
   423      0.260940  26 C  py              452      0.252032  28 H  s         
   514     -0.241978  33 H  s               453      0.219476  28 H  s         

 Vector   54  Occ=2.000000D+00  E=-5.335255D-01
              MO Center= -6.7D-01,  1.2D+00, -2.3D-01, r^2= 9.7D+00
   Bfn.  Coefficient  Atom+Function         Bfn.  Coefficient  Atom+Function  
  ----- ------------  ---------------      ----- ------------  ---------------
   376      0.275019  23 H  s               375      0.224966  23 H  s         
   346      0.211278  21 C  py              505      0.203923  32 H  s         
   343     -0.158026  21 C  s               367     -0.150270  22 H  s         

 Vector   55  Occ=2.000000D+00  E=-5.306903D-01
              MO Center=  2.6D-01,  4.1D-01, -3.0D-01, r^2= 1.2D+01
   Bfn.  Coefficient  Atom+Function         Bfn.  Coefficient  Atom+Function  
  ----- ------------  ---------------      ----- ------------  ---------------
   174      0.195975  11 C  s               197     -0.184317  12 H  s         
   505      0.184614  32 H  s               462     -0.173959  29 H  s         
   177     -0.171909  11 C  pz              553      0.158771  35 O  pz        
   143      0.154738   9 C  pz              461     -0.155052  29 H  s         
   205      0.151136  13 H  s         

 Vector   56  Occ=2.000000D+00  E=-5.221168D-01
              MO Center=  5.2D-01, -5.4D-01, -2.5D-01, r^2= 9.9D+00
   Bfn.  Coefficient  Atom+Function         Bfn.  Coefficient  Atom+Function  
  ----- ------------  ---------------      ----- ------------  ---------------
   143      0.241039   9 C  pz              162      0.212759  10 H  s         
   173     -0.205578  11 C  s               177     -0.195361  11 C  pz        
   174      0.191958  11 C  s               178      0.188162  11 C  px        
   205      0.166849  13 H  s               309     -0.155108  19 C  s         
   179     -0.153326  11 C  py              375      0.150630  23 H  s         

 Vector   57  Occ=2.000000D+00  E=-5.027237D-01
              MO Center= -1.3D+00,  1.6D+00, -9.7D-02, r^2= 6.0D+00
   Bfn.  Coefficient  Atom+Function         Bfn.  Coefficient  Atom+Function  
  ----- ------------  ---------------      ----- ------------  ---------------
   444      0.263031  27 H  s               367     -0.257420  22 H  s         
   348      0.247689  21 C  px              424      0.226975  26 C  pz        
   343      0.221963  21 C  s               386      0.214849  24 C  s         
   443      0.212462  27 H  s               505      0.200232  32 H  s         
   332     -0.198426  20 H  s               366     -0.197038  22 H  s         

 Vector   58  Occ=2.000000D+00  E=-4.723674D-01
              MO Center= -1.3D+00,  7.2D-01, -4.3D-01, r^2= 7.2D+00
   Bfn.  Coefficient  Atom+Function         Bfn.  Coefficient  Atom+Function  
  ----- ------------  ---------------      ----- ------------  ---------------
   410      0.295855  25 H  s               409      0.245734  25 H  s         
   343      0.210010  21 C  s               253     -0.199378  16 O  py        
   389     -0.195154  24 C  py              376      0.187644  23 H  s         
   425     -0.179994  26 C  px              367     -0.170585  22 H  s         
   496     -0.167981  31 H  s               256     -0.166243  16 O  py        

 Vector   59  Occ=2.000000D+00  E=-4.627584D-01
              MO Center= -1.9D+00,  1.3D+00, -3.7D-01, r^2= 4.2D+00
   Bfn.  Coefficient  Atom+Function         Bfn.  Coefficient  Atom+Function  
  ----- ------------  ---------------      ----- ------------  ---------------
   388      0.265579  24 C  px              345     -0.228583  21 C  px        
   505      0.227547  32 H  s               346     -0.201862  21 C  py        
   348     -0.195578  21 C  px              462      0.189977  29 H  s         
   389      0.185811  24 C  py              422     -0.182973  26 C  px        
   461      0.172456  29 H  s               504      0.171805  32 H  s         

 Vector   60  Occ=2.000000D+00  E=-4.587013D-01
              MO Center= -1.2D-01, -4.8D-01, -4.5D-02, r^2= 7.8D+00
   Bfn.  Coefficient  Atom+Function         Bfn.  Coefficient  Atom+Function  
  ----- ------------  ---------------      ----- ------------  ---------------
   253      0.300448  16 O  py              410      0.289101  25 H  s         
   256      0.245207  16 O  py               82      0.216885   6 O  px        
   344     -0.195399  21 C  s               367     -0.180246  22 H  s         
    85      0.172292   6 O  px              409      0.169154  25 H  s         
   139      0.166273   9 C  s               343      0.165630  21 C  s         

 Vector   61  Occ=2.000000D+00  E=-4.541534D-01
              MO Center= -2.0D+00,  1.2D+00, -4.1D-01, r^2= 4.4D+00
   Bfn.  Coefficient  Atom+Function         Bfn.  Coefficient  Atom+Function  
  ----- ------------  ---------------      ----- ------------  ---------------
   390      0.265060  24 C  pz              476     -0.263914  30 C  pz        
   420      0.251379  26 C  s               479     -0.243322  30 C  pz        
   425      0.241592  26 C  px              343     -0.212151  21 C  s         
   496      0.197708  31 H  s               422      0.181783  26 C  px        
   444     -0.180532  27 H  s               366     -0.176931  22 H  s         

 Vector   62  Occ=2.000000D+00  E=-4.451026D-01
              MO Center= -6.7D-01, -1.6D+00,  9.3D-01, r^2= 4.6D+00
   Bfn.  Coefficient  Atom+Function         Bfn.  Coefficient  Atom+Function  
  ----- ------------  ---------------      ----- ------------  ---------------
    82      0.435248   6 O  px               85      0.356027   6 O  px        
    83      0.202642   6 O  py              225      0.177966  15 C  s         
    13     -0.168504   2 C  s                86      0.157901   6 O  py        
   276     -0.155396  17 N  s               105     -0.153740   7 N  s         
   107      0.151662   7 N  px               17      0.150532   2 C  px        

 Vector   63  Occ=2.000000D+00  E=-4.330388D-01
              MO Center=  1.1D+00,  1.6D+00,  2.7D-01, r^2= 5.9D+00
   Bfn.  Coefficient  Atom+Function         Bfn.  Coefficient  Atom+Function  
  ----- ------------  ---------------      ----- ------------  ---------------
   551      0.406568  35 O  px              554      0.314712  35 O  px        
   343     -0.225496  21 C  s               279      0.218633  17 N  pz        
   254     -0.209448  16 O  pz              252     -0.189661  16 O  px        
   282      0.185265  17 N  pz              574     -0.168535  36 N  s         
   277      0.166609  17 N  px              257     -0.164642  16 O  pz        

 Vector   64  Occ=2.000000D+00  E=-4.110401D-01
              MO Center=  8.2D-01, -1.4D+00, -4.5D-03, r^2= 5.1D+00
   Bfn.  Coefficient  Atom+Function         Bfn.  Coefficient  Atom+Function  
  ----- ------------  ---------------      ----- ------------  ---------------
   253      0.317429  16 O  py              108     -0.276907   7 N  py        
   111     -0.261952   7 N  py              256      0.251914  16 O  py        
   109      0.206371   7 N  pz              145      0.194160   9 C  py        
    83      0.173305   6 O  py              112      0.172609   7 N  pz        
   142      0.162512   9 C  py              228     -0.162346  15 C  py        

 Vector   65  Occ=2.000000D+00  E=-3.934848D-01
              MO Center=  1.8D+00,  2.7D+00,  6.2D-01, r^2= 2.8D+00
   Bfn.  Coefficient  Atom+Function         Bfn.  Coefficient  Atom+Function  
  ----- ------------  ---------------      ----- ------------  ---------------
   578     -0.367176  36 N  pz              553      0.359483  35 O  pz        
   581     -0.313505  36 N  pz              556      0.278189  35 O  pz        
   577      0.198564  36 N  py              580      0.168520  36 N  py        

 Vector   66  Occ=2.000000D+00  E=-3.841377D-01
              MO Center=  1.1D+00,  1.6D+00,  2.4D-01, r^2= 4.4D+00
   Bfn.  Coefficient  Atom+Function         Bfn.  Coefficient  Atom+Function  
  ----- ------------  ---------------      ----- ------------  ---------------
   551      0.317975  35 O  px              554      0.254126  35 O  px        
   279     -0.241132  17 N  pz              524      0.239798  34 C  s         
   277     -0.219205  17 N  px              282     -0.217725  17 N  pz        
   280     -0.207221  17 N  px              309     -0.172814  19 C  s         
   552      0.167336  35 O  py              254      0.166061  16 O  pz        

 Vector   67  Occ=0.000000D+00  E= 1.983603D-02
              MO Center= -9.6D-01, -4.8D+00, -1.0D+00, r^2= 2.0D+01
   Bfn.  Coefficient  Atom+Function         Bfn.  Coefficient  Atom+Function  
  ----- ------------  ---------------      ----- ------------  ---------------
   411      4.615443  25 H  s               234     -2.772771  15 C  py        
   226      2.365215  15 C  s                46     -2.119181   4 H  s         
    63     -1.908556   5 C  px              147     -1.774674   9 C  px        
   198     -1.692199  12 H  s               106     -1.579729   7 N  s         
   148     -1.566621   9 C  py              233      1.477668  15 C  px        

 Vector   68  Occ=0.000000D+00  E= 3.318909D-02
              MO Center= -8.6D-01, -2.6D+00, -5.7D-01, r^2= 3.9D+01
   Bfn.  Coefficient  Atom+Function         Bfn.  Coefficient  Atom+Function  
  ----- ------------  ---------------      ----- ------------  ---------------
   411      6.063727  25 H  s               387     -3.967659  24 C  s         
   351     -3.837871  21 C  px              317     -3.364892  19 C  px        
   234      2.924193  15 C  py              198      2.571582  12 H  s         
   525      2.518625  34 C  s               396     -2.413676  24 C  pz        
   106      2.373000   7 N  s               473     -2.302760  30 C  s         

 Vector   69  Occ=0.000000D+00  E= 3.904957D-02
              MO Center= -6.2D-01, -2.8D+00, -1.4D+00, r^2= 3.2D+01
   Bfn.  Coefficient  Atom+Function         Bfn.  Coefficient  Atom+Function  
  ----- ------------  ---------------      ----- ------------  ---------------
   147      3.135044   9 C  px               63      2.818063   5 C  px        
    46      2.720070   4 H  s               207     -2.149810  13 H  s         
    56      1.944290   5 C  s               396     -1.608407  24 C  pz        
   149     -1.532261   9 C  pz              506     -1.425872  32 H  s         
   173      1.411512  11 C  s                64      1.403598   5 C  py        

 Vector   70  Occ=0.000000D+00  E= 4.003267D-02
              MO Center=  7.7D-01, -5.9D-01,  5.2D-01, r^2= 4.1D+01
   Bfn.  Coefficient  Atom+Function         Bfn.  Coefficient  Atom+Function  
  ----- ------------  ---------------      ----- ------------  ---------------
   411      3.918664  25 H  s               525      2.388299  34 C  s         
   387     -2.368069  24 C  s               164     -2.321257  10 H  s         
   575     -2.164748  36 N  s               130      1.947736   8 H  s         
   174      1.894113  11 C  s               234      1.900017  15 C  py        
   216     -1.837094  14 H  s               532      1.771281  34 C  px        

 Vector   71  Occ=0.000000D+00  E= 4.911997D-02
              MO Center=  3.8D-01,  5.2D-02, -1.0D-01, r^2= 5.1D+01
   Bfn.  Coefficient  Atom+Function         Bfn.  Coefficient  Atom+Function  
  ----- ------------  ---------------      ----- ------------  ---------------
   198      3.289730  12 H  s               532      2.582915  34 C  px        
   351      2.449418  21 C  px              411     -2.337186  25 H  s         
   394      2.172316  24 C  px              575     -2.144127  36 N  s         
   608     -2.059320  38 H  s               226     -1.793564  15 C  s         
   463      1.663263  29 H  s                37     -1.650660   3 H  s         

 Vector   72  Occ=0.000000D+00  E= 5.278947D-02
              MO Center= -1.2D+00,  5.8D-02, -1.5D+00, r^2= 4.3D+01
   Bfn.  Coefficient  Atom+Function         Bfn.  Coefficient  Atom+Function  
  ----- ------------  ---------------      ----- ------------  ---------------
   411      3.234182  25 H  s                46     -2.802456   4 H  s         
   515     -2.814390  33 H  s                63      2.432437   5 C  px        
   174     -2.183687  11 C  s                37      1.930876   3 H  s         
   234      1.912450  15 C  py                3      1.862044   1 H  s         
    56      1.848547   5 C  s               216      1.856099  14 H  s         

 Vector   73  Occ=0.000000D+00  E= 5.497011D-02
              MO Center= -9.7D-01, -7.5D-01, -3.5D-01, r^2= 4.1D+01
   Bfn.  Coefficient  Atom+Function         Bfn.  Coefficient  Atom+Function  
  ----- ------------  ---------------      ----- ------------  ---------------
   164      3.401840  10 H  s               506      3.284169  32 H  s         
   473      3.121019  30 C  s               396      2.780352  24 C  pz        
   207     -2.714458  13 H  s               317      2.124027  19 C  px        
   575     -2.133843  36 N  s               411      2.097928  25 H  s         
   344     -1.935696  21 C  s                63     -1.915384   5 C  px        

 Vector   74  Occ=0.000000D+00  E= 5.945455D-02
              MO Center= -4.0D-01, -8.6D-01,  2.7D-01, r^2= 4.2D+01
   Bfn.  Coefficient  Atom+Function         Bfn.  Coefficient  Atom+Function  
  ----- ------------  ---------------      ----- ------------  ---------------
   130      3.840865   8 H  s               164      3.638797  10 H  s         
    63     -2.660525   5 C  px              216     -2.579194  14 H  s         
   106      2.465150   7 N  s               515     -2.124298  33 H  s         
    46     -2.103247   4 H  s               396     -2.025137  24 C  pz        
   421     -2.010335  26 C  s               149     -1.970628   9 C  pz        

 Vector   75  Occ=0.000000D+00  E= 6.000402D-02
              MO Center= -6.3D-01, -7.1D-01, -1.6D-01, r^2= 4.1D+01
   Bfn.  Coefficient  Atom+Function         Bfn.  Coefficient  Atom+Function  
  ----- ------------  ---------------      ----- ------------  ---------------
   473     -3.496129  30 C  s               164      3.357618  10 H  s         
     3      3.186042   1 H  s               497      3.047786  31 H  s         
   207      2.492958  13 H  s               310      2.429212  19 C  s         
   463     -2.440204  29 H  s               149     -2.320958   9 C  pz        
   344      2.298708  21 C  s               351     -2.271621  21 C  px        

 Vector   76  Occ=0.000000D+00  E= 6.778266D-02
              MO Center=  5.7D-01, -3.0D-01, -7.7D-02, r^2= 5.0D+01
   Bfn.  Coefficient  Atom+Function         Bfn.  Coefficient  Atom+Function  
  ----- ------------  ---------------      ----- ------------  ---------------
   198      4.071058  12 H  s               226     -4.022629  15 C  s         
   216     -4.001036  14 H  s               411      3.268170  25 H  s         
    13      3.065820   2 C  s               454     -2.957089  28 H  s         
   174      2.877246  11 C  s               344     -2.876178  21 C  s         
   113      2.670823   7 N  px               37     -2.649998   3 H  s         

 Vector   77  Occ=0.000000D+00  E= 7.314911D-02
              MO Center= -1.2D+00, -6.1D-01, -1.0D+00, r^2= 4.4D+01
   Bfn.  Coefficient  Atom+Function         Bfn.  Coefficient  Atom+Function  
  ----- ------------  ---------------      ----- ------------  ---------------
   473      6.573062  30 C  s               394      5.097357  24 C  px        
    37     -4.879107   3 H  s               198     -3.924453  12 H  s         
    46      3.493653   4 H  s               344     -3.481041  21 C  s         
   377     -3.282292  23 H  s               276      3.206828  17 N  s         
   334     -3.108024  20 H  s               396      3.028628  24 C  pz        

 Vector   78  Occ=0.000000D+00  E= 7.634766D-02
              MO Center= -1.9D+00,  2.6D-01, -4.2D-01, r^2= 3.9D+01
   Bfn.  Coefficient  Atom+Function         Bfn.  Coefficient  Atom+Function  
  ----- ------------  ---------------      ----- ------------  ---------------
   506      6.317260  32 H  s               463     -5.343433  29 H  s         
   411     -4.272346  25 H  s               164     -3.851133  10 H  s         
   317      3.688176  19 C  px              334     -3.496292  20 H  s         
   445      3.251354  27 H  s               300      2.734193  18 H  s         
   351     -2.382649  21 C  px              149      2.370085   9 C  pz        

 Vector   79  Occ=0.000000D+00  E= 7.917143D-02
              MO Center= -6.1D-01,  6.2D-01, -5.6D-01, r^2= 4.3D+01
   Bfn.  Coefficient  Atom+Function         Bfn.  Coefficient  Atom+Function  
  ----- ------------  ---------------      ----- ------------  ---------------
   334      3.780712  20 H  s               174      3.759326  11 C  s         
     3     -3.350494   1 H  s               445      3.335082  27 H  s         
   473     -3.300323  30 C  s               319      3.148678  19 C  pz        
   207     -3.106427  13 H  s               421     -3.034135  26 C  s         
   497      2.919790  31 H  s               234     -2.692996  15 C  py        

 Vector   80  Occ=0.000000D+00  E= 8.249983D-02
              MO Center= -4.9D-01, -1.1D+00, -1.3D+00, r^2= 4.0D+01
   Bfn.  Coefficient  Atom+Function         Bfn.  Coefficient  Atom+Function  
  ----- ------------  ---------------      ----- ------------  ---------------
   130      6.141982   8 H  s               515      5.069060  33 H  s         
   207     -4.434863  13 H  s               147      3.900745   9 C  px        
   497     -3.624139  31 H  s               216      3.236056  14 H  s         
   300      2.899005  18 H  s                37     -2.881326   3 H  s         
    46     -2.642317   4 H  s                 3      2.566325   1 H  s         

 Vector   81  Occ=0.000000D+00  E= 8.614565D-02
              MO Center= -1.7D+00,  7.8D-01,  3.7D-01, r^2= 3.9D+01
   Bfn.  Coefficient  Atom+Function         Bfn.  Coefficient  Atom+Function  
  ----- ------------  ---------------      ----- ------------  ---------------
   174      6.730878  11 C  s               351     -5.191351  21 C  px        
   463     -5.123516  29 H  s               515     -5.128662  33 H  s         
   454      4.987434  28 H  s               234      4.666131  15 C  py        
   497      4.686933  31 H  s               368     -4.584136  22 H  s         
   525      4.172866  34 C  s               318      3.775099  19 C  py        

 Vector   82  Occ=0.000000D+00  E= 9.381086D-02
              MO Center= -1.4D+00,  5.7D-01, -7.0D-01, r^2= 3.9D+01
   Bfn.  Coefficient  Atom+Function         Bfn.  Coefficient  Atom+Function  
  ----- ------------  ---------------      ----- ------------  ---------------
   411      7.872517  25 H  s                56     -5.972068   5 C  s         
   377      5.608872  23 H  s               174      4.213715  11 C  s         
   506      4.131235  32 H  s                37     -4.069196   3 H  s         
   147     -3.976097   9 C  px              387     -3.727542  24 C  s         
   515     -3.454877  33 H  s                64     -3.384195   5 C  py        

[...]
   351      7.635297  21 C  px              387      7.237759  24 C  s         
   396      7.141261  24 C  pz              174      6.563775  11 C  s         
   352      5.873410  21 C  py              310     -5.790176  19 C  s         

 Vector  172  Occ=0.000000D+00  E= 4.375694D-01
              MO Center= -7.9D-01, -2.0D-01, -2.3D-01, r^2= 2.1D+01
   Bfn.  Coefficient  Atom+Function         Bfn.  Coefficient  Atom+Function  
  ----- ------------  ---------------      ----- ------------  ---------------
   394     11.725884  24 C  px              113     10.275527   7 N  px        
   344    -10.058641  21 C  s               411     10.003852  25 H  s         
   234      8.170861  15 C  py              420     -7.269541  26 C  s         
   343      6.635379  21 C  s               462      6.581111  29 H  s         
   387     -6.062431  24 C  s               139     -5.995892   9 C  s         

 Vector  173  Occ=0.000000D+00  E= 4.417856D-01
              MO Center= -5.5D-01,  2.8D-02, -4.4D-01, r^2= 2.1D+01
   Bfn.  Coefficient  Atom+Function         Bfn.  Coefficient  Atom+Function  
  ----- ------------  ---------------      ----- ------------  ---------------
   226     16.069853  15 C  s               343    -12.228841  21 C  s         
   276    -10.328178  17 N  s               140      8.415857   9 C  s         
   106     -8.240473   7 N  s               421      8.147920  26 C  s         
   472      7.406546  30 C  s               396     -7.280139  24 C  pz        
    63     -7.209581   5 C  px              147     -7.112861   9 C  px        

 Vector  174  Occ=0.000000D+00  E= 4.427084D-01
              MO Center= -7.0D-01, -3.6D-01, -1.7D-02, r^2= 2.2D+01
   Bfn.  Coefficient  Atom+Function         Bfn.  Coefficient  Atom+Function  
  ----- ------------  ---------------      ----- ------------  ---------------
   387     18.065441  24 C  s               344     17.856760  21 C  s         
   525    -11.953654  34 C  s               421    -10.791731  26 C  s         
   317      9.985727  19 C  px               56     -8.768099   5 C  s         
   575      8.422739  36 N  s                13     -8.205398   2 C  s         
   174     -8.210116  11 C  s               234     -6.775711  15 C  py        

 Vector  175  Occ=0.000000D+00  E= 4.514880D-01
              MO Center= -5.5D-01,  4.3D-02, -1.4D-01, r^2= 2.3D+01
   Bfn.  Coefficient  Atom+Function         Bfn.  Coefficient  Atom+Function  
  ----- ------------  ---------------      ----- ------------  ---------------
   226     14.657235  15 C  s               525     12.975440  34 C  s         
   276    -12.128125  17 N  s                13    -11.124280   2 C  s         
    63     -8.727370   5 C  px              387     -7.823062  24 C  s         
   410     -7.358749  25 H  s               284     -6.952692  17 N  py        
   395     -6.847644  24 C  py              148     -6.377229   9 C  py        

 Vector  176  Occ=0.000000D+00  E= 4.536295D-01
              MO Center=  1.9D-01,  6.7D-02, -7.7D-02, r^2= 2.1D+01
   Bfn.  Coefficient  Atom+Function         Bfn.  Coefficient  Atom+Function  
  ----- ------------  ---------------      ----- ------------  ---------------
   276     18.779789  17 N  s               344    -13.467446  21 C  s         
   473     10.349826  30 C  s               318      9.849471  19 C  py        
   387     -8.880344  24 C  s               174     -8.482865  11 C  s         
   353      7.571628  21 C  pz              226      7.307006  15 C  s         
   368     -7.174737  22 H  s               234     -7.088177  15 C  py        

 Vector  177  Occ=0.000000D+00  E= 4.574046D-01
              MO Center= -7.1D-01, -2.1D-01, -1.1D-01, r^2= 2.0D+01
   Bfn.  Coefficient  Atom+Function         Bfn.  Coefficient  Atom+Function  
  ----- ------------  ---------------      ----- ------------  ---------------
   351     14.578821  21 C  px              525    -11.802462  34 C  s         
   106     10.325908   7 N  s               226     -9.044905  15 C  s         
   310     -7.107180  19 C  s               473      7.130120  30 C  s         
   283      5.985496  17 N  px              285     -5.965612  17 N  pz        
   149      5.798572   9 C  pz              472      5.593844  30 C  s         

 Vector  178  Occ=0.000000D+00  E= 4.576937D-01
              MO Center= -6.6D-01, -2.7D-01,  9.3D-02, r^2= 2.2D+01
   Bfn.  Coefficient  Atom+Function         Bfn.  Coefficient  Atom+Function  
  ----- ------------  ---------------      ----- ------------  ---------------
   276     11.880922  17 N  s               174    -10.196144  11 C  s         
    12      9.191991   2 C  s               226     -9.217702  15 C  s         
    56      8.646800   5 C  s               147      8.682347   9 C  px        
   318      8.256866  19 C  py              106      8.021448   7 N  s         
   525     -7.147575  34 C  s                 2     -6.297878   1 H  s         

 Vector  179  Occ=0.000000D+00  E= 4.674805D-01
              MO Center=  6.0D-01, -1.1D+00, -1.4D-01, r^2= 2.1D+01
   Bfn.  Coefficient  Atom+Function         Bfn.  Coefficient  Atom+Function  
  ----- ------------  ---------------      ----- ------------  ---------------
   344      7.162841  21 C  s               473     -6.066916  30 C  s         
   148     -5.489557   9 C  py              387      5.098669  24 C  s         
    56      4.680652   5 C  s               410     -4.629194  25 H  s         
   197      4.469005  12 H  s                12      4.333171   2 C  s         
   394     -4.322492  24 C  px              235      4.229729  15 C  pz        

 Vector  180  Occ=0.000000D+00  E= 4.709401D-01
              MO Center= -1.1D+00, -4.9D-01, -3.4D-01, r^2= 2.3D+01
   Bfn.  Coefficient  Atom+Function         Bfn.  Coefficient  Atom+Function  
  ----- ------------  ---------------      ----- ------------  ---------------
   174     19.426578  11 C  s                13     12.829054   2 C  s         
   387     10.793308  24 C  s               226    -10.345725  15 C  s         
   148      9.973131   9 C  py              106     -9.901024   7 N  s         
   344      9.157132  21 C  s               300     -8.904754  18 H  s         
   317      8.783541  19 C  px              206     -7.755420  13 H  s         

 Vector  181  Occ=0.000000D+00  E= 4.774960D-01
              MO Center= -3.9D-01,  2.9D-01, -5.0D-01, r^2= 2.0D+01
   Bfn.  Coefficient  Atom+Function         Bfn.  Coefficient  Atom+Function  
  ----- ------------  ---------------      ----- ------------  ---------------
   473     21.777799  30 C  s               276     16.858811  17 N  s         
   174     14.519756  11 C  s               344    -12.588858  21 C  s         
   472     11.687453  30 C  s               226    -10.758262  15 C  s         
   140    -10.345453   9 C  s               525     -9.766953  34 C  s         
   351      8.625580  21 C  px              514     -8.164957  33 H  s         

 Vector  182  Occ=0.000000D+00  E= 4.798396D-01
              MO Center= -8.7D-01, -3.4D-01, -7.3D-01, r^2= 2.4D+01
   Bfn.  Coefficient  Atom+Function         Bfn.  Coefficient  Atom+Function  
  ----- ------------  ---------------      ----- ------------  ---------------
   174     12.049987  11 C  s               420    -11.636596  26 C  s         
   473    -11.633108  30 C  s               411     10.787601  25 H  s         
   453      8.995705  28 H  s               462      8.874826  29 H  s         
   276     -7.388436  17 N  s               233     -6.891629  15 C  px        
   505      6.856968  32 H  s               206     -6.556064  13 H  s         

 Vector  183  Occ=0.000000D+00  E= 4.852738D-01
              MO Center= -4.6D-01,  2.8D-01, -1.9D-01, r^2= 2.0D+01
   Bfn.  Coefficient  Atom+Function         Bfn.  Coefficient  Atom+Function  
  ----- ------------  ---------------      ----- ------------  ---------------
   473     15.539504  30 C  s               317     11.181777  19 C  px        
   387      9.658091  24 C  s               525     -9.558225  34 C  s         
   351      9.373046  21 C  px              310     -9.321760  19 C  s         
   420      8.775547  26 C  s               444     -8.736793  27 H  s         
   396      7.363329  24 C  pz              575      6.714195  36 N  s         

 Vector  184  Occ=0.000000D+00  E= 4.905723D-01
              MO Center=  5.2D-04, -6.2D-01,  4.5D-02, r^2= 2.1D+01
   Bfn.  Coefficient  Atom+Function         Bfn.  Coefficient  Atom+Function  
  ----- ------------  ---------------      ----- ------------  ---------------
   174     19.009796  11 C  s               226    -13.683850  15 C  s         
   276     11.953900  17 N  s               394    -11.957701  24 C  px        
   411    -11.383858  25 H  s               148      9.553749   9 C  py        
    12      8.628698   2 C  s               215     -7.331118  14 H  s         
   525     -6.084116  34 C  s               318      5.821584  19 C  py        

 Vector  185  Occ=0.000000D+00  E= 4.913952D-01
              MO Center= -8.8D-01,  6.8D-01, -4.3D-01, r^2= 2.1D+01
   Bfn.  Coefficient  Atom+Function         Bfn.  Coefficient  Atom+Function  
  ----- ------------  ---------------      ----- ------------  ---------------
   174     19.371567  11 C  s                56    -12.744600   5 C  s         
   147    -10.119134   9 C  px              396      8.997825  24 C  pz        
   473      8.544998  30 C  s               420      7.052716  26 C  s         
    13     -5.884582   2 C  s               309      5.796398  19 C  s         
   351      5.722662  21 C  px              515      4.972394  33 H  s         

 Vector  186  Occ=0.000000D+00  E= 4.938543D-01
              MO Center= -3.3D-01, -3.4D-01, -3.4D-01, r^2= 2.2D+01
   Bfn.  Coefficient  Atom+Function         Bfn.  Coefficient  Atom+Function  
  ----- ------------  ---------------      ----- ------------  ---------------
   387     15.003067  24 C  s               344     12.745984  21 C  s         
   234    -11.881505  15 C  py              351     11.534536  21 C  px        
   525    -11.457455  34 C  s               318    -10.318015  19 C  py        
   317      9.793278  19 C  px               56     -9.054533   5 C  s         
    12     -7.908156   2 C  s               395      7.589817  24 C  py        

 Vector  187  Occ=0.000000D+00  E= 4.967567D-01
              MO Center= -6.1D-01, -6.9D-01, -3.6D-01, r^2= 1.9D+01
   Bfn.  Coefficient  Atom+Function         Bfn.  Coefficient  Atom+Function  
  ----- ------------  ---------------      ----- ------------  ---------------
   174     20.883459  11 C  s               234     14.562990  15 C  py        
   226    -13.161733  15 C  s               148     10.168666   9 C  py        
   106      9.380126   7 N  s               473      9.389479  30 C  s         
   140     -8.900911   9 C  s                56     -8.163923   5 C  s         
   387     -7.681916  24 C  s                12     -7.044755   2 C  s         

 Vector  188  Occ=0.000000D+00  E= 5.001969D-01
              MO Center= -1.6D-01,  4.0D-01, -2.0D-01, r^2= 2.1D+01
   Bfn.  Coefficient  Atom+Function         Bfn.  Coefficient  Atom+Function  
  ----- ------------  ---------------      ----- ------------  ---------------
   174     21.560102  11 C  s               473      9.979651  30 C  s         
   575     -9.273326  36 N  s               532      9.197832  34 C  px        
   317     -8.540314  19 C  px               56     -7.389682   5 C  s         
   234      7.269400  15 C  py              106      6.474248   7 N  s         
   173      6.448802  11 C  s               197     -6.300953  12 H  s         


 center of mass
 --------------
 x =   0.10442597 y =   0.04208419 z =   0.04891002

 moments of inertia (a.u.)
 ------------------
        4755.109974759665          -0.000000000000           0.000000000000
          -0.000000000000        3710.139300476547           0.000000000000
           0.000000000000           0.000000000000        7166.542852508857

  Mulliken analysis of the total density
  --------------------------------------

    Atom       Charge   Shell Charges
 -----------   ------   -------------------------------------------------------
    1 H    1     0.92   0.76  0.19  0.01  0.03 -0.07
    2 C    6     6.37   2.01  0.66  0.33  0.18  2.07  0.97 -0.03  0.06  0.12
    3 H    1     0.82   0.76  0.09  0.00  0.03 -0.06
    4 H    1     0.83   0.76  0.10  0.02  0.03 -0.08
    5 C    6     5.18   2.01  0.68  0.06  0.08  1.89  0.34 -0.12  0.24 -0.00
    6 O    8     8.79   2.01  0.82  1.00  0.17  2.80  1.87  0.13  0.02 -0.01
    7 N    7     7.52   2.01  0.72  0.81 -0.14  2.45  1.45  0.12  0.05  0.04
    8 H    1     0.97   0.77  0.22 -0.03  0.05 -0.04
    9 C    6     6.65   2.01  0.66  0.07 -0.02  1.99  1.73 -0.14  0.14  0.22
   10 H    1     1.00   0.78  0.17  0.01  0.03  0.01
   11 C    6     5.78   2.01  0.66  0.23  0.33  2.04  0.48 -0.05  0.07  0.01
   12 H    1     0.93   0.77  0.20  0.01  0.03 -0.09
   13 H    1     0.89   0.77  0.15  0.02  0.03 -0.08
   14 H    1     0.96   0.77  0.23  0.01  0.03 -0.08
   15 C    6     4.41   2.01  0.68 -0.07 -0.03  1.88  0.15 -0.03  0.23 -0.43
   16 O    8     8.85   2.01  0.82  1.03  0.17  2.79  1.87  0.15  0.01 -0.00
   17 N    7     7.48   2.01  0.72  0.89 -0.19  2.45  1.46  0.05  0.05  0.05
   18 H    1     0.93   0.73  0.31 -0.03  0.06 -0.15
   19 C    6     6.50   2.01  0.66  0.13  0.10  1.99  1.26  0.24  0.14 -0.03
   20 H    1     1.03   0.79  0.23 -0.01  0.03  0.00
   21 C    6     6.49   2.01  0.67  0.89  0.15  2.03  0.45  0.00  0.09  0.20
   22 H    1     0.84   0.79  0.15 -0.01  0.03 -0.12
   23 H    1     0.85   0.78  0.15 -0.00  0.03 -0.11
   24 C    6     6.94   2.01  0.66 -0.06  0.31  2.02  1.46  0.03  0.12  0.40
   25 H    1     1.07   0.80  0.28  0.05  0.03 -0.09
   26 C    6     5.26   2.01  0.66  0.19 -0.05  2.04  0.49 -0.08  0.07 -0.07
   27 H    1     1.02   0.78  0.30  0.01  0.03 -0.10
   28 H    1     0.96   0.78  0.22  0.01  0.03 -0.08
   29 H    1     1.01   0.78  0.28 -0.00  0.03 -0.08
   30 C    6     5.53   2.01  0.67  0.33  0.05  2.04  0.48 -0.11  0.07 -0.02
   31 H    1     0.98   0.78  0.26 -0.00  0.03 -0.08
   32 H    1     0.97   0.78  0.25  0.01  0.03 -0.10
   33 H    1     0.89   0.78  0.17  0.02  0.03 -0.10
   34 C    6     4.42   2.01  0.68  0.06  0.01  1.89 -0.15 -0.06  0.24 -0.25
   35 O    8     8.77   2.01  0.82  1.03  0.16  2.79  1.82  0.14  0.01 -0.01
   36 N    7     7.24   2.01  0.72  0.82 -0.13  2.47  1.25  0.09  0.04 -0.02
   37 H    1     0.92   0.73  0.20 -0.01  0.06 -0.06
   38 H    1     1.01   0.76  0.23 -0.00  0.05 -0.03

       Multipole analysis of the density wrt the origin
       ------------------------------------------------

     L   x y z        total         open         nuclear
     -   - - -        -----         ----         -------
     0   0 0 0     -0.000000      0.000000    132.000000

     1   1 0 0     -0.397158      0.000000     -0.000000
     1   0 1 0     -2.837388      0.000000      0.000000
     1   0 0 1     -0.880722      0.000000      0.000000

     2   2 0 0    -73.300482      0.000000   1771.344312
     2   1 1 0     -0.231205      0.000000    -42.257568
     2   1 0 1      5.033419      0.000000     14.424626
     2   0 2 0    -77.855947      0.000000   2275.700768
     2   0 1 1     -1.468104      0.000000     -1.899959
     2   0 0 2    -85.028777      0.000000    377.361352


 Task  times  cpu:     6611.1s     wall:     6997.6s


                                NWChem Input Module
                                -------------------


 Summary of allocated global arrays
-----------------------------------
  No active global arrays


MA_summarize_allocated_blocks: starting scan ...
MA_summarize_allocated_blocks: scan completed: 0 heap blocks, 0 stack blocks
MA usage statistics:

	allocation statistics:
					      heap	     stack
					      ----	     -----
	current number of blocks	         0	         0
	maximum number of blocks	        16	        14
	current total bytes		         0	         0
	maximum total bytes		    131256	  28332184
	maximum total K-bytes		       132	     28333
	maximum total M-bytes		         1	        29


                                     CITATION
                                     --------
                Please cite the following reference when publishing
                           results obtained with NWChem:

          E. Apra, E. J. Bylaska, W. A. de Jong, N. Govind, K. Kowalski,
       T. P. Straatsma, M. Valiev, H. J. J. van Dam, Y. Alexeev, J. Anchell,
       V. Anisimov, F. W. Aquino, R. Atta-Fynn, J. Autschbach, N. P. Bauman,
     J. C. Becca, D. E. Bernholdt, K. Bhaskaran-Nair, S. Bogatko, P. Borowski,
         J. Boschen, J. Brabec, A. Bruner, E. Cauet, Y. Chen, G. N. Chuev,
      C. J. Cramer, J. Daily, M. J. O. Deegan, T. H. Dunning Jr., M. Dupuis,
   K. G. Dyall, G. I. Fann, S. A. Fischer, A. Fonari, H. Fruchtl, L. Gagliardi,
      J. Garza, N. Gawande, S. Ghosh, K. Glaesemann, A. W. Gotz, J. Hammond,
       V. Helms, E. D. Hermes, K. Hirao, S. Hirata, M. Jacquelin, L. Jensen,
   B. G. Johnson, H. Jonsson, R. A. Kendall, M. Klemm, R. Kobayashi, V. Konkov,
      S. Krishnamoorthy, M. Krishnan, Z. Lin, R. D. Lins, R. J. Littlefield,
      A. J. Logsdail, K. Lopata, W. Ma, A. V. Marenich, J. Martin del Campo,
   D. Mejia-Rodriguez, J. E. Moore, J. M. Mullin, T. Nakajima, D. R. Nascimento,
    J. A. Nichols, P. J. Nichols, J. Nieplocha, A. Otero-de-la-Roza, B. Palmer,
    A. Panyala, T. Pirojsirikul, B. Peng, R. Peverati, J. Pittner, L. Pollack,
   R. M. Richard, P. Sadayappan, G. C. Schatz, W. A. Shelton, D. W. Silverstein,
   D. M. A. Smith, T. A. Soares, D. Song, M. Swart, H. L. Taylor, G. S. Thomas,
            V. Tipparaju, D. G. Truhlar, K. Tsemekhman, T. Van Voorhis,
      A. Vazquez-Mayagoitia, P. Verma, O. Villa, A. Vishnu, K. D. Vogiatzis,
        D. Wang, J. H. Weare, M. J. Williamson, T. L. Windus, K. Wolinski,
        A. T. Wong, Q. Wu, C. Yang, Q. Yu, M. Zacharias, Z. Zhang, Y. Zhao,
                                and R. J. Harrison
                        "NWChem: Past, present, and future
                         J. Chem. Phys. 152, 184102 (2020)
                               doi:10.1063/5.0004997

                                      AUTHORS
                                      -------
  E. Apra, E. J. Bylaska, N. Govind, K. Kowalski, M. Valiev, D. Mejia-Rodriguez,
       A. Kunitsa, N. P. Bauman, A. Panyala, W. A. de Jong, T. P. Straatsma,
   H. J. J. van Dam, D. Wang, T. L. Windus, J. Hammond, J. Autschbach, A. Woods,
    K. Bhaskaran-Nair, J. Brabec, K. Lopata, S. A. Fischer, S. Krishnamoorthy,
     M. Jacquelin, W. Ma, M. Klemm, O. Villa, Y. Chen, V. Anisimov, F. Aquino,
     S. Hirata, M. T. Hackler, E. Hermes, L. Jensen, J. E. Moore, J. C. Becca,
      V. Konjkov, T. Risthaus, M. Malagoli, A. Marenich, A. Otero-de-la-Roza,
        J. Mullin, P. Nichols, R. Peverati, J. Pittner, Y. Zhao, P.-D. Fan,
        A. Fonari, M. J. Williamson, R. J. Harrison, J. R. Rehr, M. Dupuis,
     D. Silverstein, D. M. A. Smith, J. Nieplocha, V. Tipparaju, M. Krishnan,
     B. E. Van Kuiken, A. Vazquez-Mayagoitia, M. Swart, Q. Wu, T. Van Voorhis,
     A. A. Auer, M. Nooijen, L. D. Crosby, E. Brown, G. Cisneros, G. I. Fann,
   H. Fruchtl, J. Garza, K. Hirao, R. A. Kendall, J. A. Nichols, K. Tsemekhman,
    K. Wolinski, J. Anchell, D. E. Bernholdt, P. Borowski, T. Clark, D. Clerc,
   H. Dachsel, M. J. O. Deegan, K. Dyall, D. Elwood, E. Glendening, M. Gutowski,
   A. C. Hess, J. Jaffe, B. G. Johnson, J. Ju, R. Kobayashi, R. Kutteh, Z. Lin,
   R. Littlefield, X. Long, B. Meng, T. Nakajima, S. Niu, L. Pollack, M. Rosing,
   K. Glaesemann, G. Sandrone, M. Stave, H. Taylor, G. Thomas, J. H. van Lenthe,
                               A. T. Wong, Z. Zhang.

 Total times  cpu:     6611.2s     wall:     6998.2s
