export TMOUT=5400
export TMPDIR=/tmp
export PTMPDIR=/tmp/ptmp
 argument  1 = ALA_ASN_0.nw
                                         
                                         


             Northwest Computational Chemistry Package (NWChem) 7.2.0
             --------------------------------------------------------


                    Environmental Molecular Sciences Laboratory
                       Pacific Northwest National Laboratory
                                Richland, WA 99352

                              Copyright (c) 1994-2022
                       Pacific Northwest National Laboratory
                            Battelle Memorial Institute

             NWChem is an open-source computational chemistry package
                        distributed under the terms of the
                      Educational Community License (ECL) 2.0
             A copy of the license is included with this distribution
                              in the LICENSE.TXT file

                                  ACKNOWLEDGMENT
                                  --------------

            This software and its documentation were developed at the
            EMSL at Pacific Northwest National Laboratory, a multiprogram
            national laboratory, operated for the U.S. Department of Energy
            by Battelle under Contract Number DE-AC05-76RL01830. Support
            for this work was provided by the Department of Energy Office
            of Biological and Environmental Research, Office of Basic
            Energy Sciences, and the Office of Advanced Scientific Computing.


           Job information
           ---------------

    hostname        = nova18-45
    program         = /opt/rit/el9/20230413/app/linux-rhel9-x86_64_v3/gcc-11.2.1/nwchem-7.2.0-oxtctbuhfuzyfaoziquq6bki22grib3g/bin/nwchem
    date            = Wed Jun 25 13:23:39 2025

    compiled        = Wed_May_17_23:46:39_2023
    source          = /tmp/root/spack-stage/spack-stage-nwchem-7.2.0-oxtctbuhfuzyfaoziquq6bki22grib3g/spack-src
    nwchem branch   = 7.2.0
    nwchem revision = d0d141fd
    ga revision     = 5.8.0
    use scalapack   = T
    input           = ALA_ASN_0.nw
    prefix          = ALA_ASN_0.
    data base       = ./ALA_ASN_0.db
    status          = startup
    nproc           =        8
    time left       =     -1s



           Memory information
           ------------------

    heap     =   26214398 doubles =    200.0 Mbytes
    stack    =   26214395 doubles =    200.0 Mbytes
    global   =   52428800 doubles =    400.0 Mbytes (distinct from heap & stack)
    total    =  104857593 doubles =    800.0 Mbytes
    verify   = yes
    hardfail = no 


           Directory information
           ---------------------

  0 permanent = .
  0 scratch   = .




                                NWChem Input Module
                                -------------------



 Scaling coordinates for geometry "geometry" by  1.889725989
 (inverse scale =  0.529177249)

 C1  symmetry detected

          ------
          auto-z
          ------
  no constraints, skipping    0.0000000000000000     
  no constraints, skipping    0.0000000000000000     


                             Geometry "geometry" -> ""
                             -------------------------

 Output coordinates in angstroms (scale by  1.889725989 to convert to a.u.)

  No.       Tag          Charge          X              Y              Z
 ---- ---------------- ---------- -------------- -------------- --------------
    1 H                    1.0000    -3.25624093     2.88346766    -0.66737104
    2 C                    6.0000    -2.90004512     1.85856296    -0.74974759
    3 H                    1.0000    -3.32028963     1.39586414    -1.64137439
    4 H                    1.0000    -3.19774400     1.28564059     0.12838756
    5 C                    6.0000    -1.39482977     1.85103324    -0.85807149
    6 O                    8.0000    -0.84462443     1.30137281    -1.80356633
    7 N                    7.0000    -0.71724688     2.43624153     0.12963023
    8 H                    1.0000    -1.23885488     2.86172367     0.87799582
    9 C                    6.0000     0.75010472     2.51264339     0.17834399
   10 H                    1.0000     1.10118901     2.98653347    -0.73979871
   11 C                    6.0000     1.13945829     3.40635343     1.36286167
   12 H                    1.0000     0.80753796     2.95539701     2.29899852
   13 H                    1.0000     2.22412620     3.51981079     1.38961914
   14 H                    1.0000     0.68692036     4.39192243     1.25053101
   15 C                    6.0000     1.44808409     1.13415563     0.26324572
   16 O                    8.0000     2.64362433     1.02653263     0.00815784
   17 N                    7.0000     0.70261837     0.07713121     0.59627163
   18 H                    1.0000    -0.27718981     0.24161508     0.78704373
   19 C                    6.0000     1.13678316    -1.32040303     0.55983046
   20 H                    1.0000     2.16027712    -1.37959747     0.93430493
   21 C                    6.0000     0.21474757    -2.11139476     1.50331414
   22 H                    1.0000     0.54898863    -3.14709532     1.56211279
   23 H                    1.0000     0.26032716    -1.68471042     2.50564391
   24 C                    6.0000    -1.22508554    -2.06839501     1.02636799
   25 O                    8.0000    -1.94849127    -1.11622577     1.27020174
   26 N                    7.0000    -1.65928492    -3.05394658     0.27869694
   27 H                    1.0000    -2.60104843    -2.98642405    -0.05994771
   28 H                    1.0000    -1.01809959    -3.77209286    -0.01950650
   29 C                    6.0000     1.14151712    -1.94417142    -0.85815353
   30 O                    8.0000     1.32737723    -3.14849806    -0.99504172
   31 N                    7.0000     0.86587463    -1.19202152    -1.91633912
   32 H                    1.0000     0.86065524    -1.62390274    -2.82515393
   33 H                    1.0000     0.62822311    -0.21574395    -1.80526319

      Atomic Mass 
      ----------- 

      H                  1.007825
      C                 12.000000
      O                 15.994910
      N                 14.003070


 Effective nuclear repulsion energy (a.u.)    1349.4263109314

            Nuclear Dipole moment (a.u.) 
            ----------------------------
        X                 Y               Z
 ---------------- ---------------- ----------------
    -0.0000000000     0.0000000000    -0.0000000000



                                Z-matrix (autoz)
                                -------- 

 Units are Angstrom for bonds and degrees for angles

      Type          Name      I     J     K     L     M      Value
      ----------- --------  ----- ----- ----- ----- ----- ----------
    1 Stretch                  1     2                       1.08816
    2 Stretch                  2     3                       1.08890
    3 Stretch                  2     4                       1.08995
    4 Stretch                  2     5                       1.50913
    5 Stretch                  5     6                       1.22426
    6 Stretch                  5     7                       1.33309
    7 Stretch                  7     8                       1.00656
    8 Stretch                  7     9                       1.47015
    9 Stretch                  9    10                       1.09125
   10 Stretch                  9    11                       1.53408
   11 Stretch                  9    15                       1.54745
   12 Stretch                 11    12                       1.09082
   13 Stretch                 11    13                       1.09091
   14 Stretch                 11    14                       1.09030
   15 Stretch                 15    16                       1.22718
   16 Stretch                 15    17                       1.33564
   17 Stretch                 17    18                       1.01167
   18 Stretch                 17    19                       1.46387
   19 Stretch                 19    20                       1.09146
   20 Stretch                 19    21                       1.53817
   21 Stretch                 19    29                       1.54912
   22 Stretch                 21    22                       1.08989
   23 Stretch                 21    23                       1.09032
   24 Stretch                 21    24                       1.51738
   25 Stretch                 24    25                       1.22041
   26 Stretch                 24    26                       1.31105
   27 Stretch                 26    27                       1.00307
   28 Stretch                 26    28                       1.00786
   29 Stretch                 29    30                       1.22625
   30 Stretch                 29    31                       1.32720
   31 Stretch                 31    32                       1.00623
   32 Stretch                 31    33                       1.01091
   33 Bend                     1     2     3               109.62608
   34 Bend                     1     2     4               110.16282
   35 Bend                     1     2     5               109.67125
   36 Bend                     2     5     6               120.39303
   37 Bend                     2     5     7               116.84565
   38 Bend                     3     2     4               109.32581
   39 Bend                     3     2     5               108.90746
   40 Bend                     4     2     5               109.12504
   41 Bend                     5     7     8               118.23092
   42 Bend                     5     7     9               123.68837
   43 Bend                     6     5     7               122.74261
   44 Bend                     7     9    10               108.40944
   45 Bend                     7     9    11               108.00988
   46 Bend                     7     9    15               113.93603
   47 Bend                     8     7     9               118.07457
   48 Bend                     9    11    12               110.15585
   49 Bend                     9    11    13               109.38275
   50 Bend                     9    11    14               109.98152
   51 Bend                     9    15    16               120.40708
   52 Bend                     9    15    17               117.83465
   53 Bend                    10     9    11               108.36125
   54 Bend                    10     9    15               106.73195
   55 Bend                    11     9    15               111.23040
   56 Bend                    12    11    13               108.93465
   57 Bend                    12    11    14               109.62249
   58 Bend                    13    11    14               108.73531
   59 Bend                    15    17    18               117.31645
   60 Bend                    15    17    19               125.71784
   61 Bend                    16    15    17               121.74694
   62 Bend                    17    19    20               108.74484
   63 Bend                    17    19    21               107.33049
   64 Bend                    17    19    29               114.08574
   65 Bend                    18    17    19               116.56152
   66 Bend                    19    21    22               109.75106
   67 Bend                    19    21    23               109.72932
   68 Bend                    19    21    24               111.18798
   69 Bend                    19    29    30               119.87470
   70 Bend                    19    29    31               120.06493
   71 Bend                    20    19    21               108.89123
   72 Bend                    20    19    29               106.81893
   73 Bend                    21    19    29               110.86835
   74 Bend                    21    24    25               121.45121
   75 Bend                    21    24    26               118.17778
   76 Bend                    22    21    23               108.02708
   77 Bend                    22    21    24               109.56579
   78 Bend                    23    21    24               108.51378
   79 Bend                    24    26    27               116.92799
   80 Bend                    24    26    28               119.58277
   81 Bend                    25    24    26               120.27363
   82 Bend                    27    26    28               123.05033
   83 Bend                    29    31    32               118.55198
   84 Bend                    29    31    33               120.56553
   85 Bend                    30    29    31               119.93792
   86 Bend                    32    31    33               120.83225
   87 Torsion                  1     2     5     6        -124.33662
   88 Torsion                  1     2     5     7          57.19413
   89 Torsion                  2     5     7     8          -1.07825
   90 Torsion                  2     5     7     9         179.84162
   91 Torsion                  3     2     5     6          -4.37049
   92 Torsion                  3     2     5     7         177.16026
   93 Torsion                  4     2     5     6         114.90613
   94 Torsion                  4     2     5     7         -63.56312
   95 Torsion                  5     7     9    10          55.74476
   96 Torsion                  5     7     9    11         172.95854
   97 Torsion                  5     7     9    15         -62.92215
   98 Torsion                  6     5     7     8        -179.50843
   99 Torsion                  6     5     7     9           1.41145
  100 Torsion                  7     9    11    12          63.14503
  101 Torsion                  7     9    11    13        -177.14816
  102 Torsion                  7     9    11    14         -57.79264
  103 Torsion                  7     9    15    16         163.43697
  104 Torsion                  7     9    15    17         -15.36005
  105 Torsion                  8     7     9    10        -123.33671
  106 Torsion                  8     7     9    11          -6.12293
  107 Torsion                  8     7     9    15         117.99638
  108 Torsion                  9    15    17    18          -0.82174
  109 Torsion                  9    15    17    19         171.60121
  110 Torsion                 10     9    11    12        -179.61007
  111 Torsion                 10     9    11    13         -59.90325
  112 Torsion                 10     9    11    14          59.45226
  113 Torsion                 10     9    15    16          43.81735
  114 Torsion                 10     9    15    17        -134.97967
  115 Torsion                 11     9    15    16         -74.19555
  116 Torsion                 11     9    15    17         107.00743
  117 Torsion                 12    11     9    15         -62.58607
  118 Torsion                 13    11     9    15          57.12075
  119 Torsion                 14    11     9    15         176.47627
  120 Torsion                 15    17    19    20          40.74162
  121 Torsion                 15    17    19    21         158.39119
  122 Torsion                 15    17    19    29         -78.36223
  123 Torsion                 16    15    17    18        -179.60168
  124 Torsion                 16    15    17    19          -7.17873
  125 Torsion                 17    19    21    22        -175.92048
  126 Torsion                 17    19    21    23         -57.36010
  127 Torsion                 17    19    21    24          62.69343
  128 Torsion                 17    19    29    30        -171.08957
  129 Torsion                 17    19    29    31           4.88563
  130 Torsion                 18    17    19    20        -146.78458
  131 Torsion                 18    17    19    21         -29.13500
  132 Torsion                 18    17    19    29          94.11158
  133 Torsion                 19    21    24    25         -81.91082
  134 Torsion                 19    21    24    26          94.50954
  135 Torsion                 19    29    31    32        -179.01792
  136 Torsion                 19    29    31    33          -1.57447
  137 Torsion                 20    19    21    22         -58.36631
  138 Torsion                 20    19    21    23          60.19406
  139 Torsion                 20    19    21    24        -179.75241
  140 Torsion                 20    19    29    30          68.72127
  141 Torsion                 20    19    29    31        -115.30353
  142 Torsion                 21    19    29    30         -49.78303
  143 Torsion                 21    19    29    31         126.19218
  144 Torsion                 21    24    26    27        -177.34601
  145 Torsion                 21    24    26    28          -4.71555
  146 Torsion                 22    21    19    29          58.87570
  147 Torsion                 22    21    24    25         156.59483
  148 Torsion                 22    21    24    26         -26.98481
  149 Torsion                 23    21    19    29         177.43608
  150 Torsion                 23    21    24    25          38.86068
  151 Torsion                 23    21    24    26        -144.71896
  152 Torsion                 24    21    19    29         -62.51039
  153 Torsion                 25    24    26    27          -0.88190
  154 Torsion                 25    24    26    28         171.74856
  155 Torsion                 30    29    31    32          -3.04527
  156 Torsion                 30    29    31    33         174.39818


            XYZ format geometry
            -------------------
    33
 geometry
 H                    -3.25624093     2.88346766    -0.66737104
 C                    -2.90004512     1.85856296    -0.74974759
 H                    -3.32028963     1.39586414    -1.64137439
 H                    -3.19774400     1.28564059     0.12838756
 C                    -1.39482977     1.85103324    -0.85807149
 O                    -0.84462443     1.30137281    -1.80356633
 N                    -0.71724688     2.43624153     0.12963023
 H                    -1.23885488     2.86172367     0.87799582
 C                     0.75010472     2.51264339     0.17834399
 H                     1.10118901     2.98653347    -0.73979871
 C                     1.13945829     3.40635343     1.36286167
 H                     0.80753796     2.95539701     2.29899852
 H                     2.22412620     3.51981079     1.38961914
 H                     0.68692036     4.39192243     1.25053101
 C                     1.44808409     1.13415563     0.26324572
 O                     2.64362433     1.02653263     0.00815784
 N                     0.70261837     0.07713121     0.59627163
 H                    -0.27718981     0.24161508     0.78704373
 C                     1.13678316    -1.32040303     0.55983046
 H                     2.16027712    -1.37959747     0.93430493
 C                     0.21474757    -2.11139476     1.50331414
 H                     0.54898863    -3.14709532     1.56211279
 H                     0.26032716    -1.68471042     2.50564391
 C                    -1.22508554    -2.06839501     1.02636799
 O                    -1.94849127    -1.11622577     1.27020174
 N                    -1.65928492    -3.05394658     0.27869694
 H                    -2.60104843    -2.98642405    -0.05994771
 H                    -1.01809959    -3.77209286    -0.01950650
 C                     1.14151712    -1.94417142    -0.85815353
 O                     1.32737723    -3.14849806    -0.99504172
 N                     0.86587463    -1.19202152    -1.91633912
 H                     0.86065524    -1.62390274    -2.82515393
 H                     0.62822311    -0.21574395    -1.80526319

 ==============================================================================
                                internuclear distances
 ------------------------------------------------------------------------------
       center one      |      center two      | atomic units |  angstroms
 ------------------------------------------------------------------------------
    2 C                |   1 H                |     2.05632  |     1.08816
    3 H                |   2 C                |     2.05771  |     1.08890
    4 H                |   2 C                |     2.05970  |     1.08995
    5 C                |   2 C                |     2.85184  |     1.50913
    6 O                |   5 C                |     2.31352  |     1.22426
    7 N                |   5 C                |     2.51918  |     1.33309
    8 H                |   7 N                |     1.90212  |     1.00656
    9 C                |   7 N                |     2.77817  |     1.47015
   10 H                |   9 C                |     2.06216  |     1.09125
   11 C                |   9 C                |     2.89899  |     1.53408
   12 H                |  11 C                |     2.06135  |     1.09082
   13 H                |  11 C                |     2.06153  |     1.09091
   14 H                |  11 C                |     2.06037  |     1.09030
   15 C                |   9 C                |     2.92426  |     1.54745
   16 O                |  15 C                |     2.31903  |     1.22718
   17 N                |  15 C                |     2.52399  |     1.33564
   18 H                |  17 N                |     1.91178  |     1.01167
   19 C                |  17 N                |     2.76632  |     1.46387
   20 H                |  19 C                |     2.06255  |     1.09146
   21 C                |  19 C                |     2.90673  |     1.53817
   22 H                |  21 C                |     2.05958  |     1.08989
   23 H                |  21 C                |     2.06041  |     1.09032
   24 C                |  21 C                |     2.86743  |     1.51738
   25 O                |  24 C                |     2.30624  |     1.22041
   26 N                |  24 C                |     2.47753  |     1.31105
   27 H                |  26 N                |     1.89554  |     1.00307
   28 H                |  26 N                |     1.90458  |     1.00786
   29 C                |  19 C                |     2.92742  |     1.54912
   30 O                |  29 C                |     2.31727  |     1.22625
   31 N                |  29 C                |     2.50805  |     1.32720
   32 H                |  31 N                |     1.90149  |     1.00623
   33 H                |  31 N                |     1.91034  |     1.01091
 ------------------------------------------------------------------------------
                         number of included internuclear distances:         32
 ==============================================================================



 ==============================================================================
                                 internuclear angles
 ------------------------------------------------------------------------------
        center 1       |       center 2       |       center 3       |  degrees
 ------------------------------------------------------------------------------
    1 H                |   2 C                |   3 H                |   109.63
    1 H                |   2 C                |   4 H                |   110.16
    1 H                |   2 C                |   5 C                |   109.67
    3 H                |   2 C                |   4 H                |   109.33
    3 H                |   2 C                |   5 C                |   108.91
    4 H                |   2 C                |   5 C                |   109.13
    2 C                |   5 C                |   6 O                |   120.39
    2 C                |   5 C                |   7 N                |   116.85
    6 O                |   5 C                |   7 N                |   122.74
    5 C                |   7 N                |   8 H                |   118.23
    5 C                |   7 N                |   9 C                |   123.69
    8 H                |   7 N                |   9 C                |   118.07
    7 N                |   9 C                |  10 H                |   108.41
    7 N                |   9 C                |  11 C                |   108.01
    7 N                |   9 C                |  15 C                |   113.94
   10 H                |   9 C                |  11 C                |   108.36
   10 H                |   9 C                |  15 C                |   106.73
   11 C                |   9 C                |  15 C                |   111.23
    9 C                |  11 C                |  12 H                |   110.16
    9 C                |  11 C                |  13 H                |   109.38
    9 C                |  11 C                |  14 H                |   109.98
   12 H                |  11 C                |  13 H                |   108.93
   12 H                |  11 C                |  14 H                |   109.62
   13 H                |  11 C                |  14 H                |   108.74
    9 C                |  15 C                |  16 O                |   120.41
    9 C                |  15 C                |  17 N                |   117.83
   16 O                |  15 C                |  17 N                |   121.75
   15 C                |  17 N                |  18 H                |   117.32
   15 C                |  17 N                |  19 C                |   125.72
   18 H                |  17 N                |  19 C                |   116.56
   17 N                |  19 C                |  20 H                |   108.74
   17 N                |  19 C                |  21 C                |   107.33
   17 N                |  19 C                |  29 C                |   114.09
   20 H                |  19 C                |  21 C                |   108.89
   20 H                |  19 C                |  29 C                |   106.82
   21 C                |  19 C                |  29 C                |   110.87
   19 C                |  21 C                |  22 H                |   109.75
   19 C                |  21 C                |  23 H                |   109.73
   19 C                |  21 C                |  24 C                |   111.19
   22 H                |  21 C                |  23 H                |   108.03
   22 H                |  21 C                |  24 C                |   109.57
   23 H                |  21 C                |  24 C                |   108.51
   21 C                |  24 C                |  25 O                |   121.45
   21 C                |  24 C                |  26 N                |   118.18
   25 O                |  24 C                |  26 N                |   120.27
   24 C                |  26 N                |  27 H                |   116.93
   24 C                |  26 N                |  28 H                |   119.58
   27 H                |  26 N                |  28 H                |   123.05
   19 C                |  29 C                |  30 O                |   119.87
   19 C                |  29 C                |  31 N                |   120.06
   30 O                |  29 C                |  31 N                |   119.94
   29 C                |  31 N                |  32 H                |   118.55
   29 C                |  31 N                |  33 H                |   120.57
   32 H                |  31 N                |  33 H                |   120.83
 ------------------------------------------------------------------------------
                            number of included internuclear angles:         54
 ==============================================================================



  library name resolved from: environment
  library file name is: </opt/rit/el9/20230413/app/linux-rhel9-x86_64_v3/gcc-11.2.1/nwchem-7.2.0-oxtctbuhfuzyfaoziquq6bki22grib3g/share/nwchem/libraries/>
  


 Summary of "ao basis" -> "" (cartesian)
 ------------------------------------------------------------------------------
       Tag                 Description            Shells   Functions and Types
 ---------------- ------------------------------  ------  ---------------------
 *                        aug-cc-pvdz                 on all atoms 


                      Basis "ao basis" -> "ao basis" (cartesian)
                      -----
  H (Hydrogen)
  ------------
            Exponent  Coefficients 
       -------------- ---------------------------------------------------------
  1 S  1.30100000E+01  0.019685
  1 S  1.96200000E+00  0.137977
  1 S  4.44600000E-01  0.478148

  2 S  1.22000000E-01  1.000000

  3 S  2.97400000E-02  1.000000

  4 P  7.27000000E-01  1.000000

  5 P  1.41000000E-01  1.000000

  C (Carbon)
  ----------
            Exponent  Coefficients 
       -------------- ---------------------------------------------------------
  1 S  6.66500000E+03  0.000692
  1 S  1.00000000E+03  0.005329
  1 S  2.28000000E+02  0.027077
  1 S  6.47100000E+01  0.101718
  1 S  2.10600000E+01  0.274740
  1 S  7.49500000E+00  0.448564
  1 S  2.79700000E+00  0.285074
  1 S  5.21500000E-01  0.015204

  2 S  6.66500000E+03 -0.000146
  2 S  1.00000000E+03 -0.001154
  2 S  2.28000000E+02 -0.005725
  2 S  6.47100000E+01 -0.023312
  2 S  2.10600000E+01 -0.063955
  2 S  7.49500000E+00 -0.149981
  2 S  2.79700000E+00 -0.127262
  2 S  5.21500000E-01  0.544529

  3 S  1.59600000E-01  1.000000

  4 S  4.69000000E-02  1.000000

  5 P  9.43900000E+00  0.038109
  5 P  2.00200000E+00  0.209480
  5 P  5.45600000E-01  0.508557

  6 P  1.51700000E-01  1.000000

  7 P  4.04100000E-02  1.000000

  8 D  5.50000000E-01  1.000000

  9 D  1.51000000E-01  1.000000

  O (Oxygen)
  ----------
            Exponent  Coefficients 
       -------------- ---------------------------------------------------------
  1 S  1.17200000E+04  0.000710
  1 S  1.75900000E+03  0.005470
  1 S  4.00800000E+02  0.027837
  1 S  1.13700000E+02  0.104800
  1 S  3.70300000E+01  0.283062
  1 S  1.32700000E+01  0.448719
  1 S  5.02500000E+00  0.270952
  1 S  1.01300000E+00  0.015458

  2 S  1.17200000E+04 -0.000160
  2 S  1.75900000E+03 -0.001263
  2 S  4.00800000E+02 -0.006267
  2 S  1.13700000E+02 -0.025716
  2 S  3.70300000E+01 -0.070924
  2 S  1.32700000E+01 -0.165411
  2 S  5.02500000E+00 -0.116955
  2 S  1.01300000E+00  0.557368

  3 S  3.02300000E-01  1.000000

  4 S  7.89600000E-02  1.000000

  5 P  1.77000000E+01  0.043018
  5 P  3.85400000E+00  0.228913
  5 P  1.04600000E+00  0.508728

  6 P  2.75300000E-01  1.000000

  7 P  6.85600000E-02  1.000000

  8 D  1.18500000E+00  1.000000

  9 D  3.32000000E-01  1.000000

  N (Nitrogen)
  ------------
            Exponent  Coefficients 
       -------------- ---------------------------------------------------------
  1 S  9.04600000E+03  0.000700
  1 S  1.35700000E+03  0.005389
  1 S  3.09300000E+02  0.027406
  1 S  8.77300000E+01  0.103207
  1 S  2.85600000E+01  0.278723
  1 S  1.02100000E+01  0.448540
  1 S  3.83800000E+00  0.278238
  1 S  7.46600000E-01  0.015440

  2 S  9.04600000E+03 -0.000153
  2 S  1.35700000E+03 -0.001208
  2 S  3.09300000E+02 -0.005992
  2 S  8.77300000E+01 -0.024544
  2 S  2.85600000E+01 -0.067459
  2 S  1.02100000E+01 -0.158078
  2 S  3.83800000E+00 -0.121831
  2 S  7.46600000E-01  0.549003

  3 S  2.24800000E-01  1.000000

  4 S  6.12400000E-02  1.000000

  5 P  1.35500000E+01  0.039919
  5 P  2.91700000E+00  0.217169
  5 P  7.97300000E-01  0.510319

  6 P  2.18500000E-01  1.000000

  7 P  5.61100000E-02  1.000000

  8 D  8.17000000E-01  1.000000

  9 D  2.30000000E-01  1.000000



 Summary of "ao basis" -> "ao basis" (cartesian)
 ------------------------------------------------------------------------------
       Tag                 Description            Shells   Functions and Types
 ---------------- ------------------------------  ------  ---------------------
 H                        aug-cc-pvdz                5        9   3s2p
 C                        aug-cc-pvdz                9       25   4s3p2d
 O                        aug-cc-pvdz                9       25   4s3p2d
 N                        aug-cc-pvdz                9       25   4s3p2d


                                 NWChem SCF Module
                                 -----------------



  ao basis        = "ao basis"
  functions       =   569
  atoms           =    33
  closed shells   =    65
  open shells     =     0
  charge          =   0.00
  wavefunction    = RHF 
  input vectors   = atomic
  output vectors  = ./ALA_ASN_0.movecs
  use symmetry    = F
  symmetry adapt  = F


 Summary of "ao basis" -> "ao basis" (cartesian)
 ------------------------------------------------------------------------------
       Tag                 Description            Shells   Functions and Types
 ---------------- ------------------------------  ------  ---------------------
 H                        aug-cc-pvdz                5        9   3s2p
 C                        aug-cc-pvdz                9       25   4s3p2d
 O                        aug-cc-pvdz                9       25   4s3p2d
 N                        aug-cc-pvdz                9       25   4s3p2d



 Forming initial guess at       0.9s


 !! The overlap matrix has   3 vectors deemed linearly dependent with
    eigenvalues:
 3.82D-06 4.62D-06 7.74D-06


      Superposition of Atomic Density Guess
      -------------------------------------

 Sum of atomic energies:        -863.27065637

      Non-variational initial energy
      ------------------------------

 Total energy =    -874.099942
 1-e energy   =   -3856.744697
 2-e energy   =    1633.218444
 HOMO         =      -0.311451
 LUMO         =       0.011150


 Starting SCF solution at     235.6s



 ----------------------------------------------
         Quadratically convergent ROHF

 Convergence threshold     :          1.000E-04
 Maximum no. of iterations :           30
 Final Fock-matrix accuracy:          1.000E-10
 ----------------------------------------------


              iter       energy          gnorm     gmax       time
             ----- ------------------- --------- --------- --------
                 1     -867.1702620021  2.66D+00  1.91D-01    480.5
                 2     -867.5372820504  8.52D-01  3.94D-02    924.0
                 3     -867.6010959226  7.07D-02  4.61D-03   1597.3
                 4     -867.6018376639  4.59D-03  4.02D-04   2472.3
                 5     -867.6018416142  9.41D-06  6.54D-07   4040.4


       Final RHF  results 
       ------------------ 

         Total SCF energy =   -867.601841614247
      One-electron energy =  -3868.622148735928
      Two-electron energy =   1651.593996190248
 Nuclear repulsion energy =   1349.426310931433

        Time for solution =   3808.7s


             Final eigenvalues
             -----------------

              1      
    1  -20.5421
    2  -20.5363
    3  -20.5299
    4  -20.5204
    5  -15.6165
    6  -15.6024
    7  -15.5991
    8  -15.5807
    9  -11.3704
   10  -11.3662
   11  -11.3629
   12  -11.3563
   13  -11.3105
   14  -11.3090
   15  -11.2649
   16  -11.2548
   17  -11.2485
   18   -1.4076
   19   -1.4055
   20   -1.3899
   21   -1.3820
   22   -1.2679
   23   -1.2485
   24   -1.2375
   25   -1.2050
   26   -1.0834
   27   -1.0610
   28   -1.0025
   29   -0.9457
   30   -0.8966
   31   -0.8303
   32   -0.8214
   33   -0.8046
   34   -0.7899
   35   -0.7515
   36   -0.7399
   37   -0.7224
   38   -0.7062
   39   -0.6869
   40   -0.6784
   41   -0.6670
   42   -0.6456
   43   -0.6265
   44   -0.6171
   45   -0.6088
   46   -0.6061
   47   -0.5932
   48   -0.5888
   49   -0.5832
   50   -0.5792
   51   -0.5644
   52   -0.5519
   53   -0.5484
   54   -0.5447
   55   -0.5338
   56   -0.5245
   57   -0.5099
   58   -0.4502
   59   -0.4452
   60   -0.4377
   61   -0.4343
   62   -0.4248
   63   -0.4060
   64   -0.4020
   65   -0.3884
   66    0.0246
   67    0.0348
   68    0.0369
   69    0.0448
   70    0.0502
   71    0.0529
   72    0.0570
   73    0.0641
   74    0.0668
   75    0.0717

                       ROHF Final Molecular Orbital Analysis
                       -------------------------------------

 Vector   18  Occ=2.000000D+00  E=-1.407593D+00
              MO Center= -1.1D+00, -7.3D-02, -3.6D-03, r^2= 5.5D+00
   Bfn.  Coefficient  Atom+Function         Bfn.  Coefficient  Atom+Function  
  ----- ------------  ---------------      ----- ------------  ---------------
   411      0.261291  25 O  s               410      0.243325  25 O  s         
    80      0.225141   6 O  s                79      0.223542   6 O  s         
   385      0.174229  24 C  s                54      0.159733   5 C  s         

 Vector   19  Occ=2.000000D+00  E=-1.405518D+00
              MO Center= -1.3D+00,  3.0D-02, -1.1D-01, r^2= 5.1D+00
   Bfn.  Coefficient  Atom+Function         Bfn.  Coefficient  Atom+Function  
  ----- ------------  ---------------      ----- ------------  ---------------
   411     -0.260028  25 O  s                80      0.248149   6 O  s         
    79      0.245697   6 O  s               410     -0.244376  25 O  s         
    54      0.173494   5 C  s               385     -0.174060  24 C  s         

 Vector   20  Occ=2.000000D+00  E=-1.389927D+00
              MO Center=  1.6D+00,  3.3D-01, -1.5D-01, r^2= 4.1D+00
   Bfn.  Coefficient  Atom+Function         Bfn.  Coefficient  Atom+Function  
  ----- ------------  ---------------      ----- ------------  ---------------
   250      0.315936  16 O  s               249      0.296332  16 O  s         
   224      0.211633  15 C  s               504      0.150170  30 O  s         

 Vector   21  Occ=2.000000D+00  E=-1.381985D+00
              MO Center=  1.4D+00, -1.9D+00, -8.1D-01, r^2= 3.2D+00
   Bfn.  Coefficient  Atom+Function         Bfn.  Coefficient  Atom+Function  
  ----- ------------  ---------------      ----- ------------  ---------------
   504      0.354471  30 O  s               503      0.322756  30 O  s         
   478      0.220235  29 C  s               250     -0.173192  16 O  s         
   249     -0.157266  16 O  s         

 Vector   22  Occ=2.000000D+00  E=-1.267895D+00
              MO Center= -2.4D-01,  1.8D+00, -7.4D-02, r^2= 3.0D+00
   Bfn.  Coefficient  Atom+Function         Bfn.  Coefficient  Atom+Function  
  ----- ------------  ---------------      ----- ------------  ---------------
   105      0.361790   7 N  s               104      0.304200   7 N  s         
    80     -0.204370   6 O  s                79     -0.170829   6 O  s         
   139     -0.169654   9 C  s               250     -0.161441  16 O  s         
    59      0.152257   5 C  pz              225      0.152621  15 C  s         

 Vector   23  Occ=2.000000D+00  E=-1.248519D+00
              MO Center=  6.4D-01,  3.1D-01,  2.3D-01, r^2= 3.6D+00
   Bfn.  Coefficient  Atom+Function         Bfn.  Coefficient  Atom+Function  
  ----- ------------  ---------------      ----- ------------  ---------------
   275      0.341428  17 N  s               274      0.295042  17 N  s         
   309     -0.213752  19 C  s               105     -0.183249   7 N  s         
   250     -0.171053  16 O  s               104     -0.162503   7 N  s         

 Vector   24  Occ=2.000000D+00  E=-1.237464D+00
              MO Center= -1.6D+00, -2.7D+00,  5.1D-01, r^2= 1.3D+00
   Bfn.  Coefficient  Atom+Function         Bfn.  Coefficient  Atom+Function  
  ----- ------------  ---------------      ----- ------------  ---------------
   435      0.366592  26 N  s               436      0.346097  26 N  s         
   411     -0.224922  25 O  s               389     -0.196460  24 C  py        
   410     -0.189651  25 O  s               468      0.164357  28 H  s         
   343     -0.161954  21 C  s               459      0.154670  27 H  s         
   387      0.151416  24 C  s         

 Vector   25  Occ=2.000000D+00  E=-1.205018D+00
              MO Center=  9.2D-01, -1.3D+00, -1.5D+00, r^2= 1.9D+00
   Bfn.  Coefficient  Atom+Function         Bfn.  Coefficient  Atom+Function  
  ----- ------------  ---------------      ----- ------------  ---------------
   529      0.391875  31 N  s               528      0.365434  31 N  s         
   309     -0.214502  19 C  s               504     -0.196103  30 O  s         
   482      0.170520  29 C  py              503     -0.162437  30 O  s         
   561      0.158589  33 H  s               552      0.157596  32 H  s         
   275     -0.153306  17 N  s         

 Vector   26  Occ=2.000000D+00  E=-1.083446D+00
              MO Center=  3.4D-01,  4.7D-01,  5.5D-01, r^2= 7.0D+00
   Bfn.  Coefficient  Atom+Function         Bfn.  Coefficient  Atom+Function  
  ----- ------------  ---------------      ----- ------------  ---------------
   343      0.242001  21 C  s               342      0.186583  21 C  s         
   138     -0.174674   9 C  s               308      0.171461  19 C  s         

 Vector   27  Occ=2.000000D+00  E=-1.060979D+00
              MO Center=  1.9D-01,  5.9D-01,  6.6D-01, r^2= 8.1D+00
   Bfn.  Coefficient  Atom+Function         Bfn.  Coefficient  Atom+Function  
  ----- ------------  ---------------      ----- ------------  ---------------
   343      0.259918  21 C  s               342      0.205409  21 C  s         
   172      0.174775  11 C  s               138      0.169499   9 C  s         
    12     -0.166819   2 C  s               309      0.152253  19 C  s         

 Vector   28  Occ=2.000000D+00  E=-1.002480D+00
              MO Center= -1.8D+00,  2.2D+00, -3.4D-01, r^2= 4.6D+00
   Bfn.  Coefficient  Atom+Function         Bfn.  Coefficient  Atom+Function  
  ----- ------------  ---------------      ----- ------------  ---------------
    11      0.321592   2 C  s                55      0.175358   5 C  s         
    57     -0.176189   5 C  px              172      0.163536  11 C  s         
     1      0.150251   1 H  s         

 Vector   29  Occ=2.000000D+00  E=-9.456501D-01
              MO Center=  4.3D-01, -9.7D-01,  6.7D-01, r^2= 5.9D+00
   Bfn.  Coefficient  Atom+Function         Bfn.  Coefficient  Atom+Function  
  ----- ------------  ---------------      ----- ------------  ---------------
   343      0.337363  21 C  s               348     -0.224543  21 C  px        
   308     -0.204075  19 C  s               342      0.195799  21 C  s         
   316      0.178220  19 C  pz              139      0.177102   9 C  s         
   145     -0.174424   9 C  py        

 Vector   30  Occ=2.000000D+00  E=-8.966238D-01
              MO Center=  6.9D-01,  1.9D+00,  5.3D-01, r^2= 6.5D+00
   Bfn.  Coefficient  Atom+Function         Bfn.  Coefficient  Atom+Function  
  ----- ------------  ---------------      ----- ------------  ---------------
   139      0.278250   9 C  s               172     -0.222606  11 C  s         
   145     -0.220683   9 C  py              138      0.197460   9 C  s         
   173     -0.192600  11 C  s               309      0.188394  19 C  s         

 Vector   31  Occ=2.000000D+00  E=-8.302824D-01
              MO Center= -2.2D-01,  2.5D-01, -1.2D-01, r^2= 8.1D+00
   Bfn.  Coefficient  Atom+Function         Bfn.  Coefficient  Atom+Function  
  ----- ------------  ---------------      ----- ------------  ---------------
   309      0.267917  19 C  s               486     -0.198566  29 C  pz        
   316     -0.188935  19 C  pz              109     -0.178211   7 N  pz        
    56     -0.173577   5 C  s               139      0.154575   9 C  s         

 Vector   32  Occ=2.000000D+00  E=-8.214331D-01
              MO Center= -8.3D-01, -2.0D-01,  1.4D-01, r^2= 8.8D+00
   Bfn.  Coefficient  Atom+Function         Bfn.  Coefficient  Atom+Function  
  ----- ------------  ---------------      ----- ------------  ---------------
   109      0.210829   7 N  pz              128      0.185815   8 H  s         
   385      0.166612  24 C  s               439      0.166658  26 N  py        
   105      0.162945   7 N  s               309      0.156240  19 C  s         

 Vector   33  Occ=2.000000D+00  E=-8.046113D-01
              MO Center=  3.5D-01,  1.5D-01,  4.9D-01, r^2= 5.5D+00
   Bfn.  Coefficient  Atom+Function         Bfn.  Coefficient  Atom+Function  
  ----- ------------  ---------------      ----- ------------  ---------------
   225      0.259054  15 C  s               277      0.234216  17 N  px        
   275     -0.203774  17 N  s               298     -0.202727  18 H  s         
   278      0.181777  17 N  py              231     -0.165935  15 C  py        
   224      0.163950  15 C  s               250     -0.159960  16 O  s         
   299     -0.150977  18 H  s         

 Vector   34  Occ=2.000000D+00  E=-7.899022D-01
              MO Center=  2.5D-01, -1.5D+00, -4.5D-01, r^2= 5.4D+00
   Bfn.  Coefficient  Atom+Function         Bfn.  Coefficient  Atom+Function  
  ----- ------------  ---------------      ----- ------------  ---------------
   533     -0.220587  31 N  pz              486      0.205135  29 C  pz        
   478     -0.178777  29 C  s               439      0.175872  26 N  py        
   316      0.159907  19 C  pz              480      0.158605  29 C  s         
   468     -0.156028  28 H  s               277      0.151925  17 N  px        
   504      0.152654  30 O  s               552      0.150875  32 H  s         

 Vector   35  Occ=2.000000D+00  E=-7.514552D-01
              MO Center= -4.1D-01, -2.1D+00, -2.8D-01, r^2= 5.3D+00
   Bfn.  Coefficient  Atom+Function         Bfn.  Coefficient  Atom+Function  
  ----- ------------  ---------------      ----- ------------  ---------------
   438      0.262750  26 N  px              532      0.234755  31 N  py        
   468      0.229877  28 H  s               459     -0.204791  27 H  s         
   561      0.204407  33 H  s               479     -0.190027  29 C  s         
   483      0.173543  29 C  pz              439     -0.151039  26 N  py        

 Vector   36  Occ=2.000000D+00  E=-7.399381D-01
              MO Center=  6.6D-02, -3.9D-01, -1.0D-01, r^2= 7.4D+00
   Bfn.  Coefficient  Atom+Function         Bfn.  Coefficient  Atom+Function  
  ----- ------------  ---------------      ----- ------------  ---------------
   225      0.299396  15 C  s               315      0.208569  19 C  py        
   277      0.195685  17 N  px              144     -0.180088   9 C  px        
   145      0.179669   9 C  py              438      0.179808  26 N  px        
    56      0.175010   5 C  s               532     -0.170180  31 N  py        
   468      0.165351  28 H  s               228     -0.150971  15 C  py        

 Vector   37  Occ=2.000000D+00  E=-7.223839D-01
              MO Center=  2.4D-02,  1.6D-01, -3.2D-01, r^2= 8.6D+00
   Bfn.  Coefficient  Atom+Function         Bfn.  Coefficient  Atom+Function  
  ----- ------------  ---------------      ----- ------------  ---------------
   225     -0.238991  15 C  s               144      0.236091   9 C  px        
   145     -0.225202   9 C  py              343     -0.191794  21 C  s         
   552      0.180052  32 H  s               228      0.163768  15 C  py        
   532     -0.163504  31 N  py              438      0.162296  26 N  px        
   533     -0.153649  31 N  pz        

 Vector   38  Occ=2.000000D+00  E=-7.061902D-01
              MO Center=  1.9D-01,  3.0D-01,  6.6D-02, r^2= 8.0D+00
   Bfn.  Coefficient  Atom+Function         Bfn.  Coefficient  Atom+Function  
  ----- ------------  ---------------      ----- ------------  ---------------
   139      0.194661   9 C  s               144      0.181630   9 C  px        
   107     -0.171248   7 N  px              315      0.161464  19 C  py        
   141      0.158725   9 C  px        

 Vector   39  Occ=2.000000D+00  E=-6.868680D-01
              MO Center= -1.0D+00,  1.4D+00, -1.0D+00, r^2= 4.9D+00
   Bfn.  Coefficient  Atom+Function         Bfn.  Coefficient  Atom+Function  
  ----- ------------  ---------------      ----- ------------  ---------------
    82      0.271973   6 O  px               80      0.248199   6 O  s         
    17     -0.220554   2 C  px               13      0.191685   2 C  s         
    59      0.192502   5 C  pz               14     -0.182345   2 C  px        
    85      0.174625   6 O  px               84     -0.164355   6 O  pz        
    54     -0.155262   5 C  s         

 Vector   40  Occ=2.000000D+00  E=-6.783558D-01
              MO Center= -6.9D-01, -9.9D-01,  6.8D-01, r^2= 7.0D+00
   Bfn.  Coefficient  Atom+Function         Bfn.  Coefficient  Atom+Function  
  ----- ------------  ---------------      ----- ------------  ---------------
   413      0.256208  25 O  px              389      0.225011  24 C  py        
   411     -0.190825  25 O  s               416      0.159663  25 O  px        
   366     -0.158845  22 H  s         

 Vector   41  Occ=2.000000D+00  E=-6.670162D-01
              MO Center=  5.8D-01,  1.0D-01, -2.7D-01, r^2= 9.0D+00
   Bfn.  Coefficient  Atom+Function         Bfn.  Coefficient  Atom+Function  
  ----- ------------  ---------------      ----- ------------  ---------------
   533      0.186732  31 N  pz              343     -0.166789  21 C  s         
   507     -0.161154  30 O  py              552     -0.158548  32 H  s         
   504      0.155055  30 O  s                56     -0.154265   5 C  s         
   162     -0.154457  10 H  s         

 Vector   42  Occ=2.000000D+00  E=-6.455649D-01
              MO Center=  6.6D-01, -4.7D-01,  3.3D-01, r^2= 7.1D+00
   Bfn.  Coefficient  Atom+Function         Bfn.  Coefficient  Atom+Function  
  ----- ------------  ---------------      ----- ------------  ---------------
   252      0.253948  16 O  px              311      0.218402  19 C  px        
   250      0.175829  16 O  s               332      0.176183  20 H  s         
   227     -0.156055  15 C  px        

 Vector   43  Occ=2.000000D+00  E=-6.265080D-01
              MO Center= -1.5D+00,  1.5D+00, -4.9D-01, r^2= 5.7D+00
   Bfn.  Coefficient  Atom+Function         Bfn.  Coefficient  Atom+Function  
  ----- ------------  ---------------      ----- ------------  ---------------
   139     -0.267285   9 C  s                15      0.244593   2 C  py        
     1      0.207797   1 H  s                44     -0.197347   4 H  s         
    83      0.188502   6 O  py              106     -0.180517   7 N  s         
    58      0.175233   5 C  py        

 Vector   44  Occ=2.000000D+00  E=-6.170519D-01
              MO Center=  1.6D-01, -1.0D+00,  1.5D-01, r^2= 7.7D+00
   Bfn.  Coefficient  Atom+Function         Bfn.  Coefficient  Atom+Function  
  ----- ------------  ---------------      ----- ------------  ---------------
   252      0.189121  16 O  px              507     -0.177021  30 O  py        
   415     -0.164417  25 O  pz        

 Vector   45  Occ=2.000000D+00  E=-6.087709D-01
              MO Center=  3.0D-01,  6.3D-01,  4.4D-01, r^2= 9.3D+00
   Bfn.  Coefficient  Atom+Function         Bfn.  Coefficient  Atom+Function  
  ----- ------------  ---------------      ----- ------------  ---------------
   176      0.209814  11 C  py              214      0.171817  14 H  s         
   252     -0.169384  16 O  px              299      0.163471  18 H  s         

 Vector   46  Occ=2.000000D+00  E=-6.060585D-01
              MO Center=  8.0D-01, -1.2D+00, -2.6D-01, r^2= 7.1D+00
   Bfn.  Coefficient  Atom+Function         Bfn.  Coefficient  Atom+Function  
  ----- ------------  ---------------      ----- ------------  ---------------
   507      0.281073  30 O  py              309     -0.209599  19 C  s         
   482     -0.210466  29 C  py              504     -0.170048  30 O  s         
   279      0.152956  17 N  pz              532      0.152455  31 N  py        
   561      0.151001  33 H  s         

 Vector   47  Occ=2.000000D+00  E=-5.932432D-01
              MO Center= -3.7D-01,  1.6D+00, -1.3D-01, r^2= 7.2D+00
   Bfn.  Coefficient  Atom+Function         Bfn.  Coefficient  Atom+Function  
  ----- ------------  ---------------      ----- ------------  ---------------
    84      0.246252   6 O  pz               57      0.224185   5 C  px        
    14     -0.177144   2 C  px               17     -0.168287   2 C  px        

 Vector   48  Occ=2.000000D+00  E=-5.888274D-01
              MO Center= -1.6D-01, -1.1D+00,  4.9D-01, r^2= 7.7D+00
   Bfn.  Coefficient  Atom+Function         Bfn.  Coefficient  Atom+Function  
  ----- ------------  ---------------      ----- ------------  ---------------
   414      0.286822  25 O  py              388      0.235141  24 C  px        
   417      0.163909  25 O  py              506      0.159282  30 O  px        

 Vector   49  Occ=2.000000D+00  E=-5.831537D-01
              MO Center=  1.2D-01,  7.7D-01,  3.0D-01, r^2= 1.0D+01
   Bfn.  Coefficient  Atom+Function         Bfn.  Coefficient  Atom+Function  
  ----- ------------  ---------------      ----- ------------  ---------------
   343      0.192626  21 C  s                16      0.191348   2 C  pz        
   227      0.176714  15 C  px               35     -0.170557   3 H  s         
   175     -0.167505  11 C  px              205     -0.160416  13 H  s         
   254      0.152387  16 O  pz        

 Vector   50  Occ=2.000000D+00  E=-5.791611D-01
              MO Center= -8.2D-01,  1.4D+00, -2.6D-01, r^2= 9.3D+00
   Bfn.  Coefficient  Atom+Function         Bfn.  Coefficient  Atom+Function  
  ----- ------------  ---------------      ----- ------------  ---------------
    36      0.263904   3 H  s                35      0.231403   3 H  s         
    16     -0.218224   2 C  pz               84     -0.174966   6 O  pz        
    15     -0.163773   2 C  py              106      0.164264   7 N  s         
   175      0.163386  11 C  px                1     -0.158787   1 H  s         

 Vector   51  Occ=2.000000D+00  E=-5.643836D-01
              MO Center=  1.7D-01, -4.4D-01,  5.5D-01, r^2= 1.0D+01
   Bfn.  Coefficient  Atom+Function         Bfn.  Coefficient  Atom+Function  
  ----- ------------  ---------------      ----- ------------  ---------------
   415      0.204201  25 O  pz              214      0.192602  14 H  s         
   215      0.192549  14 H  s               176      0.191169  11 C  py        
   333      0.180300  20 H  s               343     -0.172014  21 C  s         
   284      0.165376  17 N  py              481     -0.165036  29 C  px        
   506     -0.157843  30 O  px              366     -0.152238  22 H  s         

 Vector   52  Occ=2.000000D+00  E=-5.519213D-01
              MO Center= -4.4D-01,  2.3D+00,  2.9D-01, r^2= 7.6D+00
   Bfn.  Coefficient  Atom+Function         Bfn.  Coefficient  Atom+Function  
  ----- ------------  ---------------      ----- ------------  ---------------
   206      0.268231  13 H  s                15      0.227175   2 C  py        
   175      0.218931  11 C  px              205      0.212499  13 H  s         
    12      0.203811   2 C  s               196     -0.194686  12 H  s         
     1      0.185358   1 H  s                36     -0.157837   3 H  s         
   197     -0.156997  12 H  s               107      0.155478   7 N  px        

 Vector   53  Occ=2.000000D+00  E=-5.483656D-01
              MO Center=  1.7D-01, -1.3D+00,  6.2D-01, r^2= 7.5D+00
   Bfn.  Coefficient  Atom+Function         Bfn.  Coefficient  Atom+Function  
  ----- ------------  ---------------      ----- ------------  ---------------
   375      0.270463  23 H  s               387     -0.235698  24 C  s         
   367     -0.220113  22 H  s               346      0.211461  21 C  py        
   347      0.211938  21 C  pz              376      0.206410  23 H  s         
   343      0.201240  21 C  s               309     -0.179765  19 C  s         
   366     -0.169736  22 H  s               507     -0.161216  30 O  py        

 Vector   54  Occ=2.000000D+00  E=-5.447084D-01
              MO Center= -1.7D-01,  1.7D+00,  3.6D-01, r^2= 9.1D+00
   Bfn.  Coefficient  Atom+Function         Bfn.  Coefficient  Atom+Function  
  ----- ------------  ---------------      ----- ------------  ---------------
   177      0.201181  11 C  pz              215     -0.199594  14 H  s         
   343     -0.194020  21 C  s                16      0.190977   2 C  pz        
   143     -0.184655   9 C  pz              175      0.181061  11 C  px        
    35     -0.165782   3 H  s               205      0.165108  13 H  s         
   174      0.157777  11 C  s         

 Vector   55  Occ=2.000000D+00  E=-5.338375D-01
              MO Center=  4.7D-01,  6.2D-01, -3.5D-02, r^2= 9.0D+00
   Bfn.  Coefficient  Atom+Function         Bfn.  Coefficient  Atom+Function  
  ----- ------------  ---------------      ----- ------------  ---------------
   176      0.172205  11 C  py              506      0.157934  30 O  px        
   253      0.155278  16 O  py        

 Vector   56  Occ=2.000000D+00  E=-5.245395D-01
              MO Center=  5.2D-01, -1.1D+00,  4.2D-01, r^2= 6.7D+00
   Bfn.  Coefficient  Atom+Function         Bfn.  Coefficient  Atom+Function  
  ----- ------------  ---------------      ----- ------------  ---------------
   343      0.229003  21 C  s               311      0.211959  19 C  px        
   347      0.186571  21 C  pz              346     -0.161125  21 C  py        
   348     -0.156337  21 C  px              312      0.153299  19 C  py        

 Vector   57  Occ=2.000000D+00  E=-5.099335D-01
              MO Center=  4.4D-01,  1.5D+00, -8.1D-02, r^2= 6.8D+00
   Bfn.  Coefficient  Atom+Function         Bfn.  Coefficient  Atom+Function  
  ----- ------------  ---------------      ----- ------------  ---------------
   143      0.255763   9 C  pz              309      0.242701  19 C  s         
   343     -0.210676  21 C  s               162     -0.209380  10 H  s         
   177     -0.198451  11 C  pz               83      0.191152   6 O  py        
   254     -0.178781  16 O  pz              174     -0.158366  11 C  s         
    86      0.151594   6 O  py              180     -0.151562  11 C  pz        

 Vector   58  Occ=2.000000D+00  E=-4.502303D-01
              MO Center=  7.1D-01,  7.2D-01, -3.6D-01, r^2= 6.8D+00
   Bfn.  Coefficient  Atom+Function         Bfn.  Coefficient  Atom+Function  
  ----- ------------  ---------------      ----- ------------  ---------------
   253      0.324273  16 O  py              256      0.256870  16 O  py        
   108      0.241874   7 N  py              139     -0.227876   9 C  s         
   508     -0.226749  30 O  pz               83     -0.214995   6 O  py        
   111      0.214101   7 N  py              511     -0.178376  30 O  pz        
   387      0.176656  24 C  s                86     -0.167493   6 O  py        

 Vector   59  Occ=2.000000D+00  E=-4.451757D-01
              MO Center=  7.4D-01,  1.5D-02, -5.1D-01, r^2= 7.8D+00
   Bfn.  Coefficient  Atom+Function         Bfn.  Coefficient  Atom+Function  
  ----- ------------  ---------------      ----- ------------  ---------------
   508      0.294283  30 O  pz              254     -0.260026  16 O  pz        
    82     -0.236116   6 O  px              511      0.231179  30 O  pz        
    13      0.202167   2 C  s               257     -0.200597  16 O  pz        
   253      0.196671  16 O  py               85     -0.184581   6 O  px        
   480     -0.175540  29 C  s                83     -0.156998   6 O  py        

 Vector   60  Occ=2.000000D+00  E=-4.376801D-01
              MO Center= -9.2D-01,  4.1D-01, -6.2D-01, r^2= 6.6D+00
   Bfn.  Coefficient  Atom+Function         Bfn.  Coefficient  Atom+Function  
  ----- ------------  ---------------      ----- ------------  ---------------
    82      0.397594   6 O  px               85      0.318313   6 O  px        
    13     -0.257997   2 C  s               413      0.215399  25 O  px        
    17      0.195067   2 C  px              276     -0.193687  17 N  s         
    14      0.172422   2 C  px              416      0.171248  25 O  px        
    84      0.159003   6 O  pz              140      0.157651   9 C  s         

 Vector   61  Occ=2.000000D+00  E=-4.342674D-01
              MO Center= -9.4D-01, -1.0D+00,  5.8D-01, r^2= 5.9D+00
   Bfn.  Coefficient  Atom+Function         Bfn.  Coefficient  Atom+Function  
  ----- ------------  ---------------      ----- ------------  ---------------
   413      0.365978  25 O  px              416      0.285908  25 O  px        
   333     -0.204511  20 H  s               414      0.203004  25 O  py        
    82     -0.189076   6 O  px              345      0.187326  21 C  px        
   440      0.180285  26 N  pz              386     -0.178913  24 C  s         
   417      0.173322  25 O  py              391     -0.168341  24 C  px        

 Vector   62  Occ=2.000000D+00  E=-4.247716D-01
              MO Center= -1.5D+00, -2.1D+00,  6.2D-01, r^2= 3.2D+00
   Bfn.  Coefficient  Atom+Function         Bfn.  Coefficient  Atom+Function  
  ----- ------------  ---------------      ----- ------------  ---------------
   415      0.384255  25 O  pz              440     -0.310774  26 N  pz        
   418      0.308816  25 O  pz              439      0.249790  26 N  py        
   443     -0.250297  26 N  pz              442      0.247161  26 N  py        
   437     -0.179712  26 N  s               386     -0.164847  24 C  s         
   479      0.158015  29 C  s         

 Vector   63  Occ=2.000000D+00  E=-4.060044D-01
              MO Center=  7.3D-01,  1.1D+00, -2.2D-01, r^2= 6.1D+00
   Bfn.  Coefficient  Atom+Function         Bfn.  Coefficient  Atom+Function  
  ----- ------------  ---------------      ----- ------------  ---------------
   253      0.342033  16 O  py              256      0.273433  16 O  py        
   108     -0.270039   7 N  py              111     -0.249913   7 N  py        
   106     -0.209493   7 N  s               145      0.198061   9 C  py        
    83      0.179878   6 O  py              163      0.180167  10 H  s         
   139     -0.174881   9 C  s               142      0.171773   9 C  py        

 Vector   64  Occ=2.000000D+00  E=-4.019527D-01
              MO Center=  9.1D-01, -1.6D+00, -1.3D+00, r^2= 3.8D+00
   Bfn.  Coefficient  Atom+Function         Bfn.  Coefficient  Atom+Function  
  ----- ------------  ---------------      ----- ------------  ---------------
   531     -0.400014  31 N  px              506      0.374881  30 O  px        
   534     -0.339094  31 N  px              509      0.299590  30 O  px        
   344     -0.181469  21 C  s               480      0.181790  29 C  s         

 Vector   65  Occ=2.000000D+00  E=-3.883927D-01
              MO Center=  1.3D+00, -6.1D-01, -6.2D-02, r^2= 4.7D+00
   Bfn.  Coefficient  Atom+Function         Bfn.  Coefficient  Atom+Function  
  ----- ------------  ---------------      ----- ------------  ---------------
   279      0.363124  17 N  pz              282      0.343991  17 N  pz        
   508     -0.287338  30 O  pz              254     -0.263896  16 O  pz        
   276      0.236486  17 N  s               511     -0.225300  30 O  pz        
   257     -0.207673  16 O  pz              140     -0.158165   9 C  s         
   313     -0.155211  19 C  pz        

 Vector   66  Occ=0.000000D+00  E= 2.464463D-02
              MO Center= -1.8D+00,  3.9D+00,  1.4D+00, r^2= 2.2D+01
   Bfn.  Coefficient  Atom+Function         Bfn.  Coefficient  Atom+Function  
  ----- ------------  ---------------      ----- ------------  ---------------
   226      3.293541  15 C  s               300      3.171103  18 H  s         
   234      2.525064  15 C  py              387      2.244456  24 C  s         
    63     -2.153555   5 C  px              216     -2.037026  14 H  s         
   106     -1.961475   7 N  s                 3     -1.874619   1 H  s         
   437     -1.766172  26 N  s               147     -1.540836   9 C  px        

 Vector   67  Occ=0.000000D+00  E= 3.482121D-02
              MO Center= -2.3D+00, -1.9D+00, -4.7D-03, r^2= 3.3D+01
   Bfn.  Coefficient  Atom+Function         Bfn.  Coefficient  Atom+Function  
  ----- ------------  ---------------      ----- ------------  ---------------
   106      3.804548   7 N  s               300      3.384698  18 H  s         
   437     -3.353458  26 N  s               387      3.268342  24 C  s         
   234     -3.242432  15 C  py               56     -2.469902   5 C  s         
   216      2.160462  14 H  s               461     -2.149222  27 H  s         
   396     -2.078951  24 C  pz              226     -1.858271  15 C  s         

 Vector   68  Occ=0.000000D+00  E= 3.694563D-02
              MO Center= -6.2D-01,  7.2D-01,  1.9D+00, r^2= 3.4D+01
   Bfn.  Coefficient  Atom+Function         Bfn.  Coefficient  Atom+Function  
  ----- ------------  ---------------      ----- ------------  ---------------
   234      4.359986  15 C  py              300     -4.356335  18 H  s         
   344      3.850012  21 C  s               377      3.422431  23 H  s         
   147     -3.382058   9 C  px               63     -2.678323   5 C  px        
   198      2.691573  12 H  s               353     -2.345707  21 C  pz        
   319     -2.017825  19 C  pz              174     -1.901102  11 C  s         

 Vector   69  Occ=0.000000D+00  E= 4.476870D-02
              MO Center= -1.3D-01,  3.1D+00,  2.0D-01, r^2= 3.5D+01
   Bfn.  Coefficient  Atom+Function         Bfn.  Coefficient  Atom+Function  
  ----- ------------  ---------------      ----- ------------  ---------------
    63      3.529092   5 C  px              234      2.788674  15 C  py        
    46      2.324868   4 H  s               344      2.299676  21 C  s         
   216     -2.253026  14 H  s               207     -2.070054  13 H  s         
   164     -1.818884  10 H  s               284      1.732727  17 N  py        
   480      1.673287  29 C  s               310      1.533930  19 C  s         

 Vector   70  Occ=0.000000D+00  E= 5.021904D-02
              MO Center= -4.5D-01,  2.3D-01,  7.9D-01, r^2= 4.1D+01
   Bfn.  Coefficient  Atom+Function         Bfn.  Coefficient  Atom+Function  
  ----- ------------  ---------------      ----- ------------  ---------------
   344      4.760358  21 C  s               480     -3.700895  29 C  s         
   234      3.567391  15 C  py              149      3.177849   9 C  pz        
   164      3.039953  10 H  s                56     -2.837706   5 C  s         
   147     -2.393393   9 C  px              368      2.281991  22 H  s         
   319     -2.169431  19 C  pz              334      2.126986  20 H  s         

 Vector   71  Occ=0.000000D+00  E= 5.294656D-02
              MO Center= -8.3D-01, -6.2D-01,  2.0D-01, r^2= 4.2D+01
   Bfn.  Coefficient  Atom+Function         Bfn.  Coefficient  Atom+Function  
  ----- ------------  ---------------      ----- ------------  ---------------
   387      5.818071  24 C  s               368     -3.324602  22 H  s         
    37      3.069266   3 H  s               437     -2.656043  26 N  s         
   198      2.488086  12 H  s               216     -2.247478  14 H  s         
   106     -2.129365   7 N  s               352     -2.090107  21 C  py        
   489      2.022145  29 C  pz               56      1.958221   5 C  s         

 Vector   72  Occ=0.000000D+00  E= 5.696255D-02
              MO Center=  4.4D-02, -1.9D-01, -2.2D+00, r^2= 3.6D+01
   Bfn.  Coefficient  Atom+Function         Bfn.  Coefficient  Atom+Function  
  ----- ------------  ---------------      ----- ------------  ---------------
   530      4.387792  31 N  s                56     -3.462018   5 C  s         
   554      3.296987  32 H  s               130      2.813182   8 H  s         
   207     -2.738842  13 H  s               480     -2.702571  29 C  s         
   234      2.614294  15 C  py              106      2.391673   7 N  s         
   489      2.261857  29 C  pz              276      1.836926  17 N  s         

 Vector   73  Occ=0.000000D+00  E= 6.413224D-02
              MO Center=  3.3D-01,  1.1D+00,  3.5D-01, r^2= 3.9D+01
   Bfn.  Coefficient  Atom+Function         Bfn.  Coefficient  Atom+Function  
  ----- ------------  ---------------      ----- ------------  ---------------
   164      5.427389  10 H  s               480     -3.794033  29 C  s         
   377      3.666906  23 H  s               149      3.288016   9 C  pz        
   334     -2.919173  20 H  s               387     -2.508287  24 C  s         
   530      2.169497  31 N  s                46      2.130299   4 H  s         
   317      2.092430  19 C  px                3     -2.003547   1 H  s         

 Vector   74  Occ=0.000000D+00  E= 6.677108D-02
              MO Center= -4.2D-01,  1.4D+00,  7.5D-01, r^2= 4.0D+01
   Bfn.  Coefficient  Atom+Function         Bfn.  Coefficient  Atom+Function  
  ----- ------------  ---------------      ----- ------------  ---------------
   387      7.386440  24 C  s                37      4.383330   3 H  s         
   334     -4.048354  20 H  s                46     -3.977981   4 H  s         
   276      3.906432  17 N  s                13      3.621723   2 C  s         
   207     -3.462317  13 H  s               140     -3.392332   9 C  s         
   317      3.372792  19 C  px              216      3.233140  14 H  s         

 Vector   75  Occ=0.000000D+00  E= 7.166051D-02
              MO Center= -9.9D-01,  6.6D-01,  5.1D-01, r^2= 4.4D+01
   Bfn.  Coefficient  Atom+Function         Bfn.  Coefficient  Atom+Function  
  ----- ------------  ---------------      ----- ------------  ---------------
   216      4.548168  14 H  s                56      3.979207   5 C  s         
     3     -3.954905   1 H  s               226     -3.657656  15 C  s         
   147      3.606529   9 C  px               63      3.523303   5 C  px        
   198     -3.366438  12 H  s               470     -3.289837  28 H  s         
    46      3.267578   4 H  s               368      3.206066  22 H  s         

 Vector   76  Occ=0.000000D+00  E= 7.345222D-02
              MO Center=  3.5D-01, -1.6D+00,  1.2D+00, r^2= 3.8D+01
   Bfn.  Coefficient  Atom+Function         Bfn.  Coefficient  Atom+Function  
  ----- ------------  ---------------      ----- ------------  ---------------
   480      6.926022  29 C  s               334      5.719320  20 H  s         
   368     -4.359910  22 H  s               174      4.316899  11 C  s         
   387      3.709643  24 C  s               226     -3.612991  15 C  s         
   317     -3.549096  19 C  px              140     -3.263272   9 C  s         
   344     -3.144579  21 C  s               234      3.094892  15 C  py        

 Vector   77  Occ=0.000000D+00  E= 7.725613D-02
              MO Center= -2.4D-01,  7.7D-01,  2.7D-01, r^2= 4.2D+01
   Bfn.  Coefficient  Atom+Function         Bfn.  Coefficient  Atom+Function  
  ----- ------------  ---------------      ----- ------------  ---------------
   377     -4.501761  23 H  s               174     -4.409292  11 C  s         
   164      4.256963  10 H  s                 3     -3.525911   1 H  s         
   368      3.393298  22 H  s               198      3.322001  12 H  s         
   216     -3.280365  14 H  s               149      3.166502   9 C  pz        
   130      3.034404   8 H  s               234      2.944000  15 C  py        

 Vector   78  Occ=0.000000D+00  E= 8.809079D-02
              MO Center= -2.5D-01,  2.5D+00,  1.2D+00, r^2= 3.4D+01
   Bfn.  Coefficient  Atom+Function         Bfn.  Coefficient  Atom+Function  
  ----- ------------  ---------------      ----- ------------  ---------------
   174      6.576104  11 C  s               207      6.302426  13 H  s         
   130      6.065692   8 H  s                56     -5.433260   5 C  s         
   198     -5.324099  12 H  s                46     -4.693364   4 H  s         
   149     -4.065955   9 C  pz               63     -3.563430   5 C  px        
   106      3.563384   7 N  s               164     -3.319502  10 H  s         

 Vector   79  Occ=0.000000D+00  E= 9.117323D-02
              MO Center= -9.0D-01, -9.6D-01,  4.6D-01, r^2= 4.0D+01
   Bfn.  Coefficient  Atom+Function         Bfn.  Coefficient  Atom+Function  
  ----- ------------  ---------------      ----- ------------  ---------------
   174      6.824366  11 C  s               368     -6.397459  22 H  s         
   470      4.835817  28 H  s               563     -4.594683  33 H  s         
   387      4.404456  24 C  s               310     -4.138311  19 C  s         
   234     -4.038200  15 C  py              344     -3.773524  21 C  s         
   198     -3.492428  12 H  s               377      3.391895  23 H  s         

 Vector   80  Occ=0.000000D+00  E= 9.943287D-02
              MO Center= -6.4D-01, -1.4D+00,  1.5D+00, r^2= 3.3D+01
   Bfn.  Coefficient  Atom+Function         Bfn.  Coefficient  Atom+Function  
  ----- ------------  ---------------      ----- ------------  ---------------
   387     30.014167  24 C  s               344    -10.142478  21 C  s         
   300     -9.686875  18 H  s               394      7.879351  24 C  px        
   437     -7.783758  26 N  s               310     -7.347539  19 C  s         
    13     -7.195028   2 C  s                56      6.769656   5 C  s         
   317      5.731801  19 C  px              351      5.326252  21 C  px        

 Vector   81  Occ=0.000000D+00  E= 1.087943D-01
              MO Center=  1.7D-01,  5.1D-01, -9.7D-01, r^2= 3.2D+01
   Bfn.  Coefficient  Atom+Function         Bfn.  Coefficient  Atom+Function  
  ----- ------------  ---------------      ----- ------------  ---------------
    56     11.444149   5 C  s               300     -9.098383  18 H  s         
   563      7.672134  33 H  s               174     -7.484921  11 C  s         
   344     -4.815657  21 C  s               368     -4.667725  22 H  s         
    13     -4.169704   2 C  s               147      3.374898   9 C  px        
   377      3.307089  23 H  s               470      3.142311  28 H  s         

 Vector   82  Occ=0.000000D+00  E= 1.094337D-01
              MO Center= -1.6D-01,  7.2D-01, -1.2D+00, r^2= 3.4D+01
   Bfn.  Coefficient  Atom+Function         Bfn.  Coefficient  Atom+Function  
  ----- ------------  ---------------      ----- ------------  ---------------
    56     13.484774   5 C  s               387    -13.084923  24 C  s         
   318     -6.751361  19 C  py              563     -6.730498  33 H  s         
   149      6.673095   9 C  pz              234     -6.285039  15 C  py        
   164      5.635729  10 H  s                65      5.442483   5 C  pz        
   106     -5.417476   7 N  s                63      5.389057   5 C  px        

 Vector   83  Occ=0.000000D+00  E= 1.192967D-01
              MO Center=  8.5D-01, -6.1D-01,  8.3D-01, r^2= 3.3D+01
   Bfn.  Coefficient  Atom+Function         Bfn.  Coefficient  Atom+Function  
  ----- ------------  ---------------      ----- ------------  ---------------
   480     31.743599  29 C  s               174     14.524725  11 C  s         
   344    -13.582971  21 C  s               140    -12.893064   9 C  s         
   319     12.319987  19 C  pz              226     -9.959530  15 C  s         
   530     -9.352264  31 N  s               300      8.684711  18 H  s         
    56      6.883106   5 C  s               387     -6.789101  24 C  s         

 Vector   84  Occ=0.000000D+00  E= 1.222138D-01
              MO Center=  6.6D-01, -1.3D-01,  9.0D-01, r^2= 3.1D+01
   Bfn.  Coefficient  Atom+Function         Bfn.  Coefficient  Atom+Function  
  ----- ------------  ---------------      ----- ------------  ---------------
   480     18.550953  29 C  s               300    -16.079472  18 H  s         
   387    -11.142354  24 C  s               563     -8.233239  33 H  s         
   310      7.679410  19 C  s               530     -6.656144  31 N  s         
   147     -5.809697   9 C  px              344      5.629468  21 C  s         
   334      5.434301  20 H  s               276     -5.145307  17 N  s         

 Vector   85  Occ=0.000000D+00  E= 1.298098D-01
              MO Center= -8.0D-01,  7.6D-01, -3.7D-01, r^2= 3.1D+01
   Bfn.  Coefficient  Atom+Function         Bfn.  Coefficient  Atom+Function  
  ----- ------------  ---------------      ----- ------------  ---------------
   226     11.569565  15 C  s               106     -9.991512   7 N  s         
    56      7.238327   5 C  s               310      7.238782  19 C  s         
   437     -5.808946  26 N  s               234      4.977268  15 C  py        
   396     -4.979841  24 C  pz              319      4.939374  19 C  pz        
   147     -4.849589   9 C  px              351     -4.599530  21 C  px        

 Vector   86  Occ=0.000000D+00  E= 1.323681D-01
              MO Center=  3.9D-01,  1.3D+00,  1.6D+00, r^2= 3.4D+01
   Bfn.  Coefficient  Atom+Function         Bfn.  Coefficient  Atom+Function  
  ----- ------------  ---------------      ----- ------------  ---------------
   226     21.961045  15 C  s                56     20.480353   5 C  s         
    13    -15.784011   2 C  s               174    -15.263014  11 C  s         
   344    -14.327923  21 C  s               140     12.109890   9 C  s         
   387      7.822244  24 C  s                63     -7.684274   5 C  px        
   106     -7.324464   7 N  s               276     -7.160640  17 N  s         

 Vector   87  Occ=0.000000D+00  E= 1.375458D-01
              MO Center= -1.1D+00, -1.0D+00, -5.9D-01, r^2= 2.4D+01
   Bfn.  Coefficient  Atom+Function         Bfn.  Coefficient  Atom+Function  
  ----- ------------  ---------------      ----- ------------  ---------------
   300      9.149005  18 H  s               106      8.402581   7 N  s         
   530     -7.015826  31 N  s                63     -5.647615   5 C  px        
   437     -4.951338  26 N  s               318     -4.837283  19 C  py        
    13     -4.494791   2 C  s               487     -3.922463  29 C  px        
   276      3.533907  17 N  s               489     -3.417951  29 C  pz        

 Vector   88  Occ=0.000000D+00  E= 1.415515D-01
              MO Center=  5.8D-01, -4.2D-01,  7.3D-01, r^2= 3.1D+01
   Bfn.  Coefficient  Atom+Function         Bfn.  Coefficient  Atom+Function  
  ----- ------------  ---------------      ----- ------------  ---------------
   234     12.615515  15 C  py              106     -7.181473   7 N  s         
   530     -6.255476  31 N  s               147     -6.216113   9 C  px        
   387     -5.807041  24 C  s               334      4.836089  20 H  s         
   174     -4.428300  11 C  s               148      4.269802   9 C  py        
   480      4.174317  29 C  s               283      4.000185  17 N  px        

 Vector   89  Occ=0.000000D+00  E= 1.473900D-01
              MO Center=  3.2D-01,  6.8D-01,  4.9D-01, r^2= 3.3D+01
   Bfn.  Coefficient  Atom+Function         Bfn.  Coefficient  Atom+Function  
  ----- ------------  ---------------      ----- ------------  ---------------
   226     11.054907  15 C  s               276    -10.875882  17 N  s         
   140     10.090341   9 C  s               344      8.755969  21 C  s         
    63     -7.388170   5 C  px              480     -7.271519  29 C  s         
    13     -7.101318   2 C  s               233     -6.120164  15 C  px        
   147     -5.460130   9 C  px              437     -5.382012  26 N  s         

 Vector   90  Occ=0.000000D+00  E= 1.491797D-01
              MO Center= -1.0D-02,  3.8D-02,  2.4D-02, r^2= 3.4D+01
   Bfn.  Coefficient  Atom+Function         Bfn.  Coefficient  Atom+Function  
  ----- ------------  ---------------      ----- ------------  ---------------
   344     20.848952  21 C  s               234     10.464313  15 C  py        
   318     10.470925  19 C  py               13      9.425912   2 C  s         
   387     -8.239462  24 C  s                63      7.246474   5 C  px        
[...]
  ----- ------------  ---------------      ----- ------------  ---------------
   437     18.479409  26 N  s               480     12.865317  29 C  s         
   387    -12.320932  24 C  s                13    -11.284093   2 C  s         
    63    -10.946919   5 C  px               56     10.002824   5 C  s         
   344     -8.871438  21 C  s               310      8.670702  19 C  s         
   226      7.702322  15 C  s               530     -7.441197  31 N  s         

 Vector  161  Occ=0.000000D+00  E= 4.304604D-01
              MO Center= -2.8D-01,  5.1D-01,  1.9D-01, r^2= 1.9D+01
   Bfn.  Coefficient  Atom+Function         Bfn.  Coefficient  Atom+Function  
  ----- ------------  ---------------      ----- ------------  ---------------
   174     -9.820254  11 C  s                63      9.329422   5 C  px        
   480      7.820853  29 C  s                12     -7.651343   2 C  s         
   387      7.582869  24 C  s               284      7.417338  17 N  py        
   344      6.916094  21 C  s               283      6.788551  17 N  px        
   437     -6.458572  26 N  s               140     -5.817726   9 C  s         

 Vector  162  Occ=0.000000D+00  E= 4.387679D-01
              MO Center= -5.6D-01, -1.1D-01, -1.3D-01, r^2= 2.2D+01
   Bfn.  Coefficient  Atom+Function         Bfn.  Coefficient  Atom+Function  
  ----- ------------  ---------------      ----- ------------  ---------------
   480     18.794423  29 C  s               344    -14.555633  21 C  s         
    13    -10.802947   2 C  s               319      8.519841  19 C  pz        
   317     -6.945316  19 C  px              173      6.630008  11 C  s         
    63     -6.559257   5 C  px              353      6.583479  21 C  pz        
    65     -6.475846   5 C  pz              106      6.140060   7 N  s         

 Vector  163  Occ=0.000000D+00  E= 4.415965D-01
              MO Center= -5.7D-01,  1.6D+00,  1.3D-01, r^2= 1.9D+01
   Bfn.  Coefficient  Atom+Function         Bfn.  Coefficient  Atom+Function  
  ----- ------------  ---------------      ----- ------------  ---------------
   480     15.800210  29 C  s               140    -10.274408   9 C  s         
   226    -10.059638  15 C  s               530     -8.797407  31 N  s         
   387     -8.574263  24 C  s               113      8.221543   7 N  px        
    56      7.198248   5 C  s               319      6.068297  19 C  pz        
    63      5.830389   5 C  px               13      5.323975   2 C  s         

 Vector  164  Occ=0.000000D+00  E= 4.501790D-01
              MO Center= -6.5D-02,  6.7D-02,  2.8D-01, r^2= 2.0D+01
   Bfn.  Coefficient  Atom+Function         Bfn.  Coefficient  Atom+Function  
  ----- ------------  ---------------      ----- ------------  ---------------
   480    -19.956707  29 C  s               276     19.726412  17 N  s         
    56    -16.005596   5 C  s                13     11.429120   2 C  s         
   317      9.631574  19 C  px              387      9.241381  24 C  s         
   234      9.053018  15 C  py              344      8.493110  21 C  s         
   226     -8.120847  15 C  s               530      6.720001  31 N  s         

 Vector  165  Occ=0.000000D+00  E= 4.555047D-01
              MO Center= -1.5D-01,  6.8D-01,  6.4D-01, r^2= 2.0D+01
   Bfn.  Coefficient  Atom+Function         Bfn.  Coefficient  Atom+Function  
  ----- ------------  ---------------      ----- ------------  ---------------
   387     17.750611  24 C  s               480    -13.677233  29 C  s         
   344    -10.628690  21 C  s               226      8.403092  15 C  s         
   113      8.061798   7 N  px              343     -8.042956  21 C  s         
   147      7.688026   9 C  px              376      7.695760  23 H  s         
   284     -7.542905  17 N  py              319     -6.693978  19 C  pz        

 Vector  166  Occ=0.000000D+00  E= 4.573180D-01
              MO Center= -1.9D-01,  3.8D-01, -2.1D-01, r^2= 1.8D+01
   Bfn.  Coefficient  Atom+Function         Bfn.  Coefficient  Atom+Function  
  ----- ------------  ---------------      ----- ------------  ---------------
    13     15.752585   2 C  s               530      9.929291  31 N  s         
   226     -9.687051  15 C  s               276      9.279593  17 N  s         
   113      8.033645   7 N  px              140     -8.011314   9 C  s         
   284     -7.509645  17 N  py              480     -5.650908  29 C  s         
   174      5.607986  11 C  s                63      5.400102   5 C  px        

 Vector  167  Occ=0.000000D+00  E= 4.577635D-01
              MO Center= -1.2D+00,  7.9D-01, -5.2D-02, r^2= 1.8D+01
   Bfn.  Coefficient  Atom+Function         Bfn.  Coefficient  Atom+Function  
  ----- ------------  ---------------      ----- ------------  ---------------
   234    -17.641254  15 C  py               56     17.217642   5 C  s         
   318    -12.666364  19 C  py              387    -11.914224  24 C  s         
   147     10.859795   9 C  px              276    -10.400702  17 N  s         
   113      8.789708   7 N  px              140      7.256640   9 C  s         
   106      6.879908   7 N  s               115      6.386323   7 N  pz        

 Vector  168  Occ=0.000000D+00  E= 4.656390D-01
              MO Center=  6.1D-01,  2.1D-01,  6.0D-01, r^2= 2.0D+01
   Bfn.  Coefficient  Atom+Function         Bfn.  Coefficient  Atom+Function  
  ----- ------------  ---------------      ----- ------------  ---------------
   480     21.548408  29 C  s               387    -18.837727  24 C  s         
   530    -14.636240  31 N  s               344    -13.933110  21 C  s         
   319     12.588327  19 C  pz              174     12.061398  11 C  s         
   318    -10.859340  19 C  py              276     10.261734  17 N  s         
   226     -8.385497  15 C  s               140     -8.255121   9 C  s         

 Vector  169  Occ=0.000000D+00  E= 4.730838D-01
              MO Center= -1.1D-01,  7.4D-02,  2.4D-01, r^2= 1.9D+01
   Bfn.  Coefficient  Atom+Function         Bfn.  Coefficient  Atom+Function  
  ----- ------------  ---------------      ----- ------------  ---------------
   226     29.717073  15 C  s                13    -25.585645   2 C  s         
   174    -22.522594  11 C  s               234     20.871783  15 C  py        
   140     17.674328   9 C  s                63    -14.090455   5 C  px        
    56     13.817719   5 C  s               276    -12.487347  17 N  s         
   284    -12.480224  17 N  py              147    -11.707136   9 C  px        

 Vector  170  Occ=0.000000D+00  E= 4.756199D-01
              MO Center= -7.2D-02,  4.9D-01, -2.3D-01, r^2= 1.9D+01
   Bfn.  Coefficient  Atom+Function         Bfn.  Coefficient  Atom+Function  
  ----- ------------  ---------------      ----- ------------  ---------------
   480     28.036008  29 C  s                13    -12.617506   2 C  s         
   344    -12.536567  21 C  s               319     10.238033  19 C  pz        
   106      8.519930   7 N  s               234      7.134121  15 C  py        
   140     -6.796950   9 C  s               276      6.739180  17 N  s         
   174      6.500271  11 C  s               505     -5.287515  30 O  s         

 Vector  171  Occ=0.000000D+00  E= 4.787654D-01
              MO Center= -3.2D-01,  4.5D-01, -1.6D-01, r^2= 2.0D+01
   Bfn.  Coefficient  Atom+Function         Bfn.  Coefficient  Atom+Function  
  ----- ------------  ---------------      ----- ------------  ---------------
   174     23.387401  11 C  s               480     18.480475  29 C  s         
   276    -16.246807  17 N  s                56    -13.410062   5 C  s         
   300    -12.538244  18 H  s               147    -11.914567   9 C  px        
   148    -11.599465   9 C  py              234     10.039788  15 C  py        
   206     -8.885414  13 H  s               344      8.884199  21 C  s         

 Vector  172  Occ=0.000000D+00  E= 4.850639D-01
              MO Center= -2.6D-01,  1.3D+00,  4.4D-01, r^2= 2.0D+01
   Bfn.  Coefficient  Atom+Function         Bfn.  Coefficient  Atom+Function  
  ----- ------------  ---------------      ----- ------------  ---------------
   344     10.568332  21 C  s               113      9.887563   7 N  px        
   276     -9.829220  17 N  s               530     -9.735469  31 N  s         
   300     -9.193082  18 H  s                12     -7.846867   2 C  s         
    13      7.322262   2 C  s               173      7.166343  11 C  s         
   147      6.951485   9 C  px              163     -6.169865  10 H  s         

 Vector  173  Occ=0.000000D+00  E= 4.867224D-01
              MO Center= -1.2D-01,  7.9D-01,  1.9D-01, r^2= 1.9D+01
   Bfn.  Coefficient  Atom+Function         Bfn.  Coefficient  Atom+Function  
  ----- ------------  ---------------      ----- ------------  ---------------
    56     17.865862   5 C  s               344    -16.085521  21 C  s         
   480     15.977935  29 C  s               387    -13.861941  24 C  s         
    13    -13.654699   2 C  s               174    -11.403188  11 C  s         
   234     10.553443  15 C  py              310      9.667687  19 C  s         
   226      9.426454  15 C  s                63     -7.864708   5 C  px        

 Vector  174  Occ=0.000000D+00  E= 4.868211D-01
              MO Center=  7.3D-02, -5.0D-01,  1.9D-01, r^2= 1.8D+01
   Bfn.  Coefficient  Atom+Function         Bfn.  Coefficient  Atom+Function  
  ----- ------------  ---------------      ----- ------------  ---------------
    56     25.984792   5 C  s               480     23.621135  29 C  s         
    13    -18.046138   2 C  s               344    -17.661153  21 C  s         
   174    -14.795284  11 C  s               387    -10.354059  24 C  s         
   276     -9.163510  17 N  s               376      7.760679  23 H  s         
   319      7.672802  19 C  pz              437      7.448296  26 N  s         

 Vector  175  Occ=0.000000D+00  E= 4.918288D-01
              MO Center=  1.7D-02, -1.6D-01,  2.8D-01, r^2= 1.9D+01
   Bfn.  Coefficient  Atom+Function         Bfn.  Coefficient  Atom+Function  
  ----- ------------  ---------------      ----- ------------  ---------------
   174     26.354169  11 C  s               226    -19.076993  15 C  s         
   310    -17.358727  19 C  s               106     16.527078   7 N  s         
   387     15.705020  24 C  s                56    -12.892555   5 C  s         
   140    -12.426342   9 C  s               344    -11.454626  21 C  s         
   149     -9.936133   9 C  pz              234     -9.261956  15 C  py        

 Vector  176  Occ=0.000000D+00  E= 4.953767D-01
              MO Center=  1.8D-02,  3.7D-01,  4.2D-01, r^2= 1.9D+01
   Bfn.  Coefficient  Atom+Function         Bfn.  Coefficient  Atom+Function  
  ----- ------------  ---------------      ----- ------------  ---------------
   344     15.310094  21 C  s               106     13.918284   7 N  s         
   226     -9.218455  15 C  s               530     -8.662707  31 N  s         
   319     -8.131510  19 C  pz              139     -7.989759   9 C  s         
   234     -7.953523  15 C  py               56     -7.259503   5 C  s         
   376     -7.239976  23 H  s                81      6.761497   6 O  s         

 Vector  177  Occ=0.000000D+00  E= 5.010871D-01
              MO Center= -3.3D-01,  5.3D-01,  1.7D-01, r^2= 2.0D+01
   Bfn.  Coefficient  Atom+Function         Bfn.  Coefficient  Atom+Function  
  ----- ------------  ---------------      ----- ------------  ---------------
   387     21.372938  24 C  s               344    -16.819278  21 C  s         
   480      9.258300  29 C  s               319      9.201620  19 C  pz        
   437     -9.012082  26 N  s               140     -8.733474   9 C  s         
   276      8.595524  17 N  s               412     -7.475150  25 O  s         
    12     -6.785684   2 C  s                 2      5.855909   1 H  s         


 center of mass
 --------------
 x =   0.04318493 y =  -0.05919993 z =  -0.03050110

 moments of inertia (a.u.)
 ------------------
        4744.486316616494          -0.000000000000          -0.000000000001
          -0.000000000000        2962.289162198378          -0.000000000002
          -0.000000000001          -0.000000000002        5722.990176850763

  Mulliken analysis of the total density
  --------------------------------------

    Atom       Charge   Shell Charges
 -----------   ------   -------------------------------------------------------
    1 H    1     0.82   0.77  0.08  0.01  0.03 -0.07
    2 C    6     6.44   2.01  0.66  0.32  0.23  2.07  1.01 -0.03  0.06  0.12
    3 H    1     0.95   0.77  0.21  0.00  0.03 -0.07
    4 H    1     0.80   0.76  0.08  0.01  0.03 -0.07
    5 C    6     5.07   2.01  0.68  0.10 -0.04  1.89  0.34 -0.13  0.24 -0.02
    6 O    8     8.82   2.01  0.82  1.00  0.18  2.80  1.86  0.16  0.01 -0.01
    7 N    7     7.52   2.01  0.72  0.81 -0.18  2.45  1.45  0.18  0.05  0.04
    8 H    1     0.97   0.77  0.21 -0.02  0.05 -0.04
    9 C    6     6.45   2.01  0.66  0.13  0.09  1.99  1.29 -0.02  0.14  0.16
   10 H    1     1.14   0.78  0.28  0.03  0.03  0.02
   11 C    6     5.71   2.01  0.66  0.30  0.09  2.04  0.59 -0.05  0.07  0.01
   12 H    1     0.93   0.77  0.17  0.04  0.03 -0.08
   13 H    1     0.94   0.76  0.22 -0.01  0.03 -0.07
   14 H    1     0.96   0.77  0.24  0.00  0.03 -0.09
   15 C    6     4.82   2.01  0.68  0.05  0.03  1.89  0.12  0.10  0.24 -0.29
   16 O    8     8.85   2.01  0.82  1.05  0.20  2.79  1.84  0.14  0.01 -0.00
   17 N    7     7.55   2.01  0.72  0.79 -0.03  2.46  1.41  0.13  0.06  0.02
   18 H    1     0.81   0.75  0.22 -0.04  0.06 -0.17
   19 C    6     6.15   2.01  0.66 -0.01  0.03  1.99  1.24  0.03  0.14  0.06
   20 H    1     1.03   0.77  0.25 -0.01  0.03 -0.01
   21 C    6     6.56   2.01  0.66  0.86 -0.02  2.06  0.78 -0.03  0.09  0.16
   22 H    1     0.90   0.77  0.17 -0.01  0.03 -0.07
   23 H    1     0.86   0.77  0.14 -0.00  0.03 -0.08
   24 C    6     4.54   2.01  0.68  0.01  0.05  1.91 -0.22  0.00  0.24 -0.13
   25 O    8     8.88   2.01  0.81  1.03  0.19  2.80  1.86  0.16  0.02 -0.00
   26 N    7     7.18   2.01  0.72  0.77 -0.15  2.47  1.26  0.08  0.04 -0.02
   27 H    1     0.99   0.76  0.21 -0.01  0.05 -0.02
   28 H    1     0.93   0.74  0.18 -0.01  0.06 -0.04
   29 C    6     4.43   2.01  0.68  0.06 -0.11  1.89 -0.17 -0.03  0.24 -0.13
   30 O    8     8.90   2.01  0.82  1.04  0.21  2.80  1.86  0.16  0.01 -0.00
   31 N    7     7.23   2.01  0.72  0.84 -0.19  2.46  1.24  0.11  0.04 -0.01
   32 H    1     1.02   0.76  0.24 -0.01  0.05 -0.02
   33 H    1     0.85   0.73  0.17 -0.01  0.06 -0.11

       Multipole analysis of the density wrt the origin
       ------------------------------------------------

     L   x y z        total         open         nuclear
     -   - - -        -----         ----         -------
     0   0 0 0      0.000000      0.000000    130.000000

     1   1 0 0     -1.759554      0.000000     -0.000000
     1   0 1 0      1.024798      0.000000      0.000000
     1   0 0 1      0.980094      0.000000     -0.000000

     2   2 0 0    -82.689747      0.000000   1082.463674
     2   1 1 0      1.508894      0.000000     -0.856616
     2   1 0 1      4.998783      0.000000     19.380500
     2   0 2 0    -66.588669      0.000000   2071.581730
     2   0 1 1      1.556253      0.000000     15.128989
     2   0 0 2    -75.042525      0.000000    557.580791


 Task  times  cpu:     4045.9s     wall:     4095.9s


                                NWChem Input Module
                                -------------------


 Summary of allocated global arrays
-----------------------------------
  No active global arrays


MA_summarize_allocated_blocks: starting scan ...
MA_summarize_allocated_blocks: scan completed: 0 heap blocks, 0 stack blocks
MA usage statistics:

	allocation statistics:
					      heap	     stack
					      ----	     -----
	current number of blocks	         0	         0
	maximum number of blocks	        16	        14
	current total bytes		         0	         0
	maximum total bytes		    119928	  26741432
	maximum total K-bytes		       120	     26742
	maximum total M-bytes		         1	        27


                                     CITATION
                                     --------
                Please cite the following reference when publishing
                           results obtained with NWChem:

          E. Apra, E. J. Bylaska, W. A. de Jong, N. Govind, K. Kowalski,
       T. P. Straatsma, M. Valiev, H. J. J. van Dam, Y. Alexeev, J. Anchell,
       V. Anisimov, F. W. Aquino, R. Atta-Fynn, J. Autschbach, N. P. Bauman,
     J. C. Becca, D. E. Bernholdt, K. Bhaskaran-Nair, S. Bogatko, P. Borowski,
         J. Boschen, J. Brabec, A. Bruner, E. Cauet, Y. Chen, G. N. Chuev,
      C. J. Cramer, J. Daily, M. J. O. Deegan, T. H. Dunning Jr., M. Dupuis,
   K. G. Dyall, G. I. Fann, S. A. Fischer, A. Fonari, H. Fruchtl, L. Gagliardi,
      J. Garza, N. Gawande, S. Ghosh, K. Glaesemann, A. W. Gotz, J. Hammond,
       V. Helms, E. D. Hermes, K. Hirao, S. Hirata, M. Jacquelin, L. Jensen,
   B. G. Johnson, H. Jonsson, R. A. Kendall, M. Klemm, R. Kobayashi, V. Konkov,
      S. Krishnamoorthy, M. Krishnan, Z. Lin, R. D. Lins, R. J. Littlefield,
      A. J. Logsdail, K. Lopata, W. Ma, A. V. Marenich, J. Martin del Campo,
   D. Mejia-Rodriguez, J. E. Moore, J. M. Mullin, T. Nakajima, D. R. Nascimento,
    J. A. Nichols, P. J. Nichols, J. Nieplocha, A. Otero-de-la-Roza, B. Palmer,
    A. Panyala, T. Pirojsirikul, B. Peng, R. Peverati, J. Pittner, L. Pollack,
   R. M. Richard, P. Sadayappan, G. C. Schatz, W. A. Shelton, D. W. Silverstein,
   D. M. A. Smith, T. A. Soares, D. Song, M. Swart, H. L. Taylor, G. S. Thomas,
            V. Tipparaju, D. G. Truhlar, K. Tsemekhman, T. Van Voorhis,
      A. Vazquez-Mayagoitia, P. Verma, O. Villa, A. Vishnu, K. D. Vogiatzis,
        D. Wang, J. H. Weare, M. J. Williamson, T. L. Windus, K. Wolinski,
        A. T. Wong, Q. Wu, C. Yang, Q. Yu, M. Zacharias, Z. Zhang, Y. Zhao,
                                and R. J. Harrison
                        "NWChem: Past, present, and future
                         J. Chem. Phys. 152, 184102 (2020)
                               doi:10.1063/5.0004997

                                      AUTHORS
                                      -------
  E. Apra, E. J. Bylaska, N. Govind, K. Kowalski, M. Valiev, D. Mejia-Rodriguez,
       A. Kunitsa, N. P. Bauman, A. Panyala, W. A. de Jong, T. P. Straatsma,
   H. J. J. van Dam, D. Wang, T. L. Windus, J. Hammond, J. Autschbach, A. Woods,
    K. Bhaskaran-Nair, J. Brabec, K. Lopata, S. A. Fischer, S. Krishnamoorthy,
     M. Jacquelin, W. Ma, M. Klemm, O. Villa, Y. Chen, V. Anisimov, F. Aquino,
     S. Hirata, M. T. Hackler, E. Hermes, L. Jensen, J. E. Moore, J. C. Becca,
      V. Konjkov, T. Risthaus, M. Malagoli, A. Marenich, A. Otero-de-la-Roza,
        J. Mullin, P. Nichols, R. Peverati, J. Pittner, Y. Zhao, P.-D. Fan,
        A. Fonari, M. J. Williamson, R. J. Harrison, J. R. Rehr, M. Dupuis,
     D. Silverstein, D. M. A. Smith, J. Nieplocha, V. Tipparaju, M. Krishnan,
     B. E. Van Kuiken, A. Vazquez-Mayagoitia, M. Swart, Q. Wu, T. Van Voorhis,
     A. A. Auer, M. Nooijen, L. D. Crosby, E. Brown, G. Cisneros, G. I. Fann,
   H. Fruchtl, J. Garza, K. Hirao, R. A. Kendall, J. A. Nichols, K. Tsemekhman,
    K. Wolinski, J. Anchell, D. E. Bernholdt, P. Borowski, T. Clark, D. Clerc,
   H. Dachsel, M. J. O. Deegan, K. Dyall, D. Elwood, E. Glendening, M. Gutowski,
   A. C. Hess, J. Jaffe, B. G. Johnson, J. Ju, R. Kobayashi, R. Kutteh, Z. Lin,
   R. Littlefield, X. Long, B. Meng, T. Nakajima, S. Niu, L. Pollack, M. Rosing,
   K. Glaesemann, G. Sandrone, M. Stave, H. Taylor, G. Thomas, J. H. van Lenthe,
                               A. T. Wong, Z. Zhang.

 Total times  cpu:     4046.0s     wall:     4096.2s
