export TMOUT=5400
export TMPDIR=/tmp
export PTMPDIR=/tmp/ptmp
 argument  1 = ALA_PHE_0.nw
                                         
                                         


             Northwest Computational Chemistry Package (NWChem) 7.2.0
             --------------------------------------------------------


                    Environmental Molecular Sciences Laboratory
                       Pacific Northwest National Laboratory
                                Richland, WA 99352

                              Copyright (c) 1994-2022
                       Pacific Northwest National Laboratory
                            Battelle Memorial Institute

             NWChem is an open-source computational chemistry package
                        distributed under the terms of the
                      Educational Community License (ECL) 2.0
             A copy of the license is included with this distribution
                              in the LICENSE.TXT file

                                  ACKNOWLEDGMENT
                                  --------------

            This software and its documentation were developed at the
            EMSL at Pacific Northwest National Laboratory, a multiprogram
            national laboratory, operated for the U.S. Department of Energy
            by Battelle under Contract Number DE-AC05-76RL01830. Support
            for this work was provided by the Department of Energy Office
            of Biological and Environmental Research, Office of Basic
            Energy Sciences, and the Office of Advanced Scientific Computing.


           Job information
           ---------------

    hostname        = nova18-45
    program         = /opt/rit/el9/20230413/app/linux-rhel9-x86_64_v3/gcc-11.2.1/nwchem-7.2.0-oxtctbuhfuzyfaoziquq6bki22grib3g/bin/nwchem
    date            = Fri Jun 27 14:04:19 2025

    compiled        = Wed_May_17_23:46:39_2023
    source          = /tmp/root/spack-stage/spack-stage-nwchem-7.2.0-oxtctbuhfuzyfaoziquq6bki22grib3g/spack-src
    nwchem branch   = 7.2.0
    nwchem revision = d0d141fd
    ga revision     = 5.8.0
    use scalapack   = T
    input           = ALA_PHE_0.nw
    prefix          = ALA_PHE_0.
    data base       = ./ALA_PHE_0.db
    status          = startup
    nproc           =        8
    time left       =     -1s



           Memory information
           ------------------

    heap     =   26214400 doubles =    200.0 Mbytes
    stack    =   26214397 doubles =    200.0 Mbytes
    global   =   52428800 doubles =    400.0 Mbytes (distinct from heap & stack)
    total    =  104857597 doubles =    800.0 Mbytes
    verify   = yes
    hardfail = no 


           Directory information
           ---------------------

  0 permanent = .
  0 scratch   = .




                                NWChem Input Module
                                -------------------



 Scaling coordinates for geometry "geometry" by  1.889725989
 (inverse scale =  0.529177249)

 C1  symmetry detected

          ------
          auto-z
          ------
  no constraints, skipping    0.0000000000000000     
  no constraints, skipping    0.0000000000000000     


                             Geometry "geometry" -> ""
                             -------------------------

 Output coordinates in angstroms (scale by  1.889725989 to convert to a.u.)

  No.       Tag          Charge          X              Y              Z
 ---- ---------------- ---------- -------------- -------------- --------------
    1 H                    1.0000    -3.23965191     3.03679379     0.87296247
    2 C                    6.0000    -2.18182746     2.78137217     0.88604795
    3 H                    1.0000    -1.71113274     3.22336759     1.76341762
    4 H                    1.0000    -1.69689485     3.15397569    -0.01377147
    5 C                    6.0000    -2.02827883     1.28094024     0.95175059
    6 O                    8.0000    -1.45748188     0.75819021     1.90069382
    7 N                    7.0000    -2.53574911     0.58543373    -0.06257411
    8 H                    1.0000    -2.96732252     1.09928204    -0.81265164
    9 C                    6.0000    -2.55055524    -0.87963092    -0.16000280
   10 H                    1.0000    -2.81975395    -1.27302763     0.82222736
   11 C                    6.0000    -3.66655276    -1.27698514    -1.13783363
   12 H                    1.0000    -4.61709181    -0.85122606    -0.81476441
   13 H                    1.0000    -3.42868911    -0.92154414    -2.14159236
   14 H                    1.0000    -3.76233014    -2.36349877    -1.16377259
   15 C                    6.0000    -1.17492124    -1.50092471    -0.51269410
   16 O                    8.0000    -1.07366267    -2.35379049    -1.39337659
   17 N                    7.0000    -0.10268640    -1.06549939     0.15528287
   18 H                    1.0000    -0.26615363    -0.38025704     0.88535505
   19 C                    6.0000     1.29495487    -1.44621236    -0.10878253
   20 H                    1.0000     1.42948066    -1.46172243    -1.19030749
   21 C                    6.0000     2.22436925    -0.35791889     0.45752590
   22 H                    1.0000     2.18164003    -0.39663024     1.54669468
   23 H                    1.0000     3.25037587    -0.58511156     0.16309268
   24 C                    6.0000     1.90868650     1.05573221    -0.00405503
   25 C                    6.0000     2.06836233     1.40910883    -1.35784290
   26 H                    1.0000     2.41550569     0.67419717    -2.06985858
   27 C                    6.0000     1.78329087     2.71804415    -1.78656729
   28 H                    1.0000     1.91143558     2.98560715    -2.82643986
   29 C                    6.0000     1.34651773     3.68162780    -0.86161823
   30 H                    1.0000     1.13892289     4.69072048    -1.18908173
   31 C                    6.0000     1.18974619     3.33432565     0.49135365
   32 H                    1.0000     0.86088870     4.07503300     1.20620425
   33 C                    6.0000     1.46432458     2.02284056     0.91889727
   34 H                    1.0000     1.33611657     1.76033421     1.95942268
   35 C                    6.0000     1.67469888    -2.86427926     0.38249108
   36 O                    8.0000     2.75563146    -3.09142893     0.91255597
   37 N                    7.0000     0.79523353    -3.84655561     0.24518902
   38 H                    1.0000     1.04479350    -4.76378349     0.57131605
   39 H                    1.0000    -0.07051431    -3.66816911    -0.24474252

      Atomic Mass 
      ----------- 

      H                  1.007825
      C                 12.000000
      O                 15.994910
      N                 14.003070


 Effective nuclear repulsion energy (a.u.)    1625.8261050164

            Nuclear Dipole moment (a.u.) 
            ----------------------------
        X                 Y               Z
 ---------------- ---------------- ----------------
     0.0000000000     0.0000000000     0.0000000000



                                Z-matrix (autoz)
                                -------- 

 Units are Angstrom for bonds and degrees for angles

      Type          Name      I     J     K     L     M      Value
      ----------- --------  ----- ----- ----- ----- ----- ----------
    1 Stretch                  1     2                       1.08830
    2 Stretch                  2     3                       1.08935
    3 Stretch                  2     4                       1.08797
    4 Stretch                  2     5                       1.50970
    5 Stretch                  5     6                       1.22457
    6 Stretch                  5     7                       1.33045
    7 Stretch                  7     8                       1.00644
    8 Stretch                  7     9                       1.46838
    9 Stretch                  9    10                       1.09179
   10 Stretch                  9    11                       1.53606
   11 Stretch                  9    15                       1.55009
   12 Stretch                 11    12                       1.09049
   13 Stretch                 11    13                       1.09108
   14 Stretch                 11    14                       1.09104
   15 Stretch                 15    16                       1.23014
   16 Stretch                 15    17                       1.33622
   17 Stretch                 17    18                       1.01454
   18 Stretch                 17    19                       1.47244
   19 Stretch                 19    20                       1.08997
   20 Stretch                 19    21                       1.53912
   21 Stretch                 19    35                       1.54805
   22 Stretch                 21    22                       1.09069
   23 Stretch                 21    23                       1.09133
   24 Stretch                 21    24                       1.52024
   25 Stretch                 24    25                       1.40823
   26 Stretch                 24    33                       1.40876
   27 Stretch                 25    26                       1.08054
   28 Stretch                 25    27                       1.40655
   29 Stretch                 27    28                       1.08136
   30 Stretch                 27    29                       1.40527
   31 Stretch                 29    30                       1.08102
   32 Stretch                 29    31                       1.40561
   33 Stretch                 31    32                       1.08065
   34 Stretch                 31    33                       1.40648
   35 Stretch                 33    34                       1.08076
   36 Stretch                 35    36                       1.22515
   37 Stretch                 35    37                       1.32559
   38 Stretch                 37    38                       1.00496
   39 Stretch                 37    39                       1.01063
   40 Bend                     1     2     3               109.53868
   41 Bend                     1     2     4               110.05479
   42 Bend                     1     2     5               109.42906
   43 Bend                     2     5     6               120.35775
   44 Bend                     2     5     7               116.58827
   45 Bend                     3     2     4               109.54664
   46 Bend                     3     2     5               108.92029
   47 Bend                     4     2     5               109.33165
   48 Bend                     5     7     8               117.70081
   49 Bend                     5     7     9               125.17050
   50 Bend                     6     5     7               123.05363
   51 Bend                     7     9    10               107.59601
   52 Bend                     7     9    11               107.91851
   53 Bend                     7     9    15               113.95740
   54 Bend                     8     7     9               117.10594
   55 Bend                     9    11    12               110.10230
   56 Bend                     9    11    13               110.05827
   57 Bend                     9    11    14               109.66528
   58 Bend                     9    15    16               120.91944
   59 Bend                     9    15    17               117.89017
   60 Bend                    10     9    11               107.47888
   61 Bend                    10     9    15               106.20608
   62 Bend                    11     9    15               113.34328
   63 Bend                    12    11    13               109.59626
   64 Bend                    12    11    14               108.62271
   65 Bend                    13    11    14               108.76496
   66 Bend                    15    17    18               116.77822
   67 Bend                    15    17    19               125.99900
   68 Bend                    16    15    17               121.18232
   69 Bend                    17    19    20               107.38438
   70 Bend                    17    19    21               108.92768
   71 Bend                    17    19    35               114.37954
   72 Bend                    18    17    19               117.16999
   73 Bend                    19    21    22               108.58280
   74 Bend                    19    21    23               108.73829
   75 Bend                    19    21    24               114.85997
   76 Bend                    19    35    36               121.57204
   77 Bend                    19    35    37               118.89286
   78 Bend                    20    19    21               107.49509
   79 Bend                    20    19    35               105.75829
   80 Bend                    21    19    35               112.50840
   81 Bend                    21    24    25               120.11146
   82 Bend                    21    24    33               120.32773
   83 Bend                    22    21    23               107.38907
   84 Bend                    22    21    24               109.15159
   85 Bend                    23    21    24               107.87207
   86 Bend                    24    25    26               119.94881
   87 Bend                    24    25    27               120.23599
   88 Bend                    24    33    31               120.16927
   89 Bend                    24    33    34               120.09523
   90 Bend                    25    24    33               119.55925
   91 Bend                    25    27    28               119.95719
   92 Bend                    25    27    29               120.03141
   93 Bend                    26    25    27               119.81457
   94 Bend                    27    29    30               120.02474
   95 Bend                    27    29    31               119.92025
   96 Bend                    28    27    29               120.00759
   97 Bend                    29    31    32               120.08690
   98 Bend                    29    31    33               120.08078
   99 Bend                    30    29    31               120.05324
  100 Bend                    31    33    34               119.73521
  101 Bend                    32    31    33               119.83205
  102 Bend                    35    37    38               118.55196
  103 Bend                    35    37    39               119.19336
  104 Bend                    36    35    37               119.52371
  105 Bend                    38    37    39               122.08304
  106 Torsion                  1     2     5     6        -118.99550
  107 Torsion                  1     2     5     7          61.21327
  108 Torsion                  2     5     7     8           1.34560
  109 Torsion                  2     5     7     9        -176.86375
  110 Torsion                  3     2     5     6           0.72689
  111 Torsion                  3     2     5     7        -179.06433
  112 Torsion                  4     2     5     6         120.40099
  113 Torsion                  4     2     5     7         -59.39024
  114 Torsion                  5     7     9    10          42.15892
  115 Torsion                  5     7     9    11         157.86198
  116 Torsion                  5     7     9    15         -75.31296
  117 Torsion                  6     5     7     8        -178.43946
  118 Torsion                  6     5     7     9           3.35118
  119 Torsion                  7     9    11    12         -55.49541
  120 Torsion                  7     9    11    13          65.42464
  121 Torsion                  7     9    11    14        -174.96143
  122 Torsion                  7     9    15    16        -132.51228
  123 Torsion                  7     9    15    17          46.46573
  124 Torsion                  8     7     9    10        -136.06005
  125 Torsion                  8     7     9    11         -20.35699
  126 Torsion                  8     7     9    15         106.46807
  127 Torsion                  9    15    17    18           2.68224
  128 Torsion                  9    15    17    19        -174.58820
  129 Torsion                 10     9    11    12          60.28442
  130 Torsion                 10     9    11    13        -178.79553
  131 Torsion                 10     9    11    14         -59.18160
  132 Torsion                 10     9    15    16         109.21721
  133 Torsion                 10     9    15    17         -71.80477
  134 Torsion                 11     9    15    16          -8.56410
  135 Torsion                 11     9    15    17         170.41392
  136 Torsion                 12    11     9    15         177.32267
  137 Torsion                 13    11     9    15         -61.75727
  138 Torsion                 14    11     9    15          57.85666
  139 Torsion                 15    17    19    20          41.61258
  140 Torsion                 15    17    19    21         157.74077
  141 Torsion                 15    17    19    35         -75.40886
  142 Torsion                 16    15    17    18        -178.34257
  143 Torsion                 16    15    17    19           4.38699
  144 Torsion                 17    19    21    22          69.74083
  145 Torsion                 17    19    21    23        -173.70822
  146 Torsion                 17    19    21    24         -52.75479
  147 Torsion                 17    19    35    36        -139.68388
  148 Torsion                 17    19    35    37          39.08155
  149 Torsion                 18    17    19    20        -135.64834
  150 Torsion                 18    17    19    21         -19.52015
  151 Torsion                 18    17    19    35         107.33022
  152 Torsion                 19    21    24    25         -66.04177
  153 Torsion                 19    21    24    33         114.41499
  154 Torsion                 19    35    37    38        -179.60677
  155 Torsion                 19    35    37    39           5.05429
  156 Torsion                 20    19    21    22        -174.20199
  157 Torsion                 20    19    21    23         -57.65104
  158 Torsion                 20    19    21    24          63.30238
  159 Torsion                 20    19    35    36         102.36459
  160 Torsion                 20    19    35    37         -78.86998
  161 Torsion                 21    19    35    36         -14.70384
  162 Torsion                 21    19    35    37         164.06160
  163 Torsion                 21    24    25    26           0.02174
  164 Torsion                 21    24    25    27        -179.68934
  165 Torsion                 21    24    33    31         179.17801
  166 Torsion                 21    24    33    34          -0.62575
  167 Torsion                 22    21    19    35         -58.17161
  168 Torsion                 22    21    24    25         171.76958
  169 Torsion                 22    21    24    33          -7.77366
  170 Torsion                 23    21    19    35          58.37934
  171 Torsion                 23    21    24    25          55.38502
  172 Torsion                 23    21    24    33        -124.15822
  173 Torsion                 24    21    19    35         179.33277
  174 Torsion                 24    25    27    28         179.74470
  175 Torsion                 24    25    27    29           0.45500
  176 Torsion                 24    33    31    29           0.56702
  177 Torsion                 24    33    31    32        -179.24477
  178 Torsion                 25    24    33    31          -0.36775
  179 Torsion                 25    24    33    34         179.82850
  180 Torsion                 25    27    29    30         179.26037
  181 Torsion                 25    27    29    31          -0.25616
  182 Torsion                 26    25    24    33         179.56849
  183 Torsion                 26    25    27    28           0.03323
  184 Torsion                 26    25    27    29        -179.25647
  185 Torsion                 27    25    24    33          -0.14258
  186 Torsion                 27    29    31    32         179.55763
  187 Torsion                 27    29    31    33          -0.25367
  188 Torsion                 28    27    29    30          -0.02897
  189 Torsion                 28    27    29    31        -179.54550
  190 Torsion                 29    31    33    34        -179.62852
  191 Torsion                 30    29    31    32           0.04125
  192 Torsion                 30    29    31    33        -179.77005
  193 Torsion                 32    31    33    34           0.55970
  194 Torsion                 36    35    37    38          -0.81555
  195 Torsion                 36    35    37    39        -176.15449


            XYZ format geometry
            -------------------
    39
 geometry
 H                    -3.23965191     3.03679379     0.87296247
 C                    -2.18182746     2.78137217     0.88604795
 H                    -1.71113274     3.22336759     1.76341762
 H                    -1.69689485     3.15397569    -0.01377147
 C                    -2.02827883     1.28094024     0.95175059
 O                    -1.45748188     0.75819021     1.90069382
 N                    -2.53574911     0.58543373    -0.06257411
 H                    -2.96732252     1.09928204    -0.81265164
 C                    -2.55055524    -0.87963092    -0.16000280
 H                    -2.81975395    -1.27302763     0.82222736
 C                    -3.66655276    -1.27698514    -1.13783363
 H                    -4.61709181    -0.85122606    -0.81476441
 H                    -3.42868911    -0.92154414    -2.14159236
 H                    -3.76233014    -2.36349877    -1.16377259
 C                    -1.17492124    -1.50092471    -0.51269410
 O                    -1.07366267    -2.35379049    -1.39337659
 N                    -0.10268640    -1.06549939     0.15528287
 H                    -0.26615363    -0.38025704     0.88535505
 C                     1.29495487    -1.44621236    -0.10878253
 H                     1.42948066    -1.46172243    -1.19030749
 C                     2.22436925    -0.35791889     0.45752590
 H                     2.18164003    -0.39663024     1.54669468
 H                     3.25037587    -0.58511156     0.16309268
 C                     1.90868650     1.05573221    -0.00405503
 C                     2.06836233     1.40910883    -1.35784290
 H                     2.41550569     0.67419717    -2.06985858
 C                     1.78329087     2.71804415    -1.78656729
 H                     1.91143558     2.98560715    -2.82643986
 C                     1.34651773     3.68162780    -0.86161823
 H                     1.13892289     4.69072048    -1.18908173
 C                     1.18974619     3.33432565     0.49135365
 H                     0.86088870     4.07503300     1.20620425
 C                     1.46432458     2.02284056     0.91889727
 H                     1.33611657     1.76033421     1.95942268
 C                     1.67469888    -2.86427926     0.38249108
 O                     2.75563146    -3.09142893     0.91255597
 N                     0.79523353    -3.84655561     0.24518902
 H                     1.04479350    -4.76378349     0.57131605
 H                    -0.07051431    -3.66816911    -0.24474252

 ==============================================================================
                                internuclear distances
 ------------------------------------------------------------------------------
       center one      |      center two      | atomic units |  angstroms
 ------------------------------------------------------------------------------
    2 C                |   1 H                |     2.05659  |     1.08830
    3 H                |   2 C                |     2.05858  |     1.08935
    4 H                |   2 C                |     2.05596  |     1.08797
    5 C                |   2 C                |     2.85292  |     1.50970
    6 O                |   5 C                |     2.31410  |     1.22457
    7 N                |   5 C                |     2.51420  |     1.33045
    8 H                |   7 N                |     1.90189  |     1.00644
    9 C                |   7 N                |     2.77483  |     1.46838
   10 H                |   9 C                |     2.06318  |     1.09179
   11 C                |   9 C                |     2.90274  |     1.53606
   12 H                |  11 C                |     2.06073  |     1.09049
   13 H                |  11 C                |     2.06184  |     1.09108
   14 H                |  11 C                |     2.06176  |     1.09104
   15 C                |   9 C                |     2.92924  |     1.55009
   16 O                |  15 C                |     2.32462  |     1.23014
   17 N                |  15 C                |     2.52508  |     1.33622
   18 H                |  17 N                |     1.91720  |     1.01454
   19 C                |  17 N                |     2.78250  |     1.47244
   20 H                |  19 C                |     2.05974  |     1.08997
   21 C                |  19 C                |     2.90852  |     1.53912
   22 H                |  21 C                |     2.06111  |     1.09069
   23 H                |  21 C                |     2.06231  |     1.09133
   24 C                |  21 C                |     2.87283  |     1.52024
   25 C                |  24 C                |     2.66117  |     1.40823
   26 H                |  25 C                |     2.04193  |     1.08054
   27 C                |  25 C                |     2.65799  |     1.40655
   28 H                |  27 C                |     2.04348  |     1.08136
   29 C                |  27 C                |     2.65558  |     1.40527
   30 H                |  29 C                |     2.04282  |     1.08102
   31 C                |  29 C                |     2.65621  |     1.40561
   32 H                |  31 C                |     2.04213  |     1.08065
   33 C                |  24 C                |     2.66217  |     1.40876
   33 C                |  31 C                |     2.65786  |     1.40648
   34 H                |  33 C                |     2.04234  |     1.08076
   35 C                |  19 C                |     2.92540  |     1.54805
   36 O                |  35 C                |     2.31519  |     1.22515
   37 N                |  35 C                |     2.50499  |     1.32559
   38 H                |  37 N                |     1.89910  |     1.00496
   39 H                |  37 N                |     1.90981  |     1.01063
 ------------------------------------------------------------------------------
                         number of included internuclear distances:         39
 ==============================================================================



 ==============================================================================
                                 internuclear angles
 ------------------------------------------------------------------------------
        center 1       |       center 2       |       center 3       |  degrees
 ------------------------------------------------------------------------------
    1 H                |   2 C                |   3 H                |   109.54
    1 H                |   2 C                |   4 H                |   110.05
    1 H                |   2 C                |   5 C                |   109.43
    3 H                |   2 C                |   4 H                |   109.55
    3 H                |   2 C                |   5 C                |   108.92
    4 H                |   2 C                |   5 C                |   109.33
    2 C                |   5 C                |   6 O                |   120.36
    2 C                |   5 C                |   7 N                |   116.59
    6 O                |   5 C                |   7 N                |   123.05
    5 C                |   7 N                |   8 H                |   117.70
    5 C                |   7 N                |   9 C                |   125.17
    8 H                |   7 N                |   9 C                |   117.11
    7 N                |   9 C                |  10 H                |   107.60
    7 N                |   9 C                |  11 C                |   107.92
    7 N                |   9 C                |  15 C                |   113.96
   10 H                |   9 C                |  11 C                |   107.48
   10 H                |   9 C                |  15 C                |   106.21
   11 C                |   9 C                |  15 C                |   113.34
    9 C                |  11 C                |  12 H                |   110.10
    9 C                |  11 C                |  13 H                |   110.06
    9 C                |  11 C                |  14 H                |   109.67
   12 H                |  11 C                |  13 H                |   109.60
   12 H                |  11 C                |  14 H                |   108.62
   13 H                |  11 C                |  14 H                |   108.76
    9 C                |  15 C                |  16 O                |   120.92
    9 C                |  15 C                |  17 N                |   117.89
   16 O                |  15 C                |  17 N                |   121.18
   15 C                |  17 N                |  18 H                |   116.78
   15 C                |  17 N                |  19 C                |   126.00
   18 H                |  17 N                |  19 C                |   117.17
   17 N                |  19 C                |  20 H                |   107.38
   17 N                |  19 C                |  21 C                |   108.93
   17 N                |  19 C                |  35 C                |   114.38
   20 H                |  19 C                |  21 C                |   107.50
   20 H                |  19 C                |  35 C                |   105.76
   21 C                |  19 C                |  35 C                |   112.51
   19 C                |  21 C                |  22 H                |   108.58
   19 C                |  21 C                |  23 H                |   108.74
   19 C                |  21 C                |  24 C                |   114.86
   22 H                |  21 C                |  23 H                |   107.39
   22 H                |  21 C                |  24 C                |   109.15
   23 H                |  21 C                |  24 C                |   107.87
   21 C                |  24 C                |  25 C                |   120.11
   21 C                |  24 C                |  33 C                |   120.33
   25 C                |  24 C                |  33 C                |   119.56
   24 C                |  25 C                |  26 H                |   119.95
   24 C                |  25 C                |  27 C                |   120.24
   26 H                |  25 C                |  27 C                |   119.81
   25 C                |  27 C                |  28 H                |   119.96
   25 C                |  27 C                |  29 C                |   120.03
   28 H                |  27 C                |  29 C                |   120.01
   27 C                |  29 C                |  30 H                |   120.02
   27 C                |  29 C                |  31 C                |   119.92
   30 H                |  29 C                |  31 C                |   120.05
   29 C                |  31 C                |  32 H                |   120.09
   29 C                |  31 C                |  33 C                |   120.08
   32 H                |  31 C                |  33 C                |   119.83
   24 C                |  33 C                |  31 C                |   120.17
   24 C                |  33 C                |  34 H                |   120.10
   31 C                |  33 C                |  34 H                |   119.74
   19 C                |  35 C                |  36 O                |   121.57
   19 C                |  35 C                |  37 N                |   118.89
   36 O                |  35 C                |  37 N                |   119.52
   35 C                |  37 N                |  38 H                |   118.55
   35 C                |  37 N                |  39 H                |   119.19
   38 H                |  37 N                |  39 H                |   122.08
 ------------------------------------------------------------------------------
                            number of included internuclear angles:         66
 ==============================================================================



  library name resolved from: environment
  library file name is: </opt/rit/el9/20230413/app/linux-rhel9-x86_64_v3/gcc-11.2.1/nwchem-7.2.0-oxtctbuhfuzyfaoziquq6bki22grib3g/share/nwchem/libraries/>
  


 Summary of "ao basis" -> "" (cartesian)
 ------------------------------------------------------------------------------
       Tag                 Description            Shells   Functions and Types
 ---------------- ------------------------------  ------  ---------------------
 *                        aug-cc-pvdz                 on all atoms 


                      Basis "ao basis" -> "ao basis" (cartesian)
                      -----
  H (Hydrogen)
  ------------
            Exponent  Coefficients 
       -------------- ---------------------------------------------------------
  1 S  1.30100000E+01  0.019685
  1 S  1.96200000E+00  0.137977
  1 S  4.44600000E-01  0.478148

  2 S  1.22000000E-01  1.000000

  3 S  2.97400000E-02  1.000000

  4 P  7.27000000E-01  1.000000

  5 P  1.41000000E-01  1.000000

  C (Carbon)
  ----------
            Exponent  Coefficients 
       -------------- ---------------------------------------------------------
  1 S  6.66500000E+03  0.000692
  1 S  1.00000000E+03  0.005329
  1 S  2.28000000E+02  0.027077
  1 S  6.47100000E+01  0.101718
  1 S  2.10600000E+01  0.274740
  1 S  7.49500000E+00  0.448564
  1 S  2.79700000E+00  0.285074
  1 S  5.21500000E-01  0.015204

  2 S  6.66500000E+03 -0.000146
  2 S  1.00000000E+03 -0.001154
  2 S  2.28000000E+02 -0.005725
  2 S  6.47100000E+01 -0.023312
  2 S  2.10600000E+01 -0.063955
  2 S  7.49500000E+00 -0.149981
  2 S  2.79700000E+00 -0.127262
  2 S  5.21500000E-01  0.544529

  3 S  1.59600000E-01  1.000000

  4 S  4.69000000E-02  1.000000

  5 P  9.43900000E+00  0.038109
  5 P  2.00200000E+00  0.209480
  5 P  5.45600000E-01  0.508557

  6 P  1.51700000E-01  1.000000

  7 P  4.04100000E-02  1.000000

  8 D  5.50000000E-01  1.000000

  9 D  1.51000000E-01  1.000000

  O (Oxygen)
  ----------
            Exponent  Coefficients 
       -------------- ---------------------------------------------------------
  1 S  1.17200000E+04  0.000710
  1 S  1.75900000E+03  0.005470
  1 S  4.00800000E+02  0.027837
  1 S  1.13700000E+02  0.104800
  1 S  3.70300000E+01  0.283062
  1 S  1.32700000E+01  0.448719
  1 S  5.02500000E+00  0.270952
  1 S  1.01300000E+00  0.015458

  2 S  1.17200000E+04 -0.000160
  2 S  1.75900000E+03 -0.001263
  2 S  4.00800000E+02 -0.006267
  2 S  1.13700000E+02 -0.025716
  2 S  3.70300000E+01 -0.070924
  2 S  1.32700000E+01 -0.165411
  2 S  5.02500000E+00 -0.116955
  2 S  1.01300000E+00  0.557368

  3 S  3.02300000E-01  1.000000

  4 S  7.89600000E-02  1.000000

  5 P  1.77000000E+01  0.043018
  5 P  3.85400000E+00  0.228913
  5 P  1.04600000E+00  0.508728

  6 P  2.75300000E-01  1.000000

  7 P  6.85600000E-02  1.000000

  8 D  1.18500000E+00  1.000000

  9 D  3.32000000E-01  1.000000

  N (Nitrogen)
  ------------
            Exponent  Coefficients 
       -------------- ---------------------------------------------------------
  1 S  9.04600000E+03  0.000700
  1 S  1.35700000E+03  0.005389
  1 S  3.09300000E+02  0.027406
  1 S  8.77300000E+01  0.103207
  1 S  2.85600000E+01  0.278723
  1 S  1.02100000E+01  0.448540
  1 S  3.83800000E+00  0.278238
  1 S  7.46600000E-01  0.015440

  2 S  9.04600000E+03 -0.000153
  2 S  1.35700000E+03 -0.001208
  2 S  3.09300000E+02 -0.005992
  2 S  8.77300000E+01 -0.024544
  2 S  2.85600000E+01 -0.067459
  2 S  1.02100000E+01 -0.158078
  2 S  3.83800000E+00 -0.121831
  2 S  7.46600000E-01  0.549003

  3 S  2.24800000E-01  1.000000

  4 S  6.12400000E-02  1.000000

  5 P  1.35500000E+01  0.039919
  5 P  2.91700000E+00  0.217169
  5 P  7.97300000E-01  0.510319

  6 P  2.18500000E-01  1.000000

  7 P  5.61100000E-02  1.000000

  8 D  8.17000000E-01  1.000000

  9 D  2.30000000E-01  1.000000



 Summary of "ao basis" -> "ao basis" (cartesian)
 ------------------------------------------------------------------------------
       Tag                 Description            Shells   Functions and Types
 ---------------- ------------------------------  ------  ---------------------
 H                        aug-cc-pvdz                5        9   3s2p
 C                        aug-cc-pvdz                9       25   4s3p2d
 O                        aug-cc-pvdz                9       25   4s3p2d
 N                        aug-cc-pvdz                9       25   4s3p2d


                                 NWChem SCF Module
                                 -----------------



  ao basis        = "ao basis"
  functions       =   671
  atoms           =    39
  closed shells   =    74
  open shells     =     0
  charge          =   0.00
  wavefunction    = RHF 
  input vectors   = atomic
  output vectors  = ./ALA_PHE_0.movecs
  use symmetry    = F
  symmetry adapt  = F


 Summary of "ao basis" -> "ao basis" (cartesian)
 ------------------------------------------------------------------------------
       Tag                 Description            Shells   Functions and Types
 ---------------- ------------------------------  ------  ---------------------
 H                        aug-cc-pvdz                5        9   3s2p
 C                        aug-cc-pvdz                9       25   4s3p2d
 O                        aug-cc-pvdz                9       25   4s3p2d
 N                        aug-cc-pvdz                9       25   4s3p2d



 Forming initial guess at       2.1s


 !! The overlap matrix has  12 vectors deemed linearly dependent with
    eigenvalues:
 1.23D-06 1.77D-06 1.86D-06 2.64D-06 2.97D-06 4.09D-06 4.58D-06 5.07D-06
 7.05D-06 7.29D-06 7.60D-06 8.59D-06


      Superposition of Atomic Density Guess
      -------------------------------------

 Sum of atomic energies:        -924.03424378

      Non-variational initial energy
      ------------------------------

 Total energy =    -937.512467
 1-e energy   =   -4484.337376
 2-e energy   =    1920.998804
 HOMO         =      -0.291070
 LUMO         =      -0.025336


 Starting SCF solution at     479.5s



 ----------------------------------------------
         Quadratically convergent ROHF

 Convergence threshold     :          1.000E-04
 Maximum no. of iterations :           30
 Final Fock-matrix accuracy:          1.000E-10
 ----------------------------------------------


              iter       energy          gnorm     gmax       time
             ----- ------------------- --------- --------- --------
                 1     -928.9396970435  2.47D+00  1.18D-01    940.5
                 2     -929.2762756250  9.01D-01  4.27D-02   1914.8
                 3     -929.3459515125  6.29D-02  3.62D-03   3316.8
                 4     -929.3465385500  2.00D-03  1.05D-04   5523.2
                 5     -929.3465390969  5.77D-06  9.75D-07   7892.3


       Final RHF  results 
       ------------------ 

         Total SCF energy =   -929.346539096900
      One-electron energy =  -4498.715290511023
      Two-electron energy =   1943.542646397733
 Nuclear repulsion energy =   1625.826105016390

        Time for solution =   7423.7s


             Final eigenvalues
             -----------------

              1      
    1  -20.5451
    2  -20.5403
    3  -20.5129
    4  -15.6198
    5  -15.5968
    6  -15.5746
    7  -11.3747
    8  -11.3697
    9  -11.3475
   10  -11.3131
   11  -11.2976
   12  -11.2580
   13  -11.2540
   14  -11.2531
   15  -11.2522
   16  -11.2503
   17  -11.2495
   18  -11.2483
   19  -11.2465
   20  -11.2441
   21   -1.4118
   22   -1.3994
   23   -1.3746
   24   -1.2685
   25   -1.2452
   26   -1.2031
   27   -1.1570
   28   -1.0806
   29   -1.0641
   30   -1.0195
   31   -1.0061
   32   -1.0038
   33   -0.9157
   34   -0.8906
   35   -0.8353
   36   -0.8295
   37   -0.8102
   38   -0.7996
   39   -0.7782
   40   -0.7369
   41   -0.7297
   42   -0.7025
   43   -0.7000
   44   -0.6884
   45   -0.6713
   46   -0.6642
   47   -0.6393
   48   -0.6334
   49   -0.6280
   50   -0.6103
   51   -0.6019
   52   -0.5940
   53   -0.5923
   54   -0.5854
   55   -0.5760
   56   -0.5690
   57   -0.5599
   58   -0.5517
   59   -0.5481
   60   -0.5445
   61   -0.5411
   62   -0.5233
   63   -0.5127
   64   -0.4935
   65   -0.4894
   66   -0.4871
   67   -0.4590
   68   -0.4420
   69   -0.4351
   70   -0.4091
   71   -0.3966
   72   -0.3868
   73   -0.3399
   74   -0.3320
   75    0.0221
   76    0.0329
   77    0.0363
   78    0.0405
   79    0.0480
   80    0.0503
   81    0.0511
   82    0.0584
   83    0.0605
   84    0.0668

                       ROHF Final Molecular Orbital Analysis
                       -------------------------------------

 Vector   21  Occ=2.000000D+00  E=-1.411818D+00
              MO Center= -1.6D+00,  5.1D-01,  1.1D+00, r^2= 2.5D+00
   Bfn.  Coefficient  Atom+Function         Bfn.  Coefficient  Atom+Function  
  ----- ------------  ---------------      ----- ------------  ---------------
    80      0.332120   6 O  s                79      0.323134   6 O  s         
    54      0.227918   5 C  s                12      0.187081   2 C  s         

 Vector   22  Occ=2.000000D+00  E=-1.399436D+00
              MO Center= -1.0D+00, -1.6D+00, -6.2D-01, r^2= 2.9D+00
   Bfn.  Coefficient  Atom+Function         Bfn.  Coefficient  Atom+Function  
  ----- ------------  ---------------      ----- ------------  ---------------
   250      0.350122  16 O  s               249      0.329163  16 O  s         
   224      0.221335  15 C  s         

 Vector   23  Occ=2.000000D+00  E=-1.374650D+00
              MO Center=  2.2D+00, -3.1D+00,  6.4D-01, r^2= 1.2D+00
   Bfn.  Coefficient  Atom+Function         Bfn.  Coefficient  Atom+Function  
  ----- ------------  ---------------      ----- ------------  ---------------
   606      0.372614  36 O  s               605      0.349405  36 O  s         
   580      0.243385  35 C  s         

 Vector   24  Occ=2.000000D+00  E=-1.268466D+00
              MO Center= -2.3D+00,  4.1D-01,  2.1D-01, r^2= 2.0D+00
   Bfn.  Coefficient  Atom+Function         Bfn.  Coefficient  Atom+Function  
  ----- ------------  ---------------      ----- ------------  ---------------
   105      0.391402   7 N  s               104      0.335800   7 N  s         
    80     -0.221387   6 O  s                79     -0.182142   6 O  s         
    59     -0.169529   5 C  pz              128      0.154638   8 H  s         

 Vector   25  Occ=2.000000D+00  E=-1.245226D+00
              MO Center= -1.5D-01, -1.2D+00, -4.0D-02, r^2= 2.4D+00
   Bfn.  Coefficient  Atom+Function         Bfn.  Coefficient  Atom+Function  
  ----- ------------  ---------------      ----- ------------  ---------------
   275      0.390080  17 N  s               274      0.332914  17 N  s         
   250     -0.202031  16 O  s               309     -0.168573  19 C  s         
   249     -0.158758  16 O  s         

 Vector   26  Occ=2.000000D+00  E=-1.203069D+00
              MO Center=  1.1D+00, -3.5D+00,  3.1D-01, r^2= 1.6D+00
   Bfn.  Coefficient  Atom+Function         Bfn.  Coefficient  Atom+Function  
  ----- ------------  ---------------      ----- ------------  ---------------
   631      0.393767  37 N  s               630      0.367719  37 N  s         
   606     -0.209888  36 O  s               583     -0.184100  35 C  px        
   605     -0.174465  36 O  s               663      0.164589  39 H  s         
   654      0.157997  38 H  s         

 Vector   27  Occ=2.000000D+00  E=-1.156954D+00
              MO Center=  1.6D+00,  2.1D+00, -3.6D-01, r^2= 2.7D+00
   Bfn.  Coefficient  Atom+Function         Bfn.  Coefficient  Atom+Function  
  ----- ------------  ---------------      ----- ------------  ---------------
   385      0.198627  24 C  s               410      0.174628  25 C  s         
   546      0.173048  33 C  s               444      0.161445  27 C  s         
   512      0.161220  31 C  s               478      0.157887  29 C  s         

 Vector   28  Occ=2.000000D+00  E=-1.080560D+00
              MO Center= -7.5D-01, -1.6D-02, -1.1D-01, r^2= 8.6D+00
   Bfn.  Coefficient  Atom+Function         Bfn.  Coefficient  Atom+Function  
  ----- ------------  ---------------      ----- ------------  ---------------
   138      0.191203   9 C  s               342     -0.152102  21 C  s         

 Vector   29  Occ=2.000000D+00  E=-1.064121D+00
              MO Center= -3.0D-01,  5.2D-01, -1.2D-01, r^2= 9.7D+00
   Bfn.  Coefficient  Atom+Function         Bfn.  Coefficient  Atom+Function  
  ----- ------------  ---------------      ----- ------------  ---------------
   342      0.175066  21 C  s               138      0.155881   9 C  s         
   144     -0.154195   9 C  px        

 Vector   30  Occ=2.000000D+00  E=-1.019511D+00
              MO Center=  1.6D+00,  2.3D+00, -4.2D-01, r^2= 3.2D+00
   Bfn.  Coefficient  Atom+Function         Bfn.  Coefficient  Atom+Function  
  ----- ------------  ---------------      ----- ------------  ---------------
   548      0.226906  33 C  s               444      0.220268  27 C  s         
   546     -0.220182  33 C  s               514      0.210712  31 C  s         
   446     -0.209022  27 C  s               410      0.203028  25 C  s         
   512     -0.201881  31 C  s               412     -0.185400  25 C  s         
   537     -0.152689  32 H  s               469      0.151315  28 H  s         

 Vector   31  Occ=2.000000D+00  E=-1.006082D+00
              MO Center= -1.3D+00,  1.6D+00,  3.4D-01, r^2= 7.8D+00
   Bfn.  Coefficient  Atom+Function         Bfn.  Coefficient  Atom+Function  
  ----- ------------  ---------------      ----- ------------  ---------------
    11      0.283157   2 C  s                58      0.153353   5 C  py        

 Vector   32  Occ=2.000000D+00  E=-1.003836D+00
              MO Center=  4.3D-03,  5.6D-01, -1.8D-01, r^2= 1.0D+01
   Bfn.  Coefficient  Atom+Function         Bfn.  Coefficient  Atom+Function  
  ----- ------------  ---------------      ----- ------------  ---------------
   308      0.185084  19 C  s               480     -0.174806  29 C  s         
   144     -0.165913   9 C  px              172      0.150704  11 C  s         
   478      0.150109  29 C  s         

 Vector   33  Occ=2.000000D+00  E=-9.156739D-01
              MO Center= -3.9D-01, -2.3D-01, -2.7D-01, r^2= 1.0D+01
   Bfn.  Coefficient  Atom+Function         Bfn.  Coefficient  Atom+Function  
  ----- ------------  ---------------      ----- ------------  ---------------
   139      0.290822   9 C  s               144      0.247347   9 C  px        
   480     -0.211076  29 C  s               225     -0.204180  15 C  s         
   342      0.199010  21 C  s               548      0.193885  33 C  s         
   172     -0.182564  11 C  s               315      0.178824  19 C  py        
   349      0.157472  21 C  py        

 Vector   34  Occ=2.000000D+00  E=-8.906246D-01
              MO Center= -4.3D-01, -7.8D-01, -2.3D-01, r^2= 1.0D+01
   Bfn.  Coefficient  Atom+Function         Bfn.  Coefficient  Atom+Function  
  ----- ------------  ---------------      ----- ------------  ---------------
   315      0.222794  19 C  py              309     -0.196278  19 C  s         
   139     -0.190902   9 C  s               172      0.169961  11 C  s         
   480     -0.163587  29 C  s         

 Vector   35  Occ=2.000000D+00  E=-8.352666D-01
              MO Center=  1.5D+00,  2.2D+00, -3.9D-01, r^2= 4.4D+00
   Bfn.  Coefficient  Atom+Function         Bfn.  Coefficient  Atom+Function  
  ----- ------------  ---------------      ----- ------------  ---------------
   514      0.392927  31 C  s               446     -0.344942  27 C  s         
   582     -0.316100  35 C  s               445      0.248587  27 C  s         
   412      0.242243  25 C  s               513     -0.228136  31 C  s         
   435     -0.219576  26 H  s               548     -0.199971  33 C  s         
   390      0.189283  24 C  pz              571      0.187014  34 H  s         

 Vector   36  Occ=2.000000D+00  E=-8.294512D-01
              MO Center= -1.9D+00,  3.0D-01,  1.5D-01, r^2= 5.4D+00
   Bfn.  Coefficient  Atom+Function         Bfn.  Coefficient  Atom+Function  
  ----- ------------  ---------------      ----- ------------  ---------------
   109      0.268385   7 N  pz              139      0.226431   9 C  s         
   128     -0.210322   8 H  s                54      0.204805   5 C  s         
    80     -0.163218   6 O  s               309      0.159955  19 C  s         

 Vector   37  Occ=2.000000D+00  E=-8.101677D-01
              MO Center=  3.4D-01, -2.8D-02, -1.1D-01, r^2= 1.0D+01
   Bfn.  Coefficient  Atom+Function         Bfn.  Coefficient  Atom+Function  
  ----- ------------  ---------------      ----- ------------  ---------------
   480      0.406312  29 C  s               387      0.285304  24 C  s         
   514     -0.222146  31 C  s               446     -0.216787  27 C  s         
   309     -0.202291  19 C  s               412     -0.176611  25 C  s         
   503     -0.155088  30 H  s               548     -0.155634  33 C  s         

 Vector   38  Occ=2.000000D+00  E=-7.996039D-01
              MO Center=  3.4D-01,  5.6D-01, -1.8D-01, r^2= 8.4D+00
   Bfn.  Coefficient  Atom+Function         Bfn.  Coefficient  Atom+Function  
  ----- ------------  ---------------      ----- ------------  ---------------
   480      0.350151  29 C  s               412     -0.278794  25 C  s         
   387      0.250647  24 C  s               446     -0.242972  27 C  s         
   514     -0.220517  31 C  s               582      0.212241  35 C  s         
   309      0.174197  19 C  s               230      0.156567  15 C  px        
   277     -0.153564  17 N  px              144      0.152423   9 C  px        

 Vector   39  Occ=2.000000D+00  E=-7.781608D-01
              MO Center=  7.7D-01, -2.1D+00,  1.6D-01, r^2= 5.8D+00
   Bfn.  Coefficient  Atom+Function         Bfn.  Coefficient  Atom+Function  
  ----- ------------  ---------------      ----- ------------  ---------------
   225      0.230800  15 C  s               298     -0.196045  18 H  s         
   633     -0.195102  37 N  px              634     -0.194003  37 N  py        
   315      0.184156  19 C  py              480     -0.182298  29 C  s         
   580     -0.181941  35 C  s               279     -0.176948  17 N  pz        
   387     -0.170494  24 C  s               587      0.167516  35 C  py        

 Vector   40  Occ=2.000000D+00  E=-7.369061D-01
              MO Center= -7.7D-01, -1.5D+00, -1.6D-01, r^2= 7.5D+00
   Bfn.  Coefficient  Atom+Function         Bfn.  Coefficient  Atom+Function  
  ----- ------------  ---------------      ----- ------------  ---------------
   144      0.219434   9 C  px              145     -0.207530   9 C  py        
   225     -0.204913  15 C  s               227     -0.200688  15 C  px        
   139      0.173034   9 C  s               654      0.171362  38 H  s         

 Vector   41  Occ=2.000000D+00  E=-7.297455D-01
              MO Center=  1.5D-01, -1.9D+00,  9.8D-02, r^2= 7.2D+00
   Bfn.  Coefficient  Atom+Function         Bfn.  Coefficient  Atom+Function  
  ----- ------------  ---------------      ----- ------------  ---------------
   225      0.347607  15 C  s               633      0.257794  37 N  px        
   139     -0.248575   9 C  s               663     -0.243436  39 H  s         
   144     -0.213204   9 C  px              584     -0.198734  35 C  py        
   145      0.195409   9 C  py              314     -0.166029  19 C  px        
   581      0.154511  35 C  s               279     -0.150395  17 N  pz        

 Vector   42  Occ=2.000000D+00  E=-7.024564D-01
              MO Center= -6.2D-01,  6.8D-01,  2.2D-01, r^2= 1.1D+01
   Bfn.  Coefficient  Atom+Function         Bfn.  Coefficient  Atom+Function  
  ----- ------------  ---------------      ----- ------------  ---------------
    18      0.188212   2 C  py               15      0.164952   2 C  py        
    83     -0.165072   6 O  py               56      0.162162   5 C  s         
   314      0.154510  19 C  px               58     -0.150335   5 C  py        
   106     -0.150865   7 N  s         

 Vector   43  Occ=2.000000D+00  E=-6.999953D-01
              MO Center=  6.0D-01,  1.7D+00, -1.2D-01, r^2= 8.9D+00
   Bfn.  Coefficient  Atom+Function         Bfn.  Coefficient  Atom+Function  
  ----- ------------  ---------------      ----- ------------  ---------------
   446      0.188984  27 C  s               502     -0.181093  30 H  s         
   482     -0.176622  29 C  py              317     -0.150156  19 C  px        

 Vector   44  Occ=2.000000D+00  E=-6.883685D-01
              MO Center= -2.0D+00,  2.6D-02,  6.0D-01, r^2= 4.7D+00
   Bfn.  Coefficient  Atom+Function         Bfn.  Coefficient  Atom+Function  
  ----- ------------  ---------------      ----- ------------  ---------------
    80      0.217077   6 O  s                84      0.202424   6 O  pz        
   108      0.185374   7 N  py               12     -0.180871   2 C  s         
    83     -0.179742   6 O  py              162      0.177867  10 H  s         
   142     -0.172473   9 C  py              144     -0.167877   9 C  px        
   145     -0.163853   9 C  py               57     -0.155798   5 C  px        

 Vector   45  Occ=2.000000D+00  E=-6.712874D-01
              MO Center=  9.0D-02, -1.3D+00, -4.1D-02, r^2= 9.5D+00
   Bfn.  Coefficient  Atom+Function         Bfn.  Coefficient  Atom+Function  
  ----- ------------  ---------------      ----- ------------  ---------------
   314      0.217580  19 C  px              250      0.183693  16 O  s         
   277     -0.180061  17 N  px              634     -0.171940  37 N  py        
   253     -0.153004  16 O  py              654      0.152582  38 H  s         

 Vector   46  Occ=2.000000D+00  E=-6.642269D-01
              MO Center=  1.0D+00, -9.1D-01, -1.1D-01, r^2= 9.5D+00
   Bfn.  Coefficient  Atom+Function         Bfn.  Coefficient  Atom+Function  
  ----- ------------  ---------------      ----- ------------  ---------------
   313      0.190167  19 C  pz              387     -0.185613  24 C  s         
   480     -0.164687  29 C  s               634     -0.164399  37 N  py        
   584      0.160524  35 C  py              332     -0.154321  20 H  s         
   225      0.152520  15 C  s               446      0.150958  27 C  s         

 Vector   47  Occ=2.000000D+00  E=-6.393125D-01
              MO Center=  1.6D+00,  1.5D+00, -2.7D-01, r^2= 9.1D+00
   Bfn.  Coefficient  Atom+Function         Bfn.  Coefficient  Atom+Function  
  ----- ------------  ---------------      ----- ------------  ---------------
   387      0.255542  24 C  s               537      0.250322  32 H  s         
   479     -0.238881  29 C  s               536      0.223672  32 H  s         
   468      0.215923  28 H  s               469      0.205370  28 H  s         
   446     -0.195353  27 C  s               514     -0.192889  31 C  s         
   418      0.184865  25 C  pz              449     -0.182276  27 C  pz        

 Vector   48  Occ=2.000000D+00  E=-6.334435D-01
              MO Center= -3.4D-01,  1.4D+00,  1.2D-01, r^2= 8.7D+00
   Bfn.  Coefficient  Atom+Function         Bfn.  Coefficient  Atom+Function  
  ----- ------------  ---------------      ----- ------------  ---------------
   139      0.279431   9 C  s                14      0.171697   2 C  px        
   309      0.162399  19 C  s               448     -0.160649  27 C  py        
   550     -0.159284  33 C  py                1     -0.152731   1 H  s         
   483      0.151080  29 C  pz        

 Vector   49  Occ=2.000000D+00  E=-6.279623D-01
              MO Center= -6.4D-01,  1.4D+00,  1.2D-01, r^2= 9.0D+00
   Bfn.  Coefficient  Atom+Function         Bfn.  Coefficient  Atom+Function  
  ----- ------------  ---------------      ----- ------------  ---------------
    14      0.211594   2 C  px                1     -0.173345   1 H  s         
    44      0.160057   4 H  s               390     -0.151216  24 C  pz        

 Vector   50  Occ=2.000000D+00  E=-6.102887D-01
              MO Center= -7.3D-01, -1.2D+00, -5.1D-01, r^2= 7.7D+00
   Bfn.  Coefficient  Atom+Function         Bfn.  Coefficient  Atom+Function  
  ----- ------------  ---------------      ----- ------------  ---------------
   254      0.217519  16 O  pz              253      0.205574  16 O  py        
   278      0.174813  17 N  py              298      0.170588  18 H  s         
   229     -0.158025  15 C  pz              250     -0.155148  16 O  s         
   139     -0.153892   9 C  s         

 Vector   51  Occ=2.000000D+00  E=-6.019022D-01
              MO Center= -1.4D+00,  2.1D-01,  6.6D-01, r^2= 8.2D+00
   Bfn.  Coefficient  Atom+Function         Bfn.  Coefficient  Atom+Function  
  ----- ------------  ---------------      ----- ------------  ---------------
    84      0.272794   6 O  pz               58      0.223541   5 C  py        
    15     -0.198682   2 C  py               80      0.170743   6 O  s         
    59     -0.163483   5 C  pz               18     -0.161693   2 C  py        
   128     -0.162230   8 H  s                82      0.160795   6 O  px        
   309     -0.158697  19 C  s               129     -0.151023   8 H  s         

 Vector   52  Occ=2.000000D+00  E=-5.940126D-01
              MO Center=  1.0D+00,  7.9D-01,  8.3D-02, r^2= 1.2D+01
   Bfn.  Coefficient  Atom+Function         Bfn.  Coefficient  Atom+Function  
  ----- ------------  ---------------      ----- ------------  ---------------
   608      0.211786  36 O  px              513     -0.186492  31 C  s         
   435     -0.182817  26 H  s               445      0.180791  27 C  s         
   446      0.167208  27 C  s               536      0.166277  32 H  s         
    36      0.163836   3 H  s               434     -0.162589  26 H  s         
   537      0.161182  32 H  s               516      0.152538  31 C  py        

 Vector   53  Occ=2.000000D+00  E=-5.922511D-01
              MO Center=  1.2D+00, -2.5D-02,  6.4D-02, r^2= 1.2D+01
   Bfn.  Coefficient  Atom+Function         Bfn.  Coefficient  Atom+Function  
  ----- ------------  ---------------      ----- ------------  ---------------
   445      0.269833  27 C  s               513     -0.236361  31 C  s         
   608     -0.235168  36 O  px              449      0.194244  27 C  pz        
   551      0.182725  33 C  pz              583      0.180195  35 C  px        
   468     -0.161463  28 H  s               469     -0.161230  28 H  s         
   606     -0.154301  36 O  s               570      0.150607  34 H  s         

 Vector   54  Occ=2.000000D+00  E=-5.853545D-01
              MO Center= -1.4D+00,  1.4D+00,  4.5D-01, r^2= 9.4D+00
   Bfn.  Coefficient  Atom+Function         Bfn.  Coefficient  Atom+Function  
  ----- ------------  ---------------      ----- ------------  ---------------
    36      0.319273   3 H  s                16      0.270868   2 C  pz        
    35      0.253636   3 H  s                56     -0.199656   5 C  s         
    13     -0.186312   2 C  s                84      0.158615   6 O  pz        
    44     -0.152044   4 H  s         

 Vector   55  Occ=2.000000D+00  E=-5.760105D-01
              MO Center=  2.8D-01, -5.2D-01,  4.1D-02, r^2= 1.1D+01
   Bfn.  Coefficient  Atom+Function         Bfn.  Coefficient  Atom+Function  
  ----- ------------  ---------------      ----- ------------  ---------------
   345      0.232471  21 C  px              226      0.196632  15 C  s         
   349      0.179470  21 C  py              175      0.174540  11 C  px        
   375      0.173828  23 H  s               196     -0.167345  12 H  s         
   309      0.167191  19 C  s               376      0.157512  23 H  s         

 Vector   56  Occ=2.000000D+00  E=-5.689833D-01
              MO Center= -1.0D+00, -5.6D-01, -6.5D-01, r^2= 1.0D+01
   Bfn.  Coefficient  Atom+Function         Bfn.  Coefficient  Atom+Function  
  ----- ------------  ---------------      ----- ------------  ---------------
   215      0.241309  14 H  s               174     -0.239709  11 C  s         
   139      0.218425   9 C  s               480     -0.196254  29 C  s         
   176     -0.186268  11 C  py              387     -0.178074  24 C  s         
   205     -0.177179  13 H  s               225     -0.175005  15 C  s         
   253      0.167340  16 O  py              503      0.166584  30 H  s         

 Vector   57  Occ=2.000000D+00  E=-5.599161D-01
              MO Center= -7.9D-02,  4.0D-01, -4.2D-01, r^2= 1.3D+01
   Bfn.  Coefficient  Atom+Function         Bfn.  Coefficient  Atom+Function  
  ----- ------------  ---------------      ----- ------------  ---------------
   480      0.267995  29 C  s               174     -0.217348  11 C  s         
   503     -0.209066  30 H  s               482     -0.197908  29 C  py        
   502     -0.184158  30 H  s               205     -0.164528  13 H  s         
   346      0.159334  21 C  py        

 Vector   58  Occ=2.000000D+00  E=-5.517096D-01
              MO Center= -1.2D+00,  3.9D-01,  1.2D-02, r^2= 1.1D+01
   Bfn.  Coefficient  Atom+Function         Bfn.  Coefficient  Atom+Function  
  ----- ------------  ---------------      ----- ------------  ---------------
    14      0.187251   2 C  px              139     -0.182379   9 C  s         
   215     -0.170412  14 H  s                 1     -0.157993   1 H  s         
    35      0.151331   3 H  s         

 Vector   59  Occ=2.000000D+00  E=-5.480850D-01
              MO Center=  1.4D+00, -1.7D+00,  4.2D-01, r^2= 8.0D+00
   Bfn.  Coefficient  Atom+Function         Bfn.  Coefficient  Atom+Function  
  ----- ------------  ---------------      ----- ------------  ---------------
   367      0.241235  22 H  s               585     -0.226503  35 C  pz        
   610     -0.215246  36 O  pz              635     -0.204742  37 N  pz        
   347      0.190303  21 C  pz              366      0.182133  22 H  s         
   376     -0.180540  23 H  s               638     -0.166847  37 N  pz        
   276      0.161944  17 N  s               613     -0.157524  36 O  pz        

 Vector   60  Occ=2.000000D+00  E=-5.444710D-01
              MO Center= -1.9D+00, -7.0D-01, -4.1D-01, r^2= 9.9D+00
   Bfn.  Coefficient  Atom+Function         Bfn.  Coefficient  Atom+Function  
  ----- ------------  ---------------      ----- ------------  ---------------
   196      0.251554  12 H  s               197      0.251725  12 H  s         
   176      0.223216  11 C  py              214     -0.202560  14 H  s         
   215     -0.183385  14 H  s                55      0.178973   5 C  s         
   175     -0.175605  11 C  px               12     -0.172402   2 C  s         

 Vector   61  Occ=2.000000D+00  E=-5.410658D-01
              MO Center= -1.8D+00,  4.7D-01,  2.8D-01, r^2= 7.7D+00
   Bfn.  Coefficient  Atom+Function         Bfn.  Coefficient  Atom+Function  
  ----- ------------  ---------------      ----- ------------  ---------------
    82      0.200647   6 O  px               44     -0.194466   4 H  s         
     2      0.191537   1 H  s               106      0.176452   7 N  s         
    56     -0.174414   5 C  s               175      0.171280  11 C  px        
    16      0.168391   2 C  pz              252      0.158961  16 O  px        
   230      0.154418  15 C  px               85      0.153448   6 O  px        

 Vector   62  Occ=2.000000D+00  E=-5.233018D-01
              MO Center= -2.2D+00, -9.9D-01, -4.6D-01, r^2= 5.5D+00
   Bfn.  Coefficient  Atom+Function         Bfn.  Coefficient  Atom+Function  
  ----- ------------  ---------------      ----- ------------  ---------------
   143      0.304752   9 C  pz              177     -0.279144  11 C  pz        
   162      0.257264  10 H  s               173     -0.243804  11 C  s         
   205      0.227625  13 H  s               178     -0.225214  11 C  px        
   174      0.218423  11 C  s               180     -0.204637  11 C  pz        
   206      0.187003  13 H  s               197     -0.171300  12 H  s         

 Vector   63  Occ=2.000000D+00  E=-5.126703D-01
              MO Center=  1.3D+00,  1.3D-01, -5.5D-02, r^2= 9.0D+00
   Bfn.  Coefficient  Atom+Function         Bfn.  Coefficient  Atom+Function  
  ----- ------------  ---------------      ----- ------------  ---------------
   571      0.281079  34 H  s               332     -0.209592  20 H  s         
   313      0.207728  19 C  pz              367     -0.195833  22 H  s         
   349     -0.193903  21 C  py              537     -0.190835  32 H  s         
   392     -0.189047  24 C  py              432      0.187106  25 C  dyz       
   343      0.184299  21 C  s               309     -0.182113  19 C  s         

 Vector   64  Occ=2.000000D+00  E=-4.934868D-01
              MO Center=  1.6D+00,  2.0D+00, -3.7D-01, r^2= 5.1D+00
   Bfn.  Coefficient  Atom+Function         Bfn.  Coefficient  Atom+Function  
  ----- ------------  ---------------      ----- ------------  ---------------
   446      0.330828  27 C  s               106      0.290052   7 N  s         
    56     -0.248746   5 C  s               582     -0.242133  35 C  s         
   352     -0.233863  21 C  py               13     -0.208493   2 C  s         
   394      0.201173  24 C  px              469     -0.191309  28 H  s         
   318     -0.189001  19 C  py              515     -0.181763  31 C  px        

 Vector   65  Occ=2.000000D+00  E=-4.893852D-01
              MO Center=  1.7D+00,  8.6D-01, -1.4D-01, r^2= 6.4D+00
   Bfn.  Coefficient  Atom+Function         Bfn.  Coefficient  Atom+Function  
  ----- ------------  ---------------      ----- ------------  ---------------
   582      0.289584  35 C  s               514     -0.257642  31 C  s         
   435      0.237026  26 H  s               367     -0.234398  22 H  s         
   393      0.228330  24 C  pz              537      0.228673  32 H  s         
   390      0.220562  24 C  pz              347     -0.207786  21 C  pz        
   366     -0.206064  22 H  s               571     -0.206534  34 H  s         

 Vector   66  Occ=2.000000D+00  E=-4.871452D-01
              MO Center=  1.7D+00,  1.6D+00, -1.7D-01, r^2= 5.4D+00
   Bfn.  Coefficient  Atom+Function         Bfn.  Coefficient  Atom+Function  
  ----- ------------  ---------------      ----- ------------  ---------------
   480      0.339965  29 C  s               503     -0.262451  30 H  s         
   389      0.252160  24 C  py              346     -0.241551  21 C  py        
   550     -0.232421  33 C  py              412     -0.211617  25 C  s         
   414     -0.194636  25 C  py              435      0.193705  26 H  s         
   516      0.187733  31 C  py              448      0.179243  27 C  py        

 Vector   67  Occ=2.000000D+00  E=-4.589776D-01
              MO Center= -1.3D+00, -7.2D-01, -6.1D-02, r^2= 5.9D+00
   Bfn.  Coefficient  Atom+Function         Bfn.  Coefficient  Atom+Function  
  ----- ------------  ---------------      ----- ------------  ---------------
   252      0.404825  16 O  px              255      0.326685  16 O  px        
    82     -0.262684   6 O  px              139      0.228549   9 C  s         
    85     -0.207233   6 O  px              107      0.169921   7 N  px        
    83     -0.165750   6 O  py              110      0.160635   7 N  px        

 Vector   68  Occ=2.000000D+00  E=-4.420413D-01
              MO Center= -1.2D+00,  3.3D-01,  1.1D+00, r^2= 6.0D+00
   Bfn.  Coefficient  Atom+Function         Bfn.  Coefficient  Atom+Function  
  ----- ------------  ---------------      ----- ------------  ---------------
    83      0.427352   6 O  py               86      0.346000   6 O  py        
    84      0.206816   6 O  pz               18      0.198067   2 C  py        
    15      0.186688   2 C  py               87      0.182586   6 O  pz        
    13      0.171789   2 C  s               609      0.159832  36 O  py        
   105      0.155057   7 N  s         

 Vector   69  Occ=2.000000D+00  E=-4.351134D-01
              MO Center=  6.0D-01, -1.8D+00,  3.8D-01, r^2= 7.8D+00
   Bfn.  Coefficient  Atom+Function         Bfn.  Coefficient  Atom+Function  
  ----- ------------  ---------------      ----- ------------  ---------------
   609      0.379263  36 O  py              612      0.299440  36 O  py        
    83     -0.214329   6 O  py              279     -0.197467  17 N  pz        
   276     -0.187769  17 N  s               253     -0.180143  16 O  py        
    86     -0.168357   6 O  py              282     -0.163692  17 N  pz        
   254      0.161193  16 O  pz              226      0.156579  15 C  s         

 Vector   70  Occ=2.000000D+00  E=-4.090721D-01
              MO Center= -1.5D+00, -6.3D-01,  1.0D-02, r^2= 5.8D+00
   Bfn.  Coefficient  Atom+Function         Bfn.  Coefficient  Atom+Function  
  ----- ------------  ---------------      ----- ------------  ---------------
   107      0.320482   7 N  px              110      0.303794   7 N  px        
   252     -0.282109  16 O  px              255     -0.227174  16 O  px        
   144     -0.209226   9 C  px               82     -0.205486   6 O  px        
    85     -0.169368   6 O  px              109     -0.169822   7 N  pz        
   141     -0.163496   9 C  px              275      0.155097  17 N  s         

 Vector   71  Occ=2.000000D+00  E=-3.965589D-01
              MO Center=  1.4D+00, -3.1D+00,  4.3D-01, r^2= 3.8D+00
   Bfn.  Coefficient  Atom+Function         Bfn.  Coefficient  Atom+Function  
  ----- ------------  ---------------      ----- ------------  ---------------
   635     -0.355378  37 N  pz              610      0.341036  36 O  pz        
   638     -0.303189  37 N  pz              613      0.262827  36 O  pz        
   608     -0.164250  36 O  px        

 Vector   72  Occ=2.000000D+00  E=-3.867690D-01
              MO Center=  8.8D-01, -2.2D+00,  1.4D-01, r^2= 4.5D+00
   Bfn.  Coefficient  Atom+Function         Bfn.  Coefficient  Atom+Function  
  ----- ------------  ---------------      ----- ------------  ---------------
   609      0.333353  36 O  py              278     -0.264555  17 N  py        
   612      0.258859  36 O  py              281     -0.240308  17 N  py        
   279      0.226018  17 N  pz              282      0.203213  17 N  pz        
   581     -0.176955  35 C  s               635     -0.161891  37 N  pz        
   253      0.156546  16 O  py              254     -0.155162  16 O  pz        

 Vector   73  Occ=2.000000D+00  E=-3.399002D-01
              MO Center=  1.6D+00,  2.4D+00, -4.3D-01, r^2= 3.3D+00
   Bfn.  Coefficient  Atom+Function         Bfn.  Coefficient  Atom+Function  
  ----- ------------  ---------------      ----- ------------  ---------------
   447      0.262687  27 C  px              549     -0.263237  33 C  px        
   413      0.260124  25 C  px              515     -0.260912  31 C  px        
   518     -0.200055  31 C  px              552     -0.199370  33 C  px        
   450      0.197852  27 C  px               56     -0.193300   5 C  s         
   416      0.194085  25 C  px              446     -0.182846  27 C  s         

 Vector   74  Occ=2.000000D+00  E=-3.319876D-01
              MO Center=  1.6D+00,  2.2D+00, -3.9D-01, r^2= 3.8D+00
   Bfn.  Coefficient  Atom+Function         Bfn.  Coefficient  Atom+Function  
  ----- ------------  ---------------      ----- ------------  ---------------
   388      0.297156  24 C  px              481     -0.297609  29 C  px        
   391      0.231453  24 C  px              484     -0.225414  29 C  px        
   413      0.166704  25 C  px              549      0.160814  33 C  px        
   315      0.158971  19 C  py        

 Vector   75  Occ=0.000000D+00  E= 2.206881D-02
              MO Center= -3.7D+00,  2.7D+00, -1.0D+00, r^2= 2.3D+01
   Bfn.  Coefficient  Atom+Function         Bfn.  Coefficient  Atom+Function  
  ----- ------------  ---------------      ----- ------------  ---------------
   233     -2.732907  15 C  px              226      2.673908  15 C  s         
   582      2.672154  35 C  s                 3     -2.151125   1 H  s         
   548      2.089820  33 C  s               310      2.030582  19 C  s         
   318      2.022639  19 C  py              106     -1.939397   7 N  s         
   148      1.896299   9 C  py              556      1.786761  33 C  py        

 Vector   76  Occ=0.000000D+00  E= 3.294463D-02
              MO Center= -1.5D+00,  2.6D+00, -1.4D+00, r^2= 4.1D+01
   Bfn.  Coefficient  Atom+Function         Bfn.  Coefficient  Atom+Function  
  ----- ------------  ---------------      ----- ------------  ---------------
   233      3.856799  15 C  px              446     -3.653159  27 C  s         
   395      3.360344  24 C  py              317      3.313570  19 C  px        
   318      2.994537  19 C  py              504     -2.567726  30 H  s         
   352      2.473872  21 C  py              198      2.440370  12 H  s         
   470     -2.300464  28 H  s               387      2.201112  24 C  s         

 Vector   77  Occ=0.000000D+00  E= 3.626659D-02
              MO Center= -1.1D+00,  2.4D+00, -1.3D+00, r^2= 3.8D+01
   Bfn.  Coefficient  Atom+Function         Bfn.  Coefficient  Atom+Function  
  ----- ------------  ---------------      ----- ------------  ---------------
   446      4.526804  27 C  s               470      3.536379  28 H  s         
   455      3.158410  27 C  pz               64      3.092632   5 C  py        
   396      2.658058  24 C  pz              523      2.441987  31 C  pz        
     3     -2.353768   1 H  s               149      2.087760   9 C  pz        
   538     -2.057683  32 H  s               514     -2.039131  31 C  s         

 Vector   78  Occ=0.000000D+00  E= 4.050303D-02
              MO Center= -1.3D+00, -1.3D+00,  7.5D-01, r^2= 4.0D+01
   Bfn.  Coefficient  Atom+Function         Bfn.  Coefficient  Atom+Function  
  ----- ------------  ---------------      ----- ------------  ---------------
   480      3.662071  29 C  s               582      3.654071  35 C  s         
   395      3.527624  24 C  py              164     -2.595707  10 H  s         
    64     -2.541068   5 C  py              632     -2.506213  37 N  s         
    13      2.404933   2 C  s               148     -2.404258   9 C  py        
   538     -2.138392  32 H  s               310      1.998723  19 C  s         

 Vector   79  Occ=0.000000D+00  E= 4.796006D-02
              MO Center=  5.4D-01,  2.1D+00, -1.2D+00, r^2= 4.3D+01
   Bfn.  Coefficient  Atom+Function         Bfn.  Coefficient  Atom+Function  
  ----- ------------  ---------------      ----- ------------  ---------------
   480      9.095510  29 C  s               504      5.309645  30 H  s         
   488     -4.779615  29 C  py              395      4.093031  24 C  py        
   548     -3.723276  33 C  s               420     -3.554726  25 C  py        
   226      3.516473  15 C  s               446     -3.325004  27 C  s         
   455     -3.288331  27 C  pz              436     -2.959653  26 H  s         

 Vector   80  Occ=0.000000D+00  E= 5.034149D-02
              MO Center= -1.4D+00,  1.9D+00,  5.4D-02, r^2= 4.3D+01
   Bfn.  Coefficient  Atom+Function         Bfn.  Coefficient  Atom+Function  
  ----- ------------  ---------------      ----- ------------  ---------------
   480      5.697509  29 C  s               538     -4.899694  32 H  s         
   514     -3.850567  31 C  s               523      3.591626  31 C  pz        
   207     -2.800796  13 H  s               149     -2.715270   9 C  pz        
   395      2.726392  24 C  py              164      2.698927  10 H  s         
   522      2.586505  31 C  py              387      2.455198  24 C  s         

 Vector   81  Occ=0.000000D+00  E= 5.110907D-02
              MO Center= -1.7D+00, -1.5D+00, -5.7D-01, r^2= 4.6D+01
   Bfn.  Coefficient  Atom+Function         Bfn.  Coefficient  Atom+Function  
  ----- ------------  ---------------      ----- ------------  ---------------
   198      3.257297  12 H  s                46     -2.637978   4 H  s         
   632     -2.589286  37 N  s               318     -2.562084  19 C  py        
   590     -2.374969  35 C  py              656     -2.318097  38 H  s         
    64      2.077608   5 C  py              233      2.035801  15 C  px        
   470      1.751290  28 H  s               455      1.682815  27 C  pz        

 Vector   82  Occ=0.000000D+00  E= 5.843219D-02
              MO Center= -2.0D-01,  4.9D-01,  7.6D-01, r^2= 4.0D+01
   Bfn.  Coefficient  Atom+Function         Bfn.  Coefficient  Atom+Function  
  ----- ------------  ---------------      ----- ------------  ---------------
   514      4.573176  31 C  s               572     -4.069258  34 H  s         
   130     -3.443239   8 H  s               436      3.324713  26 H  s         
   106     -3.274370   7 N  s               557      3.255645  33 C  pz        
   556     -3.228349  33 C  py              421      3.073000  25 C  pz        
    56      2.663361   5 C  s               164     -2.498725  10 H  s         

 Vector   83  Occ=0.000000D+00  E= 6.049301D-02
              MO Center=  7.9D-01,  6.0D-01, -1.7D-01, r^2= 4.3D+01
   Bfn.  Coefficient  Atom+Function         Bfn.  Coefficient  Atom+Function  
  ----- ------------  ---------------      ----- ------------  ---------------
   446      6.377173  27 C  s               387     -4.334338  24 C  s         
   470      3.997342  28 H  s               377     -3.572982  23 H  s         
   548      3.410998  33 C  s               455      3.240946  27 C  pz        
   198     -3.168318  12 H  s               164      3.126355  10 H  s         
    37      2.802193   3 H  s               436     -2.647377  26 H  s         

 Vector   84  Occ=0.000000D+00  E= 6.677516D-02
              MO Center= -5.4D-01, -7.4D-01, -5.5D-01, r^2= 4.8D+01
   Bfn.  Coefficient  Atom+Function         Bfn.  Coefficient  Atom+Function  
  ----- ------------  ---------------      ----- ------------  ---------------
    46      4.492213   4 H  s               470     -4.091854  28 H  s         
   446     -3.915834  27 C  s               164      3.709543  10 H  s         
   387      3.421674  24 C  s               455     -3.325175  27 C  pz        
   226      3.256450  15 C  s               198     -3.062748  12 H  s         
   480      2.999612  29 C  s               149     -2.502526   9 C  pz        

 Vector   85  Occ=0.000000D+00  E= 6.858524D-02
              MO Center= -8.4D-01,  3.8D-01,  2.3D-01, r^2= 4.6D+01
   Bfn.  Coefficient  Atom+Function         Bfn.  Coefficient  Atom+Function  
  ----- ------------  ---------------      ----- ------------  ---------------
   514      5.966624  31 C  s               538      5.158034  32 H  s         
   216     -4.034376  14 H  s               164      3.692683  10 H  s         
   387     -3.455611  24 C  s               572     -3.291331  34 H  s         
    64      3.197887   5 C  py              436      2.899387  26 H  s         
[...]
   480    -12.182091  29 C  s               318    -11.103014  19 C  py        

 Vector  190  Occ=0.000000D+00  E= 4.395350D-01
              MO Center=  5.9D-01,  9.8D-01, -4.2D-01, r^2= 2.1D+01
   Bfn.  Coefficient  Atom+Function         Bfn.  Coefficient  Atom+Function  
  ----- ------------  ---------------      ----- ------------  ---------------
   480     22.643034  29 C  s               387     15.785790  24 C  s         
   446    -14.107075  27 C  s               226    -11.057862  15 C  s         
   396     -9.440353  24 C  pz              455     -9.017484  27 C  pz        
   353      8.847963  21 C  pz              395      8.684207  24 C  py        
   420     -8.155146  25 C  py              412     -8.080613  25 C  s         

 Vector  191  Occ=0.000000D+00  E= 4.436729D-01
              MO Center= -9.9D-02, -7.4D-01,  3.7D-01, r^2= 2.2D+01
   Bfn.  Coefficient  Atom+Function         Bfn.  Coefficient  Atom+Function  
  ----- ------------  ---------------      ----- ------------  ---------------
   226     15.026362  15 C  s               148     13.335907   9 C  py        
    64     12.803454   5 C  py              387    -11.819260  24 C  s         
   582     11.647812  35 C  s               233    -10.483580  15 C  px        
   548     10.293425  33 C  s               318      9.856848  19 C  py        
   480     -9.488801  29 C  s                13     -9.127932   2 C  s         

 Vector  192  Occ=0.000000D+00  E= 4.491838D-01
              MO Center=  1.7D-01, -4.7D-03,  2.3D-01, r^2= 2.3D+01
   Bfn.  Coefficient  Atom+Function         Bfn.  Coefficient  Atom+Function  
  ----- ------------  ---------------      ----- ------------  ---------------
   233     13.426306  15 C  px              582     11.540843  35 C  s         
   317      8.525602  19 C  px              395      8.357757  24 C  py        
   318      8.058595  19 C  py              276     -7.336708  17 N  s         
   352      7.344042  21 C  py              319      7.165198  19 C  pz        
   148     -6.876288   9 C  py              394     -6.668599  24 C  px        

 Vector  193  Occ=0.000000D+00  E= 4.510117D-01
              MO Center= -8.8D-01,  3.9D-01, -1.4D-01, r^2= 2.1D+01
   Bfn.  Coefficient  Atom+Function         Bfn.  Coefficient  Atom+Function  
  ----- ------------  ---------------      ----- ------------  ---------------
   276     11.977617  17 N  s               395    -10.559694  24 C  py        
   318    -10.352951  19 C  py              480    -10.028361  29 C  s         
   514      9.904910  31 C  s               412      9.719871  25 C  s         
   582     -9.345331  35 C  s               174      9.225912  11 C  s         
   387     -8.765246  24 C  s               446      8.670108  27 C  s         

 Vector  194  Occ=0.000000D+00  E= 4.526865D-01
              MO Center=  3.8D-01,  5.7D-01,  1.4D-01, r^2= 2.1D+01
   Bfn.  Coefficient  Atom+Function         Bfn.  Coefficient  Atom+Function  
  ----- ------------  ---------------      ----- ------------  ---------------
   318     12.604495  19 C  py              352     12.221801  21 C  py        
   226     11.548399  15 C  s               317     11.520349  19 C  px        
   514     -9.850307  31 C  s               276     -9.629622  17 N  s         
   582      9.406748  35 C  s               395      8.929373  24 C  py        
   557      8.461504  33 C  pz              446     -8.049564  27 C  s         

 Vector  195  Occ=0.000000D+00  E= 4.558285D-01
              MO Center=  4.6D-02,  1.0D+00, -3.1D-01, r^2= 2.0D+01
   Bfn.  Coefficient  Atom+Function         Bfn.  Coefficient  Atom+Function  
  ----- ------------  ---------------      ----- ------------  ---------------
   446     23.672900  27 C  s               276    -13.065830  17 N  s         
   233     11.088437  15 C  px              514    -11.089363  31 C  s         
   489     10.551196  29 C  pz              317     -9.218304  19 C  px        
    12     -9.074401   2 C  s               396      8.805782  24 C  pz        
   106      8.013016   7 N  s               412      7.546144  25 C  s         

 Vector  196  Occ=0.000000D+00  E= 4.614125D-01
              MO Center= -1.4D-01,  5.0D-01,  2.4D-01, r^2= 2.0D+01
   Bfn.  Coefficient  Atom+Function         Bfn.  Coefficient  Atom+Function  
  ----- ------------  ---------------      ----- ------------  ---------------
   480     14.299805  29 C  s                12     -9.389624   2 C  s         
   106     -9.177886   7 N  s               317     -7.726556  19 C  px        
   420     -7.326707  25 C  py              226      7.120076  15 C  s         
    64     -6.660094   5 C  py              284      6.633677  17 N  py        
   114      5.862082   7 N  py              514     -5.800717  31 C  s         

 Vector  197  Occ=0.000000D+00  E= 4.670392D-01
              MO Center= -1.3D-01,  6.2D-01, -4.3D-01, r^2= 2.0D+01
   Bfn.  Coefficient  Atom+Function         Bfn.  Coefficient  Atom+Function  
  ----- ------------  ---------------      ----- ------------  ---------------
    56     14.304384   5 C  s               148    -12.695444   9 C  py        
   226    -11.290346  15 C  s               283     -9.899444  17 N  px        
    13      9.085452   2 C  s                64     -8.904391   5 C  py        
   174     -7.597008  11 C  s               140     -7.439611   9 C  s         
    12      7.394073   2 C  s               115     -6.860148   7 N  pz        

 Vector  198  Occ=0.000000D+00  E= 4.706899D-01
              MO Center= -1.4D+00, -1.2D-02,  8.2D-02, r^2= 2.1D+01
   Bfn.  Coefficient  Atom+Function         Bfn.  Coefficient  Atom+Function  
  ----- ------------  ---------------      ----- ------------  ---------------
   174     22.888225  11 C  s               276    -17.260977  17 N  s         
   147     13.750909   9 C  px              106    -11.510242   7 N  s         
   300    -11.069896  18 H  s               582      7.426865  35 C  s         
    13      7.253491   2 C  s               233      6.815314  15 C  px        
   173      6.768092  11 C  s               317     -6.746076  19 C  px        

 Vector  199  Occ=0.000000D+00  E= 4.744688D-01
              MO Center= -9.3D-01, -2.7D-01, -4.1D-01, r^2= 2.1D+01
   Bfn.  Coefficient  Atom+Function         Bfn.  Coefficient  Atom+Function  
  ----- ------------  ---------------      ----- ------------  ---------------
   233     29.962213  15 C  px              412     22.306686  25 C  s         
   582    -21.462357  35 C  s               548    -20.673148  33 C  s         
   174     18.399658  11 C  s               446    -16.883301  27 C  s         
   276    -14.570604  17 N  s               514     13.988824  31 C  s         
   310    -10.249367  19 C  s               632     10.070722  37 N  s         

 Vector  200  Occ=0.000000D+00  E= 4.754022D-01
              MO Center= -2.4D-01, -4.3D-01, -3.9D-01, r^2= 2.1D+01
   Bfn.  Coefficient  Atom+Function         Bfn.  Coefficient  Atom+Function  
  ----- ------------  ---------------      ----- ------------  ---------------
   514     16.036173  31 C  s               318    -13.976549  19 C  py        
   480    -13.241490  29 C  s               387    -11.118849  24 C  s         
   140     10.357604   9 C  s               412     10.224586  25 C  s         
   582     -9.665435  35 C  s                13     -9.124273   2 C  s         
   226      9.111686  15 C  s               446      9.076412  27 C  s         

 Vector  201  Occ=0.000000D+00  E= 4.796276D-01
              MO Center= -1.8D+00, -2.7D-01, -4.2D-01, r^2= 2.1D+01
   Bfn.  Coefficient  Atom+Function         Bfn.  Coefficient  Atom+Function  
  ----- ------------  ---------------      ----- ------------  ---------------
   174     14.169762  11 C  s               317    -11.557855  19 C  px        
   226    -11.113600  15 C  s               300    -10.430581  18 H  s         
   206     -9.434142  13 H  s               352     -8.390844  21 C  py        
   548      8.184405  33 C  s               395     -7.902873  24 C  py        
   514      7.717163  31 C  s               480     -7.073095  29 C  s         

 Vector  202  Occ=0.000000D+00  E= 4.867361D-01
              MO Center=  2.4D-01, -6.0D-01,  1.2D-01, r^2= 2.0D+01
   Bfn.  Coefficient  Atom+Function         Bfn.  Coefficient  Atom+Function  
  ----- ------------  ---------------      ----- ------------  ---------------
   276     11.116444  17 N  s               446    -10.496387  27 C  s         
   226    -10.396395  15 C  s               174     10.117842  11 C  s         
   387      9.282379  24 C  s               140     -7.840246   9 C  s         
   147      7.189486   9 C  px              352      7.148520  21 C  py        
   556      6.579261  33 C  py              445      6.442642  27 C  s         

 Vector  203  Occ=0.000000D+00  E= 4.879429D-01
              MO Center=  5.7D-01,  4.3D-01, -3.5D-02, r^2= 1.9D+01
   Bfn.  Coefficient  Atom+Function         Bfn.  Coefficient  Atom+Function  
  ----- ------------  ---------------      ----- ------------  ---------------
   174     19.077382  11 C  s               480      9.658053  29 C  s         
    56     -9.394665   5 C  s               276     -8.546744  17 N  s         
   387      7.409806  24 C  s               148      6.775878   9 C  py        
   446     -6.416314  27 C  s               147      6.322300   9 C  px        
   488     -6.103425  29 C  py              233      5.505255  15 C  px        

 Vector  204  Occ=0.000000D+00  E= 4.916697D-01
              MO Center= -1.1D+00,  9.2D-03, -5.5D-01, r^2= 2.1D+01
   Bfn.  Coefficient  Atom+Function         Bfn.  Coefficient  Atom+Function  
  ----- ------------  ---------------      ----- ------------  ---------------
   387     12.192176  24 C  s               514    -11.773525  31 C  s         
   174      8.650139  11 C  s               233      8.296946  15 C  px        
   395      8.229305  24 C  py              446     -7.948730  27 C  s         
   106      7.439339   7 N  s               319      6.705424  19 C  pz        
   317      6.274834  19 C  px              148     -5.537817   9 C  py        

 Vector  205  Occ=0.000000D+00  E= 4.954577D-01
              MO Center=  2.6D-01, -6.9D-01, -6.3D-02, r^2= 1.9D+01
   Bfn.  Coefficient  Atom+Function         Bfn.  Coefficient  Atom+Function  
  ----- ------------  ---------------      ----- ------------  ---------------
   582     17.820561  35 C  s               174    -13.937329  11 C  s         
   226     10.686921  15 C  s               446      9.215612  27 C  s         
   387     -8.909046  24 C  s               514     -8.278473  31 C  s         
   234      7.889059  15 C  py              106     -7.668595   7 N  s         
   148     -7.370825   9 C  py              412     -7.404378  25 C  s         

 Vector  206  Occ=0.000000D+00  E= 5.035719D-01
              MO Center= -1.3D-01,  6.9D-01,  4.6D-01, r^2= 2.0D+01
   Bfn.  Coefficient  Atom+Function         Bfn.  Coefficient  Atom+Function  
  ----- ------------  ---------------      ----- ------------  ---------------
    56     20.791818   5 C  s                13     11.799009   2 C  s         
   106    -11.435908   7 N  s               582    -10.789830  35 C  s         
   548    -10.052397  33 C  s               446     -9.893744  27 C  s         
    36     -9.611823   3 H  s                12      9.036870   2 C  s         
   480      8.610273  29 C  s               318     -8.156433  19 C  py        


 center of mass
 --------------
 x =   0.06091106 y =  -0.05428222 z =   0.01806356

 moments of inertia (a.u.)
 ------------------
        5852.711946517987          -0.000000000002           0.000000000003
          -0.000000000002        4729.647617528000          -0.000000000002
           0.000000000003          -0.000000000002        8686.052286341075

  Mulliken analysis of the total density
  --------------------------------------

    Atom       Charge   Shell Charges
 -----------   ------   -------------------------------------------------------
    1 H    1     0.86   0.77  0.12  0.02  0.03 -0.08
    2 C    6     6.40   2.01  0.66  0.39  0.09  2.07  0.99 -0.01  0.06  0.13
    3 H    1     0.92   0.77  0.19 -0.00  0.03 -0.07
    4 H    1     0.73   0.76  0.03 -0.02  0.03 -0.08
    5 C    6     5.11   2.01  0.68  0.05  0.05  1.89  0.32 -0.11  0.24 -0.02
    6 O    8     8.83   2.01  0.82  1.01  0.17  2.80  1.88  0.14  0.02 -0.01
    7 N    7     7.56   2.01  0.72  0.80 -0.11  2.45  1.44  0.16  0.05  0.04
    8 H    1     0.97   0.77  0.22 -0.03  0.05 -0.04
    9 C    6     6.67   2.01  0.66  0.06 -0.05  1.99  1.75 -0.10  0.14  0.21
   10 H    1     0.99   0.78  0.17  0.00  0.03  0.01
   11 C    6     5.79   2.01  0.66  0.25  0.30  2.04  0.48 -0.03  0.07  0.01
   12 H    1     0.95   0.77  0.22  0.01  0.03 -0.09
   13 H    1     0.89   0.77  0.15  0.02  0.03 -0.08
   14 H    1     0.95   0.77  0.23  0.01  0.03 -0.08
   15 C    6     4.40   2.01  0.68 -0.09 -0.04  1.88  0.15  0.01  0.23 -0.44
   16 O    8     8.86   2.01  0.82  1.04  0.18  2.79  1.87  0.15  0.01 -0.00
   17 N    7     7.53   2.01  0.72  0.88 -0.12  2.45  1.44  0.05  0.05  0.05
   18 H    1     0.91   0.74  0.28 -0.02  0.06 -0.15
   19 C    6     6.64   2.01  0.67  0.12 -0.02  1.99  1.38  0.26  0.14  0.11
   20 H    1     1.00   0.79  0.18 -0.02  0.03  0.03
   21 C    6     5.55   2.01  0.66  0.06 -0.06  2.04  0.74  0.07  0.09 -0.08
   22 H    1     1.19   0.78  0.44 -0.01  0.03 -0.05
   23 H    1     0.98   0.77  0.26 -0.01  0.03 -0.07
   24 C    6     6.05   2.01  0.66  0.23 -0.07  1.99  0.86 -0.06  0.12  0.32
   25 C    6     5.35   2.01  0.66  0.14 -0.37  2.00  0.75  0.26  0.09 -0.20
   26 H    1     1.66   0.78  0.82  0.02  0.03  0.01
   27 C    6     5.36   2.01  0.66  0.25 -0.51  1.99  0.83  0.29  0.09 -0.25
   28 H    1     1.56   0.78  0.76 -0.02  0.03  0.01
   29 C    6     5.37   2.01  0.66  0.08 -0.33  2.00  0.73  0.36  0.09 -0.23
   30 H    1     1.59   0.78  0.77  0.00  0.03  0.02
   31 C    6     5.22   2.01  0.66  0.15 -0.45  1.99  0.77  0.23  0.09 -0.24
   32 H    1     1.60   0.78  0.79 -0.02  0.03  0.01
   33 C    6     5.39   2.01  0.67  0.25 -0.32  2.00  0.80  0.11  0.09 -0.22
   34 H    1     1.66   0.78  0.83  0.00  0.03  0.01
   35 C    6     4.51   2.01  0.68  0.09  0.02  1.89 -0.13 -0.04  0.24 -0.24
   36 O    8     8.77   2.01  0.82  1.03  0.15  2.79  1.83  0.14  0.01 -0.01
   37 N    7     7.26   2.01  0.72  0.83 -0.12  2.47  1.25  0.09  0.04 -0.02
   38 H    1     1.01   0.76  0.23 -0.00  0.05 -0.03
   39 H    1     0.92   0.73  0.19 -0.02  0.06 -0.05

       Multipole analysis of the density wrt the origin
       ------------------------------------------------

     L   x y z        total         open         nuclear
     -   - - -        -----         ----         -------
     0   0 0 0     -0.000000      0.000000    148.000000

     1   1 0 0     -2.244177      0.000000      0.000000
     1   0 1 0      1.689035      0.000000      0.000000
     1   0 0 1     -0.815572      0.000000      0.000000

     2   2 0 0    -89.805481      0.000000   2089.974015
     2   1 1 0      3.210766      0.000000      7.771313
     2   1 0 1     -2.857404      0.000000      7.664859
     2   0 2 0    -85.676456      0.000000   2682.254611
     2   0 1 1     -1.690892      0.000000      6.252200
     2   0 0 2    -93.660270      0.000000    537.601616


 Task  times  cpu:     7900.8s     wall:     8012.8s


                                NWChem Input Module
                                -------------------


 Summary of allocated global arrays
-----------------------------------
  No active global arrays


MA_summarize_allocated_blocks: starting scan ...
MA_summarize_allocated_blocks: scan completed: 0 heap blocks, 0 stack blocks
MA usage statistics:

	allocation statistics:
					      heap	     stack
					      ----	     -----
	current number of blocks	         0	         0
	maximum number of blocks	        16	        14
	current total bytes		         0	         0
	maximum total bytes		    142944	  30457992
	maximum total K-bytes		       143	     30458
	maximum total M-bytes		         1	        31


                                     CITATION
                                     --------
                Please cite the following reference when publishing
                           results obtained with NWChem:

          E. Apra, E. J. Bylaska, W. A. de Jong, N. Govind, K. Kowalski,
       T. P. Straatsma, M. Valiev, H. J. J. van Dam, Y. Alexeev, J. Anchell,
       V. Anisimov, F. W. Aquino, R. Atta-Fynn, J. Autschbach, N. P. Bauman,
     J. C. Becca, D. E. Bernholdt, K. Bhaskaran-Nair, S. Bogatko, P. Borowski,
         J. Boschen, J. Brabec, A. Bruner, E. Cauet, Y. Chen, G. N. Chuev,
      C. J. Cramer, J. Daily, M. J. O. Deegan, T. H. Dunning Jr., M. Dupuis,
   K. G. Dyall, G. I. Fann, S. A. Fischer, A. Fonari, H. Fruchtl, L. Gagliardi,
      J. Garza, N. Gawande, S. Ghosh, K. Glaesemann, A. W. Gotz, J. Hammond,
       V. Helms, E. D. Hermes, K. Hirao, S. Hirata, M. Jacquelin, L. Jensen,
   B. G. Johnson, H. Jonsson, R. A. Kendall, M. Klemm, R. Kobayashi, V. Konkov,
      S. Krishnamoorthy, M. Krishnan, Z. Lin, R. D. Lins, R. J. Littlefield,
      A. J. Logsdail, K. Lopata, W. Ma, A. V. Marenich, J. Martin del Campo,
   D. Mejia-Rodriguez, J. E. Moore, J. M. Mullin, T. Nakajima, D. R. Nascimento,
    J. A. Nichols, P. J. Nichols, J. Nieplocha, A. Otero-de-la-Roza, B. Palmer,
    A. Panyala, T. Pirojsirikul, B. Peng, R. Peverati, J. Pittner, L. Pollack,
   R. M. Richard, P. Sadayappan, G. C. Schatz, W. A. Shelton, D. W. Silverstein,
   D. M. A. Smith, T. A. Soares, D. Song, M. Swart, H. L. Taylor, G. S. Thomas,
            V. Tipparaju, D. G. Truhlar, K. Tsemekhman, T. Van Voorhis,
      A. Vazquez-Mayagoitia, P. Verma, O. Villa, A. Vishnu, K. D. Vogiatzis,
        D. Wang, J. H. Weare, M. J. Williamson, T. L. Windus, K. Wolinski,
        A. T. Wong, Q. Wu, C. Yang, Q. Yu, M. Zacharias, Z. Zhang, Y. Zhao,
                                and R. J. Harrison
                        "NWChem: Past, present, and future
                         J. Chem. Phys. 152, 184102 (2020)
                               doi:10.1063/5.0004997

                                      AUTHORS
                                      -------
  E. Apra, E. J. Bylaska, N. Govind, K. Kowalski, M. Valiev, D. Mejia-Rodriguez,
       A. Kunitsa, N. P. Bauman, A. Panyala, W. A. de Jong, T. P. Straatsma,
   H. J. J. van Dam, D. Wang, T. L. Windus, J. Hammond, J. Autschbach, A. Woods,
    K. Bhaskaran-Nair, J. Brabec, K. Lopata, S. A. Fischer, S. Krishnamoorthy,
     M. Jacquelin, W. Ma, M. Klemm, O. Villa, Y. Chen, V. Anisimov, F. Aquino,
     S. Hirata, M. T. Hackler, E. Hermes, L. Jensen, J. E. Moore, J. C. Becca,
      V. Konjkov, T. Risthaus, M. Malagoli, A. Marenich, A. Otero-de-la-Roza,
        J. Mullin, P. Nichols, R. Peverati, J. Pittner, Y. Zhao, P.-D. Fan,
        A. Fonari, M. J. Williamson, R. J. Harrison, J. R. Rehr, M. Dupuis,
     D. Silverstein, D. M. A. Smith, J. Nieplocha, V. Tipparaju, M. Krishnan,
     B. E. Van Kuiken, A. Vazquez-Mayagoitia, M. Swart, Q. Wu, T. Van Voorhis,
     A. A. Auer, M. Nooijen, L. D. Crosby, E. Brown, G. Cisneros, G. I. Fann,
   H. Fruchtl, J. Garza, K. Hirao, R. A. Kendall, J. A. Nichols, K. Tsemekhman,
    K. Wolinski, J. Anchell, D. E. Bernholdt, P. Borowski, T. Clark, D. Clerc,
   H. Dachsel, M. J. O. Deegan, K. Dyall, D. Elwood, E. Glendening, M. Gutowski,
   A. C. Hess, J. Jaffe, B. G. Johnson, J. Ju, R. Kobayashi, R. Kutteh, Z. Lin,
   R. Littlefield, X. Long, B. Meng, T. Nakajima, S. Niu, L. Pollack, M. Rosing,
   K. Glaesemann, G. Sandrone, M. Stave, H. Taylor, G. Thomas, J. H. van Lenthe,
                               A. T. Wong, Z. Zhang.

 Total times  cpu:     7900.9s     wall:     8013.5s
