export TMOUT=5400
export TMPDIR=/tmp
export PTMPDIR=/tmp/ptmp
 argument  1 = ALA_CYS_0.nw
                                         
                                         


             Northwest Computational Chemistry Package (NWChem) 7.2.0
             --------------------------------------------------------


                    Environmental Molecular Sciences Laboratory
                       Pacific Northwest National Laboratory
                                Richland, WA 99352

                              Copyright (c) 1994-2022
                       Pacific Northwest National Laboratory
                            Battelle Memorial Institute

             NWChem is an open-source computational chemistry package
                        distributed under the terms of the
                      Educational Community License (ECL) 2.0
             A copy of the license is included with this distribution
                              in the LICENSE.TXT file

                                  ACKNOWLEDGMENT
                                  --------------

            This software and its documentation were developed at the
            EMSL at Pacific Northwest National Laboratory, a multiprogram
            national laboratory, operated for the U.S. Department of Energy
            by Battelle under Contract Number DE-AC05-76RL01830. Support
            for this work was provided by the Department of Energy Office
            of Biological and Environmental Research, Office of Basic
            Energy Sciences, and the Office of Advanced Scientific Computing.


           Job information
           ---------------

    hostname        = nova18-36
    program         = /opt/rit/el9/20230413/app/linux-rhel9-x86_64_v3/gcc-11.2.1/nwchem-7.2.0-oxtctbuhfuzyfaoziquq6bki22grib3g/bin/nwchem
    date            = Thu Jun 26 09:35:41 2025

    compiled        = Wed_May_17_23:46:39_2023
    source          = /tmp/root/spack-stage/spack-stage-nwchem-7.2.0-oxtctbuhfuzyfaoziquq6bki22grib3g/spack-src
    nwchem branch   = 7.2.0
    nwchem revision = d0d141fd
    ga revision     = 5.8.0
    use scalapack   = T
    input           = ALA_CYS_0.nw
    prefix          = ALA_CYS_0.
    data base       = ./ALA_CYS_0.db
    status          = startup
    nproc           =        8
    time left       =     -1s



           Memory information
           ------------------

    heap     =   26214394 doubles =    200.0 Mbytes
    stack    =   26214399 doubles =    200.0 Mbytes
    global   =   52428800 doubles =    400.0 Mbytes (distinct from heap & stack)
    total    =  104857593 doubles =    800.0 Mbytes
    verify   = yes
    hardfail = no 


           Directory information
           ---------------------

  0 permanent = .
  0 scratch   = .




                                NWChem Input Module
                                -------------------



 Scaling coordinates for geometry "geometry" by  1.889725989
 (inverse scale =  0.529177249)

 C1  symmetry detected

          ------
          auto-z
          ------
  no constraints, skipping    0.0000000000000000     
  no constraints, skipping    0.0000000000000000     


                             Geometry "geometry" -> ""
                             -------------------------

 Output coordinates in angstroms (scale by  1.889725989 to convert to a.u.)

  No.       Tag          Charge          X              Y              Z
 ---- ---------------- ---------- -------------- -------------- --------------
    1 H                    1.0000     1.39507495     4.98329661    -1.65175889
    2 C                    6.0000     0.53231148     4.78947337    -1.01628997
    3 H                    1.0000    -0.37328608     4.79253052    -1.62057279
    4 H                    1.0000     0.46896111     5.55410876    -0.24392060
    5 C                    6.0000     0.69520883     3.43416333    -0.37013200
    6 O                    8.0000     1.68363034     2.75169209    -0.60659331
    7 N                    7.0000    -0.27471434     3.04121023     0.45336111
    8 H                    1.0000    -1.07601680     3.63547831     0.57377214
    9 C                    6.0000    -0.29533878     1.71617205     1.06934686
   10 H                    1.0000     0.68489216     1.52758756     1.51046270
   11 C                    6.0000    -1.33522007     1.70492216     2.19675200
   12 H                    1.0000    -1.33258034     0.73100592     2.68843909
   13 H                    1.0000    -1.09435738     2.47344842     2.93233445
   14 H                    1.0000    -2.32965982     1.89265548     1.78864200
   15 C                    6.0000    -0.57111701     0.61486496     0.02559590
   16 O                    8.0000    -1.49474097     0.72814078    -0.77987314
   17 N                    7.0000     0.19500810    -0.47726882     0.07419757
   18 H                    1.0000     0.92823847    -0.51601674     0.76557072
   19 C                    6.0000     0.11416156    -1.61872609    -0.84631541
   20 H                    1.0000    -0.03004010    -1.22603444    -1.85433979
   21 C                    6.0000     1.47058732    -2.34272043    -0.81550403
   22 H                    1.0000     1.45386740    -3.18210677    -1.51380555
   23 H                    1.0000     2.25846573    -1.65181779    -1.11905986
   24 S                   16.0000     1.82271158    -2.96013099     0.85776813
   25 H                    1.0000     0.85401638    -3.89070590     0.84946422
   26 C                    6.0000    -1.08899288    -2.55736156    -0.57710014
   27 O                    8.0000    -0.94979087    -3.77512699    -0.51428169
   28 N                    7.0000    -2.28501055    -2.02044409    -0.37904368
   29 H                    1.0000    -3.06423659    -2.63003416    -0.19915839
   30 H                    1.0000    -2.39609756    -1.01815494    -0.46209871

      Atomic Mass 
      ----------- 

      H                  1.007825
      C                 12.000000
      O                 15.994910
      N                 14.003070
      S                 31.972070


 Effective nuclear repulsion energy (a.u.)    1167.7824213299

            Nuclear Dipole moment (a.u.) 
            ----------------------------
        X                 Y               Z
 ---------------- ---------------- ----------------
     0.0000000000    -0.0000000000     0.0000000000



                                Z-matrix (autoz)
                                -------- 

 Units are Angstrom for bonds and degrees for angles

      Type          Name      I     J     K     L     M      Value
      ----------- --------  ----- ----- ----- ----- ----- ----------
    1 Stretch                  1     2                       1.08892
    2 Stretch                  2     3                       1.08870
    3 Stretch                  2     4                       1.08868
    4 Stretch                  2     5                       1.51027
    5 Stretch                  5     6                       1.22420
    6 Stretch                  5     7                       1.33165
    7 Stretch                  7     8                       1.00486
    8 Stretch                  7     9                       1.46137
    9 Stretch                  9    10                       1.09133
   10 Stretch                  9    11                       1.53379
   11 Stretch                  9    15                       1.54219
   12 Stretch                 11    12                       1.09100
   13 Stretch                 11    13                       1.09075
   14 Stretch                 11    14                       1.09120
   15 Stretch                 15    16                       1.23073
   16 Stretch                 15    17                       1.33494
   17 Stretch                 17    18                       1.00853
   18 Stretch                 17    19                       1.46861
   19 Stretch                 19    20                       1.09138
   20 Stretch                 19    21                       1.53786
   21 Stretch                 19    26                       1.54955
   22 Stretch                 21    22                       1.09200
   23 Stretch                 21    23                       1.09098
   24 Stretch                 21    24                       1.81797
   25 Stretch                 24    25                       1.34328
   26 Stretch                 26    27                       1.22730
   27 Stretch                 26    28                       1.32588
   28 Stretch                 28    29                       1.00556
   29 Stretch                 28    30                       1.01184
   30 Bend                     1     2     3               109.55072
   31 Bend                     1     2     4               109.57916
   32 Bend                     1     2     5               108.90214
   33 Bend                     2     5     6               120.31342
   34 Bend                     2     5     7               116.79665
   35 Bend                     3     2     4               110.08444
   36 Bend                     3     2     5               109.25130
   37 Bend                     4     2     5               109.45255
   38 Bend                     5     7     8               118.71180
   39 Bend                     5     7     9               122.58167
   40 Bend                     6     5     7               122.88958
   41 Bend                     7     9    10               108.32350
   42 Bend                     7     9    11               109.02919
   43 Bend                     7     9    15               111.39187
   44 Bend                     8     7     9               118.32430
   45 Bend                     9    11    12               109.64395
   46 Bend                     9    11    13               109.92683
   47 Bend                     9    11    14               109.98010
   48 Bend                     9    15    16               120.75809
   49 Bend                     9    15    17               117.19138
   50 Bend                    10     9    11               108.09470
   51 Bend                    10     9    15               108.10617
   52 Bend                    11     9    15               111.77733
   53 Bend                    12    11    13               108.93591
   54 Bend                    12    11    14               108.92559
   55 Bend                    13    11    14               109.40509
   56 Bend                    15    17    18               118.27054
   57 Bend                    15    17    19               125.55306
   58 Bend                    16    15    17               121.99344
   59 Bend                    17    19    20               107.85052
   60 Bend                    17    19    21               107.74588
   61 Bend                    17    19    26               113.86962
   62 Bend                    18    17    19               116.09405
   63 Bend                    19    21    22               109.60637
   64 Bend                    19    21    23               109.46675
   65 Bend                    19    21    24               110.43620
   66 Bend                    19    26    27               121.45755
   67 Bend                    19    26    28               118.75460
   68 Bend                    20    19    21               107.72429
   69 Bend                    20    19    26               106.01163
   70 Bend                    21    19    26               113.34058
   71 Bend                    21    24    25                95.15810
   72 Bend                    22    21    23               108.65780
   73 Bend                    22    21    24               109.29820
   74 Bend                    23    21    24               109.34701
   75 Bend                    26    28    29               118.70174
   76 Bend                    26    28    30               119.20270
   77 Bend                    27    26    28               119.76671
   78 Bend                    29    28    30               122.01252
   79 Torsion                  1     2     5     6          -0.26412
   80 Torsion                  1     2     5     7         179.52600
   81 Torsion                  2     5     7     8           2.63419
   82 Torsion                  2     5     7     9         175.41287
   83 Torsion                  3     2     5     6         119.35640
   84 Torsion                  3     2     5     7         -60.85348
   85 Torsion                  4     2     5     6        -120.03886
   86 Torsion                  4     2     5     7          59.75126
   87 Torsion                  5     7     9    10          49.21075
   88 Torsion                  5     7     9    11         166.61795
   89 Torsion                  5     7     9    15         -69.56167
   90 Torsion                  6     5     7     8        -177.58157
   91 Torsion                  6     5     7     9          -4.80290
   92 Torsion                  7     9    11    12        -177.89162
   93 Torsion                  7     9    11    13         -58.16185
   94 Torsion                  7     9    11    14          62.35837
   95 Torsion                  7     9    15    16         -48.01247
   96 Torsion                  7     9    15    17         134.68147
   97 Torsion                  8     7     9    10        -137.98395
   98 Torsion                  8     7     9    11         -20.57675
   99 Torsion                  8     7     9    15         103.24363
  100 Torsion                  9    15    17    18          -1.86839
  101 Torsion                  9    15    17    19        -178.42930
  102 Torsion                 10     9    11    12         -60.33971
  103 Torsion                 10     9    11    13          59.39006
  104 Torsion                 10     9    11    14         179.91028
  105 Torsion                 10     9    15    16        -166.91478
  106 Torsion                 10     9    15    17          15.77916
  107 Torsion                 11     9    15    16          74.23572
  108 Torsion                 11     9    15    17        -103.07034
  109 Torsion                 12    11     9    15          58.51660
  110 Torsion                 13    11     9    15         178.24637
  111 Torsion                 14    11     9    15         -61.23341
  112 Torsion                 15    17    19    20          41.26961
  113 Torsion                 15    17    19    21         157.30156
  114 Torsion                 15    17    19    26         -76.07813
  115 Torsion                 16    15    17    18        -179.13876
  116 Torsion                 16    15    17    19           4.30032
  117 Torsion                 17    19    21    22        -178.33350
  118 Torsion                 17    19    21    23         -59.24868
  119 Torsion                 17    19    21    24          61.19442
  120 Torsion                 17    19    26    27        -131.97317
  121 Torsion                 17    19    26    28          46.34991
  122 Torsion                 18    17    19    20        -135.35783
  123 Torsion                 18    17    19    21         -19.32588
  124 Torsion                 18    17    19    26         107.29444
  125 Torsion                 19    21    24    25          68.53994
  126 Torsion                 19    26    28    29        -179.65250
  127 Torsion                 19    26    28    30           3.59370
  128 Torsion                 20    19    21    22         -62.21880
  129 Torsion                 20    19    21    23          56.86603
  130 Torsion                 20    19    21    24         177.30913
  131 Torsion                 20    19    26    27         109.62074
  132 Torsion                 20    19    26    28         -72.05617
  133 Torsion                 21    19    26    27          -8.33442
  134 Torsion                 21    19    26    28         169.98866
  135 Torsion                 22    21    19    26          54.73686
  136 Torsion                 22    21    24    25         -52.11644
  137 Torsion                 23    21    19    26         173.82168
  138 Torsion                 23    21    24    25        -170.94529
  139 Torsion                 24    21    19    26         -65.73522
  140 Torsion                 27    26    28    29          -1.30038
  141 Torsion                 27    26    28    30        -178.05418


            XYZ format geometry
            -------------------
    30
 geometry
 H                     1.39507495     4.98329661    -1.65175889
 C                     0.53231148     4.78947337    -1.01628997
 H                    -0.37328608     4.79253052    -1.62057279
 H                     0.46896111     5.55410876    -0.24392060
 C                     0.69520883     3.43416333    -0.37013200
 O                     1.68363034     2.75169209    -0.60659331
 N                    -0.27471434     3.04121023     0.45336111
 H                    -1.07601680     3.63547831     0.57377214
 C                    -0.29533878     1.71617205     1.06934686
 H                     0.68489216     1.52758756     1.51046270
 C                    -1.33522007     1.70492216     2.19675200
 H                    -1.33258034     0.73100592     2.68843909
 H                    -1.09435738     2.47344842     2.93233445
 H                    -2.32965982     1.89265548     1.78864200
 C                    -0.57111701     0.61486496     0.02559590
 O                    -1.49474097     0.72814078    -0.77987314
 N                     0.19500810    -0.47726882     0.07419757
 H                     0.92823847    -0.51601674     0.76557072
 C                     0.11416156    -1.61872609    -0.84631541
 H                    -0.03004010    -1.22603444    -1.85433979
 C                     1.47058732    -2.34272043    -0.81550403
 H                     1.45386740    -3.18210677    -1.51380555
 H                     2.25846573    -1.65181779    -1.11905986
 S                     1.82271158    -2.96013099     0.85776813
 H                     0.85401638    -3.89070590     0.84946422
 C                    -1.08899288    -2.55736156    -0.57710014
 O                    -0.94979087    -3.77512699    -0.51428169
 N                    -2.28501055    -2.02044409    -0.37904368
 H                    -3.06423659    -2.63003416    -0.19915839
 H                    -2.39609756    -1.01815494    -0.46209871

 ==============================================================================
                                internuclear distances
 ------------------------------------------------------------------------------
       center one      |      center two      | atomic units |  angstroms
 ------------------------------------------------------------------------------
    2 C                |   1 H                |     2.05776  |     1.08892
    3 H                |   2 C                |     2.05735  |     1.08870
    4 H                |   2 C                |     2.05732  |     1.08868
    5 C                |   2 C                |     2.85400  |     1.51027
    6 O                |   5 C                |     2.31340  |     1.22420
    7 N                |   5 C                |     2.51646  |     1.33165
    8 H                |   7 N                |     1.89891  |     1.00486
    9 C                |   7 N                |     2.76158  |     1.46137
   10 H                |   9 C                |     2.06231  |     1.09133
   11 C                |   9 C                |     2.89845  |     1.53379
   12 H                |  11 C                |     2.06169  |     1.09100
   13 H                |  11 C                |     2.06121  |     1.09075
   14 H                |  11 C                |     2.06206  |     1.09120
   15 C                |   9 C                |     2.91431  |     1.54219
   16 O                |  15 C                |     2.32574  |     1.23073
   17 N                |  15 C                |     2.52267  |     1.33494
   18 H                |  17 N                |     1.90584  |     1.00853
   19 C                |  17 N                |     2.77526  |     1.46861
   20 H                |  19 C                |     2.06241  |     1.09138
   21 C                |  19 C                |     2.90613  |     1.53786
   22 H                |  21 C                |     2.06359  |     1.09200
   23 H                |  21 C                |     2.06166  |     1.09098
   24 S                |  21 C                |     3.43547  |     1.81797
   25 H                |  24 S                |     2.53844  |     1.34328
   26 C                |  19 C                |     2.92822  |     1.54955
   27 O                |  26 C                |     2.31927  |     1.22730
   28 N                |  26 C                |     2.50556  |     1.32588
   29 H                |  28 N                |     1.90023  |     1.00556
   30 H                |  28 N                |     1.91210  |     1.01184
 ------------------------------------------------------------------------------
                         number of included internuclear distances:         29
 ==============================================================================



 ==============================================================================
                                 internuclear angles
 ------------------------------------------------------------------------------
        center 1       |       center 2       |       center 3       |  degrees
 ------------------------------------------------------------------------------
    1 H                |   2 C                |   3 H                |   109.55
    1 H                |   2 C                |   4 H                |   109.58
    1 H                |   2 C                |   5 C                |   108.90
    3 H                |   2 C                |   4 H                |   110.08
    3 H                |   2 C                |   5 C                |   109.25
    4 H                |   2 C                |   5 C                |   109.45
    2 C                |   5 C                |   6 O                |   120.31
    2 C                |   5 C                |   7 N                |   116.80
    6 O                |   5 C                |   7 N                |   122.89
    5 C                |   7 N                |   8 H                |   118.71
    5 C                |   7 N                |   9 C                |   122.58
    8 H                |   7 N                |   9 C                |   118.32
    7 N                |   9 C                |  10 H                |   108.32
    7 N                |   9 C                |  11 C                |   109.03
    7 N                |   9 C                |  15 C                |   111.39
   10 H                |   9 C                |  11 C                |   108.09
   10 H                |   9 C                |  15 C                |   108.11
   11 C                |   9 C                |  15 C                |   111.78
    9 C                |  11 C                |  12 H                |   109.64
    9 C                |  11 C                |  13 H                |   109.93
    9 C                |  11 C                |  14 H                |   109.98
   12 H                |  11 C                |  13 H                |   108.94
   12 H                |  11 C                |  14 H                |   108.93
   13 H                |  11 C                |  14 H                |   109.41
    9 C                |  15 C                |  16 O                |   120.76
    9 C                |  15 C                |  17 N                |   117.19
   16 O                |  15 C                |  17 N                |   121.99
   15 C                |  17 N                |  18 H                |   118.27
   15 C                |  17 N                |  19 C                |   125.55
   18 H                |  17 N                |  19 C                |   116.09
   17 N                |  19 C                |  20 H                |   107.85
   17 N                |  19 C                |  21 C                |   107.75
   17 N                |  19 C                |  26 C                |   113.87
   20 H                |  19 C                |  21 C                |   107.72
   20 H                |  19 C                |  26 C                |   106.01
   21 C                |  19 C                |  26 C                |   113.34
   19 C                |  21 C                |  22 H                |   109.61
   19 C                |  21 C                |  23 H                |   109.47
   19 C                |  21 C                |  24 S                |   110.44
   22 H                |  21 C                |  23 H                |   108.66
   22 H                |  21 C                |  24 S                |   109.30
   23 H                |  21 C                |  24 S                |   109.35
   21 C                |  24 S                |  25 H                |    95.16
   19 C                |  26 C                |  27 O                |   121.46
   19 C                |  26 C                |  28 N                |   118.75
   27 O                |  26 C                |  28 N                |   119.77
   26 C                |  28 N                |  29 H                |   118.70
   26 C                |  28 N                |  30 H                |   119.20
   29 H                |  28 N                |  30 H                |   122.01
 ------------------------------------------------------------------------------
                            number of included internuclear angles:         49
 ==============================================================================



  library name resolved from: environment
  library file name is: </opt/rit/el9/20230413/app/linux-rhel9-x86_64_v3/gcc-11.2.1/nwchem-7.2.0-oxtctbuhfuzyfaoziquq6bki22grib3g/share/nwchem/libraries/>
  


 Summary of "ao basis" -> "" (cartesian)
 ------------------------------------------------------------------------------
       Tag                 Description            Shells   Functions and Types
 ---------------- ------------------------------  ------  ---------------------
 *                        aug-cc-pvdz                 on all atoms 


                      Basis "ao basis" -> "ao basis" (cartesian)
                      -----
  H (Hydrogen)
  ------------
            Exponent  Coefficients 
       -------------- ---------------------------------------------------------
  1 S  1.30100000E+01  0.019685
  1 S  1.96200000E+00  0.137977
  1 S  4.44600000E-01  0.478148

  2 S  1.22000000E-01  1.000000

  3 S  2.97400000E-02  1.000000

  4 P  7.27000000E-01  1.000000

  5 P  1.41000000E-01  1.000000

  C (Carbon)
  ----------
            Exponent  Coefficients 
       -------------- ---------------------------------------------------------
  1 S  6.66500000E+03  0.000692
  1 S  1.00000000E+03  0.005329
  1 S  2.28000000E+02  0.027077
  1 S  6.47100000E+01  0.101718
  1 S  2.10600000E+01  0.274740
  1 S  7.49500000E+00  0.448564
  1 S  2.79700000E+00  0.285074
  1 S  5.21500000E-01  0.015204

  2 S  6.66500000E+03 -0.000146
  2 S  1.00000000E+03 -0.001154
  2 S  2.28000000E+02 -0.005725
  2 S  6.47100000E+01 -0.023312
  2 S  2.10600000E+01 -0.063955
  2 S  7.49500000E+00 -0.149981
  2 S  2.79700000E+00 -0.127262
  2 S  5.21500000E-01  0.544529

  3 S  1.59600000E-01  1.000000

  4 S  4.69000000E-02  1.000000

  5 P  9.43900000E+00  0.038109
  5 P  2.00200000E+00  0.209480
  5 P  5.45600000E-01  0.508557

  6 P  1.51700000E-01  1.000000

  7 P  4.04100000E-02  1.000000

  8 D  5.50000000E-01  1.000000

  9 D  1.51000000E-01  1.000000

  O (Oxygen)
  ----------
            Exponent  Coefficients 
       -------------- ---------------------------------------------------------
  1 S  1.17200000E+04  0.000710
  1 S  1.75900000E+03  0.005470
  1 S  4.00800000E+02  0.027837
  1 S  1.13700000E+02  0.104800
  1 S  3.70300000E+01  0.283062
  1 S  1.32700000E+01  0.448719
  1 S  5.02500000E+00  0.270952
  1 S  1.01300000E+00  0.015458

  2 S  1.17200000E+04 -0.000160
  2 S  1.75900000E+03 -0.001263
  2 S  4.00800000E+02 -0.006267
  2 S  1.13700000E+02 -0.025716
  2 S  3.70300000E+01 -0.070924
  2 S  1.32700000E+01 -0.165411
  2 S  5.02500000E+00 -0.116955
  2 S  1.01300000E+00  0.557368

  3 S  3.02300000E-01  1.000000

  4 S  7.89600000E-02  1.000000

  5 P  1.77000000E+01  0.043018
  5 P  3.85400000E+00  0.228913
  5 P  1.04600000E+00  0.508728

  6 P  2.75300000E-01  1.000000

  7 P  6.85600000E-02  1.000000

  8 D  1.18500000E+00  1.000000

  9 D  3.32000000E-01  1.000000

  N (Nitrogen)
  ------------
            Exponent  Coefficients 
       -------------- ---------------------------------------------------------
  1 S  9.04600000E+03  0.000700
  1 S  1.35700000E+03  0.005389
  1 S  3.09300000E+02  0.027406
  1 S  8.77300000E+01  0.103207
  1 S  2.85600000E+01  0.278723
  1 S  1.02100000E+01  0.448540
  1 S  3.83800000E+00  0.278238
  1 S  7.46600000E-01  0.015440

  2 S  9.04600000E+03 -0.000153
  2 S  1.35700000E+03 -0.001208
  2 S  3.09300000E+02 -0.005992
  2 S  8.77300000E+01 -0.024544
  2 S  2.85600000E+01 -0.067459
  2 S  1.02100000E+01 -0.158078
  2 S  3.83800000E+00 -0.121831
  2 S  7.46600000E-01  0.549003

  3 S  2.24800000E-01  1.000000

  4 S  6.12400000E-02  1.000000

  5 P  1.35500000E+01  0.039919
  5 P  2.91700000E+00  0.217169
  5 P  7.97300000E-01  0.510319

  6 P  2.18500000E-01  1.000000

  7 P  5.61100000E-02  1.000000

  8 D  8.17000000E-01  1.000000

  9 D  2.30000000E-01  1.000000

  S (Sulphur)
  -----------
            Exponent  Coefficients 
       -------------- ---------------------------------------------------------
  1 S  1.10800000E+05  0.000248
  1 S  1.66100000E+04  0.001920
  1 S  3.78100000E+03  0.009962
  1 S  1.07100000E+03  0.040298
  1 S  3.49800000E+02  0.128604
  1 S  1.26300000E+02  0.303480
  1 S  4.92600000E+01  0.421432
  1 S  2.01600000E+01  0.230781
  1 S  5.72000000E+00  0.017897
  1 S  2.18200000E+00 -0.002975
  1 S  4.32700000E-01  0.000850

  2 S  1.10800000E+05 -0.000069
  2 S  1.66100000E+04 -0.000528
  2 S  3.78100000E+03 -0.002797
  2 S  1.07100000E+03 -0.011265
  2 S  3.49800000E+02 -0.038883
  2 S  1.26300000E+02 -0.099503
  2 S  4.92600000E+01 -0.199740
  2 S  2.01600000E+01 -0.123360
  2 S  5.72000000E+00  0.513194
  2 S  2.18200000E+00  0.607120
  2 S  4.32700000E-01  0.039675

  3 S  1.10800000E+05  0.000020
  3 S  1.66100000E+04  0.000153
  3 S  3.78100000E+03  0.000810
  3 S  1.07100000E+03  0.003290
  3 S  3.49800000E+02  0.011297
  3 S  1.26300000E+02  0.029639
  3 S  4.92600000E+01  0.059985
  3 S  2.01600000E+01  0.041325
  3 S  5.72000000E+00 -0.207474
  3 S  2.18200000E+00 -0.392889
  3 S  4.32700000E-01  0.632840

  4 S  1.57000000E-01  1.000000

  5 S  5.07000000E-02  1.000000

  6 P  3.99700000E+02  0.004475
  6 P  9.41900000E+01  0.034171
  6 P  2.97500000E+01  0.144250
  6 P  1.07700000E+01  0.353928
  6 P  4.11900000E+00  0.459085
  6 P  1.62500000E+00  0.206383
  6 P  4.72600000E-01  0.010214

  7 P  3.99700000E+02 -0.001163
  7 P  9.41900000E+01 -0.008657
  7 P  2.97500000E+01 -0.039089
  7 P  1.07700000E+01 -0.093463
  7 P  4.11900000E+00 -0.147994
  7 P  1.62500000E+00  0.030190
  7 P  4.72600000E-01  0.561573

  8 P  1.40700000E-01  1.000000

  9 P  3.99000000E-02  1.000000

 10 D  4.79000000E-01  1.000000

 11 D  1.52000000E-01  1.000000



 Summary of "ao basis" -> "ao basis" (cartesian)
 ------------------------------------------------------------------------------
       Tag                 Description            Shells   Functions and Types
 ---------------- ------------------------------  ------  ---------------------
 H                        aug-cc-pvdz                5        9   3s2p
 C                        aug-cc-pvdz                9       25   4s3p2d
 O                        aug-cc-pvdz                9       25   4s3p2d
 N                        aug-cc-pvdz                9       25   4s3p2d
 S                        aug-cc-pvdz               11       29   5s4p2d


                                 NWChem SCF Module
                                 -----------------



  ao basis        = "ao basis"
  functions       =   514
  atoms           =    30
  closed shells   =    62
  open shells     =     0
  charge          =   0.00
  wavefunction    = RHF 
  input vectors   = atomic
  output vectors  = ./ALA_CYS_0.movecs
  use symmetry    = F
  symmetry adapt  = F


 Summary of "ao basis" -> "ao basis" (cartesian)
 ------------------------------------------------------------------------------
       Tag                 Description            Shells   Functions and Types
 ---------------- ------------------------------  ------  ---------------------
 H                        aug-cc-pvdz                5        9   3s2p
 C                        aug-cc-pvdz                9       25   4s3p2d
 O                        aug-cc-pvdz                9       25   4s3p2d
 N                        aug-cc-pvdz                9       25   4s3p2d
 S                        aug-cc-pvdz               11       29   5s4p2d



 Forming initial guess at       1.6s


 !! The overlap matrix has   3 vectors deemed linearly dependent with
    eigenvalues:
 3.37D-06 5.82D-06 8.28D-06


      Superposition of Atomic Density Guess
      -------------------------------------

 Sum of atomic energies:       -1093.51360735

      Non-variational initial energy
      ------------------------------

 Total energy =   -1102.826202
 1-e energy   =   -3816.648763
 2-e energy   =    1546.040139
 HOMO         =      -0.288657
 LUMO         =       0.010037


 Starting SCF solution at     206.8s



 ----------------------------------------------
         Quadratically convergent ROHF

 Convergence threshold     :          1.000E-04
 Maximum no. of iterations :           30
 Final Fock-matrix accuracy:          1.000E-10
 ----------------------------------------------


              iter       energy          gnorm     gmax       time
             ----- ------------------- --------- --------- --------
                 1    -1096.9602677841  2.35D+00  1.78D-01    416.2
                 2    -1097.2577939422  7.87D-01  4.60D-02    812.0
                 3    -1097.3131724657  6.34D-02  4.90D-03   1384.0
                 4    -1097.3138080920  3.79D-03  3.28D-04   2195.8
                 5    -1097.3138108646  8.81D-06  6.41D-07   3521.6


       Final RHF  results 
       ------------------ 

         Total SCF energy =  -1097.313810864578
      One-electron energy =  -3826.987070967103
      Two-electron energy =   1561.890838772631
 Nuclear repulsion energy =   1167.782421329894

        Time for solution =   3321.6s


             Final eigenvalues
             -----------------

              1      
    1  -91.9547
    2  -20.5448
    3  -20.5312
    4  -20.5288
    5  -15.6151
    6  -15.6088
    7  -15.5880
    8  -11.3748
    9  -11.3633
   10  -11.3608
   11  -11.3121
   12  -11.3116
   13  -11.2834
   14  -11.2592
   15  -11.2474
   16   -8.9564
   17   -6.6387
   18   -6.6375
   19   -6.6355
   20   -1.4081
   21   -1.3924
   22   -1.3892
   23   -1.2625
   24   -1.2565
   25   -1.2172
   26   -1.0930
   27   -1.0656
   28   -1.0014
   29   -0.9785
   30   -0.9056
   31   -0.8647
   32   -0.8322
   33   -0.8069
   34   -0.7884
   35   -0.7421
   36   -0.7355
   37   -0.6955
   38   -0.6873
   39   -0.6762
   40   -0.6634
   41   -0.6296
   42   -0.6227
   43   -0.6189
   44   -0.5945
   45   -0.5923
   46   -0.5803
   47   -0.5796
   48   -0.5724
   49   -0.5597
   50   -0.5544
   51   -0.5484
   52   -0.5332
   53   -0.5209
   54   -0.5190
   55   -0.4604
   56   -0.4529
   57   -0.4403
   58   -0.4284
   59   -0.4114
   60   -0.4070
   61   -0.4013
   62   -0.3606
   63    0.0248
   64    0.0363
   65    0.0397
   66    0.0431
   67    0.0509
   68    0.0551
   69    0.0597
   70    0.0616
   71    0.0643
   72    0.0746

                       ROHF Final Molecular Orbital Analysis
                       -------------------------------------

 Vector   20  Occ=2.000000D+00  E=-1.408149D+00
              MO Center= -8.5D-01,  6.0D-01, -4.2D-01, r^2= 2.5D+00
   Bfn.  Coefficient  Atom+Function         Bfn.  Coefficient  Atom+Function  
  ----- ------------  ---------------      ----- ------------  ---------------
   250      0.346128  16 O  s               249      0.320348  16 O  s         
   224      0.228400  15 C  s         

 Vector   21  Occ=2.000000D+00  E=-1.392367D+00
              MO Center=  5.1D-01,  1.3D+00, -4.4D-01, r^2= 9.4D+00
   Bfn.  Coefficient  Atom+Function         Bfn.  Coefficient  Atom+Function  
  ----- ------------  ---------------      ----- ------------  ---------------
    80      0.296230   6 O  s                79      0.293957   6 O  s         
    54      0.209104   5 C  s               449     -0.193472  27 O  s         
   448     -0.179960  27 O  s         

 Vector   22  Occ=2.000000D+00  E=-1.389176D+00
              MO Center= -6.5D-01, -1.6D+00, -5.1D-01, r^2= 8.2D+00
   Bfn.  Coefficient  Atom+Function         Bfn.  Coefficient  Atom+Function  
  ----- ------------  ---------------      ----- ------------  ---------------
   449      0.319955  27 O  s               448      0.296886  27 O  s         
   423      0.201825  26 C  s                79      0.157804   6 O  s         
    80      0.157821   6 O  s         

 Vector   23  Occ=2.000000D+00  E=-1.262483D+00
              MO Center= -1.1D-01, -2.9D-01, -1.2D-01, r^2= 2.3D+00
   Bfn.  Coefficient  Atom+Function         Bfn.  Coefficient  Atom+Function  
  ----- ------------  ---------------      ----- ------------  ---------------
   275      0.360494  17 N  s               274      0.328002  17 N  s         
   250     -0.236114  16 O  s               249     -0.186967  16 O  s         
   298      0.150370  18 H  s         

 Vector   24  Occ=2.000000D+00  E=-1.256533D+00
              MO Center=  4.5D-02,  2.7D+00,  2.7D-01, r^2= 2.4D+00
   Bfn.  Coefficient  Atom+Function         Bfn.  Coefficient  Atom+Function  
  ----- ------------  ---------------      ----- ------------  ---------------
   105      0.415016   7 N  s               104      0.335363   7 N  s         
    80     -0.214873   6 O  s                79     -0.185449   6 O  s         
    57     -0.169887   5 C  px              128      0.154789   8 H  s         

 Vector   25  Occ=2.000000D+00  E=-1.217224D+00
              MO Center= -1.9D+00, -2.2D+00, -4.1D-01, r^2= 1.5D+00
   Bfn.  Coefficient  Atom+Function         Bfn.  Coefficient  Atom+Function  
  ----- ------------  ---------------      ----- ------------  ---------------
   474      0.390229  28 N  s               473      0.369310  28 N  s         
   449     -0.213101  27 O  s               448     -0.173166  27 O  s         
   506      0.163562  30 H  s               427      0.157569  26 C  py        
   497      0.157865  29 H  s         

 Vector   26  Occ=2.000000D+00  E=-1.092981D+00
              MO Center=  4.2D-01, -7.0D-01, -4.6D-02, r^2= 6.9D+00
   Bfn.  Coefficient  Atom+Function         Bfn.  Coefficient  Atom+Function  
  ----- ------------  ---------------      ----- ------------  ---------------
   342      0.213111  21 C  s               308      0.185841  19 C  s         
   314      0.158809  19 C  px              386      0.151904  24 S  s         

 Vector   27  Occ=2.000000D+00  E=-1.065598D+00
              MO Center=  5.4D-02,  9.4D-01,  5.6D-01, r^2= 8.9D+00
   Bfn.  Coefficient  Atom+Function         Bfn.  Coefficient  Atom+Function  
  ----- ------------  ---------------      ----- ------------  ---------------
   172      0.197266  11 C  s               138      0.195551   9 C  s         
    12     -0.157248   2 C  s               342      0.157712  21 C  s         

 Vector   28  Occ=2.000000D+00  E=-1.001449D+00
              MO Center=  2.5D-01,  3.9D+00, -3.6D-01, r^2= 5.2D+00
   Bfn.  Coefficient  Atom+Function         Bfn.  Coefficient  Atom+Function  
  ----- ------------  ---------------      ----- ------------  ---------------
    11      0.325032   2 C  s                56     -0.238478   5 C  s         
    13      0.193952   2 C  s                58      0.153304   5 C  py        
    35      0.150974   3 H  s                44      0.151514   4 H  s         

 Vector   29  Occ=2.000000D+00  E=-9.785211D-01
              MO Center=  4.7D-01, -1.8D+00,  1.2D-01, r^2= 5.6D+00
   Bfn.  Coefficient  Atom+Function         Bfn.  Coefficient  Atom+Function  
  ----- ------------  ---------------      ----- ------------  ---------------
   386      0.290468  24 S  s               308     -0.223994  19 C  s         
   146     -0.170718   9 C  pz              139      0.169772   9 C  s         
   387      0.168390  24 S  s               225     -0.154940  15 C  s         

 Vector   30  Occ=2.000000D+00  E=-9.055736D-01
              MO Center= -5.4D-01,  1.2D+00,  9.9D-01, r^2= 6.4D+00
   Bfn.  Coefficient  Atom+Function         Bfn.  Coefficient  Atom+Function  
  ----- ------------  ---------------      ----- ------------  ---------------
   146     -0.336822   9 C  pz              139      0.312964   9 C  s         
   172     -0.229226  11 C  s               225     -0.211752  15 C  s         
   231     -0.199886  15 C  py              276      0.199672  17 N  s         
   138      0.187826   9 C  s               145     -0.165924   9 C  py        

 Vector   31  Occ=2.000000D+00  E=-8.646517D-01
              MO Center=  4.8D-01, -2.4D+00, -2.6D-01, r^2= 4.6D+00
   Bfn.  Coefficient  Atom+Function         Bfn.  Coefficient  Atom+Function  
  ----- ------------  ---------------      ----- ------------  ---------------
   387      0.294751  24 S  s               309      0.258298  19 C  s         
   386      0.251940  24 S  s               314     -0.232483  19 C  px        
   342     -0.211428  21 C  s               344      0.190689  21 C  s         
   311     -0.168478  19 C  px              429     -0.163120  26 C  px        
   375     -0.161956  23 H  s               423      0.157089  26 C  s         

 Vector   32  Occ=2.000000D+00  E=-8.322392D-01
              MO Center= -6.9D-02,  1.0D+00,  1.1D-01, r^2= 7.1D+00
   Bfn.  Coefficient  Atom+Function         Bfn.  Coefficient  Atom+Function  
  ----- ------------  ---------------      ----- ------------  ---------------
   309      0.242006  19 C  s               225      0.187011  15 C  s         
   278      0.184644  17 N  py              277     -0.167639  17 N  px        
   224      0.164576  15 C  s               298     -0.155233  18 H  s         
   107      0.153595   7 N  px              109     -0.153287   7 N  pz        

 Vector   33  Occ=2.000000D+00  E=-8.069021D-01
              MO Center= -3.3D-02,  2.0D+00,  2.2D-01, r^2= 5.0D+00
   Bfn.  Coefficient  Atom+Function         Bfn.  Coefficient  Atom+Function  
  ----- ------------  ---------------      ----- ------------  ---------------
   107      0.279978   7 N  px              128     -0.270154   8 H  s         
   105     -0.193977   7 N  s                55      0.182266   5 C  s         
    56     -0.178087   5 C  s                54      0.162141   5 C  s         
   277      0.155457  17 N  px              309     -0.154618  19 C  s         
    80     -0.152740   6 O  s         

 Vector   34  Occ=2.000000D+00  E=-7.883838D-01
              MO Center= -9.9D-01, -1.7D+00, -3.4D-01, r^2= 4.7D+00
   Bfn.  Coefficient  Atom+Function         Bfn.  Coefficient  Atom+Function  
  ----- ------------  ---------------      ----- ------------  ---------------
   476      0.258273  28 N  px              429     -0.202965  26 C  px        
   314     -0.197304  19 C  px              423      0.190776  26 C  s         
   343      0.188820  21 C  s               506     -0.189478  30 H  s         
   298      0.177878  18 H  s               425     -0.176875  26 C  s         
   225     -0.170537  15 C  s               477     -0.167328  28 N  py        

 Vector   35  Occ=2.000000D+00  E=-7.421348D-01
              MO Center= -1.2D+00, -1.3D+00, -3.4D-01, r^2= 4.6D+00
   Bfn.  Coefficient  Atom+Function         Bfn.  Coefficient  Atom+Function  
  ----- ------------  ---------------      ----- ------------  ---------------
   477      0.321954  28 N  py              225     -0.271388  15 C  s         
   506      0.264651  30 H  s               279      0.188345  17 N  pz        
   315     -0.178425  19 C  py              426      0.174228  26 C  px        
   497     -0.169115  29 H  s               507      0.164893  30 H  s         
   425      0.162619  26 C  s               314     -0.160907  19 C  px        

 Vector   36  Occ=2.000000D+00  E=-7.354904D-01
              MO Center= -5.5D-01,  7.5D-01,  1.8D-01, r^2= 6.6D+00
   Bfn.  Coefficient  Atom+Function         Bfn.  Coefficient  Atom+Function  
  ----- ------------  ---------------      ----- ------------  ---------------
   225      0.310807  15 C  s               145      0.282795   9 C  py        
    55      0.216710   5 C  s               228     -0.207291  15 C  py        
   163      0.186539  10 H  s               139     -0.180515   9 C  s         
   243     -0.173966  15 C  dxy             142      0.161987   9 C  py        

 Vector   37  Occ=2.000000D+00  E=-6.955225D-01
              MO Center= -7.9D-01, -4.5D-01, -7.4D-02, r^2= 7.8D+00
   Bfn.  Coefficient  Atom+Function         Bfn.  Coefficient  Atom+Function  
  ----- ------------  ---------------      ----- ------------  ---------------
   497     -0.199658  29 H  s               315      0.182917  19 C  py        
   476      0.172492  28 N  px              498     -0.161211  29 H  s         
   477      0.160058  28 N  py              231      0.151306  15 C  py        

 Vector   38  Occ=2.000000D+00  E=-6.873201D-01
              MO Center=  2.0D-01,  2.4D+00, -1.8D-01, r^2= 8.9D+00
   Bfn.  Coefficient  Atom+Function         Bfn.  Coefficient  Atom+Function  
  ----- ------------  ---------------      ----- ------------  ---------------
    15      0.198279   2 C  py               18      0.198350   2 C  py        
    83     -0.198525   6 O  py               13      0.177337   2 C  s         
   139     -0.170849   9 C  s                58     -0.164341   5 C  py        
    56     -0.158699   5 C  s         

 Vector   39  Occ=2.000000D+00  E=-6.762148D-01
              MO Center=  5.2D-02,  3.2D-01, -3.8D-01, r^2= 1.0D+01
   Bfn.  Coefficient  Atom+Function         Bfn.  Coefficient  Atom+Function  
  ----- ------------  ---------------      ----- ------------  ---------------
    80      0.182533   6 O  s               225     -0.182940  15 C  s         
    83     -0.181169   6 O  py              145     -0.172016   9 C  py        
   332      0.161615  20 H  s               313     -0.153907  19 C  pz        
    57     -0.152314   5 C  px              426     -0.150659  26 C  px        

 Vector   40  Occ=2.000000D+00  E=-6.633602D-01
              MO Center= -3.9D-02,  5.8D-01, -1.6D-01, r^2= 7.3D+00
   Bfn.  Coefficient  Atom+Function         Bfn.  Coefficient  Atom+Function  
  ----- ------------  ---------------      ----- ------------  ---------------
   313      0.218517  19 C  pz              332     -0.171660  20 H  s         
   278     -0.166705  17 N  py              139      0.160996   9 C  s         
   316      0.161200  19 C  pz        

 Vector   41  Occ=2.000000D+00  E=-6.296091D-01
              MO Center= -3.2D-01,  1.8D+00, -3.6D-01, r^2= 8.0D+00
   Bfn.  Coefficient  Atom+Function         Bfn.  Coefficient  Atom+Function  
  ----- ------------  ---------------      ----- ------------  ---------------
   252     -0.228814  16 O  px              225     -0.214964  15 C  s         
   139      0.212908   9 C  s               250      0.180697  16 O  s         
   254     -0.168836  16 O  pz        

 Vector   42  Occ=2.000000D+00  E=-6.226959D-01
              MO Center= -1.1D-01, -2.5D+00, -4.5D-01, r^2= 6.1D+00
   Bfn.  Coefficient  Atom+Function         Bfn.  Coefficient  Atom+Function  
  ----- ------------  ---------------      ----- ------------  ---------------
   452      0.314771  27 O  py              427     -0.224132  26 C  py        
   346      0.188854  21 C  py              366     -0.185765  22 H  s         
   367     -0.184851  22 H  s               449     -0.171926  27 O  s         
   455      0.161571  27 O  py              477      0.156469  28 N  py        

 Vector   43  Occ=2.000000D+00  E=-6.189026D-01
              MO Center= -2.8D-01,  2.0D+00,  1.2D-01, r^2= 9.6D+00
   Bfn.  Coefficient  Atom+Function         Bfn.  Coefficient  Atom+Function  
  ----- ------------  ---------------      ----- ------------  ---------------
   139      0.358274   9 C  s               225     -0.239006  15 C  s         
   252      0.206030  16 O  px               44     -0.176116   4 H  s         
   205      0.161717  13 H  s               177      0.160255  11 C  pz        
   229     -0.160988  15 C  pz              232     -0.156980  15 C  pz        
   234      0.151839  15 C  py        

 Vector   44  Occ=2.000000D+00  E=-5.945061D-01
              MO Center= -2.6D-01,  1.1D+00, -1.6D-01, r^2= 9.2D+00
   Bfn.  Coefficient  Atom+Function         Bfn.  Coefficient  Atom+Function  
  ----- ------------  ---------------      ----- ------------  ---------------
   227      0.194606  15 C  px              254     -0.183823  16 O  pz        
    58      0.177196   5 C  py               82      0.174494   6 O  px        
    16      0.159817   2 C  pz        

 Vector   45  Occ=2.000000D+00  E=-5.922959D-01
              MO Center= -1.4D-02,  1.5D+00,  2.3D-01, r^2= 1.1D+01
   Bfn.  Coefficient  Atom+Function         Bfn.  Coefficient  Atom+Function  
  ----- ------------  ---------------      ----- ------------  ---------------
   196      0.207304  12 H  s                82     -0.175822   6 O  px        
   145     -0.175668   9 C  py              176     -0.170063  11 C  py        
   163     -0.168855  10 H  s               177      0.167930  11 C  pz        
   139      0.166053   9 C  s                 1      0.157290   1 H  s         
    58     -0.150206   5 C  py        

 Vector   46  Occ=2.000000D+00  E=-5.803276D-01
              MO Center=  2.3D-02, -1.6D+00,  3.8D-02, r^2= 9.5D+00
   Bfn.  Coefficient  Atom+Function         Bfn.  Coefficient  Atom+Function  
  ----- ------------  ---------------      ----- ------------  ---------------
   452      0.228483  27 O  py              427     -0.199098  26 C  py        
   225     -0.193244  15 C  s               366      0.186778  22 H  s         
   197      0.181130  12 H  s               424      0.181848  26 C  s         
   176     -0.178999  11 C  py              346     -0.153084  21 C  py        
   139      0.151568   9 C  s               314      0.150052  19 C  px        

 Vector   47  Occ=2.000000D+00  E=-5.795855D-01
              MO Center=  2.5D-01,  1.3D+00, -2.9D-01, r^2= 1.3D+01
   Bfn.  Coefficient  Atom+Function         Bfn.  Coefficient  Atom+Function  
  ----- ------------  ---------------      ----- ------------  ---------------
    14      0.219512   2 C  px                2      0.202568   1 H  s         
    82      0.197321   6 O  px              311     -0.175303  19 C  px        
     1      0.165523   1 H  s               345      0.154709  21 C  px        
    35     -0.153561   3 H  s               196      0.151449  12 H  s         

 Vector   48  Occ=2.000000D+00  E=-5.724010D-01
              MO Center=  3.5D-01,  1.0D+00, -5.4D-01, r^2= 1.2D+01
   Bfn.  Coefficient  Atom+Function         Bfn.  Coefficient  Atom+Function  
  ----- ------------  ---------------      ----- ------------  ---------------
     2      0.185134   1 H  s               225      0.175320  15 C  s         
    44     -0.171209   4 H  s               139     -0.166312   9 C  s         
   311      0.163016  19 C  px                1      0.161758   1 H  s         
    82      0.161410   6 O  px              345     -0.155019  21 C  px        
    16     -0.153755   2 C  pz              253     -0.153518  16 O  py        

 Vector   49  Occ=2.000000D+00  E=-5.597259D-01
              MO Center= -1.9D-01, -1.2D+00, -4.1D-02, r^2= 9.2D+00
   Bfn.  Coefficient  Atom+Function         Bfn.  Coefficient  Atom+Function  
  ----- ------------  ---------------      ----- ------------  ---------------
   343      0.233727  21 C  s               453     -0.183710  27 O  pz        
   345     -0.179110  21 C  px              478     -0.177473  28 N  pz        
   375     -0.169780  23 H  s               348     -0.163312  21 C  px        
   205     -0.162053  13 H  s               347      0.155766  21 C  pz        
   428     -0.152754  26 C  pz        

 Vector   50  Occ=2.000000D+00  E=-5.543964D-01
              MO Center= -7.0D-01,  3.1D-01,  5.1D-01, r^2= 1.0D+01
   Bfn.  Coefficient  Atom+Function         Bfn.  Coefficient  Atom+Function  
  ----- ------------  ---------------      ----- ------------  ---------------
   205      0.223682  13 H  s               206      0.203846  13 H  s         
   163     -0.182371  10 H  s               176      0.167468  11 C  py        
   252     -0.165925  16 O  px               12     -0.156796   2 C  s         
    55      0.152883   5 C  s               229      0.152163  15 C  pz        
   215     -0.151016  14 H  s         

 Vector   51  Occ=2.000000D+00  E=-5.483597D-01
              MO Center= -2.3D-01,  2.3D+00,  4.9D-01, r^2= 8.0D+00
   Bfn.  Coefficient  Atom+Function         Bfn.  Coefficient  Atom+Function  
  ----- ------------  ---------------      ----- ------------  ---------------
   197      0.261122  12 H  s               108     -0.217148   7 N  py        
     1     -0.197345   1 H  s                16      0.195528   2 C  pz        
   214     -0.196252  14 H  s                12      0.185026   2 C  s         
   174     -0.178043  11 C  s               196      0.176706  12 H  s         
    13      0.175419   2 C  s                55     -0.151689   5 C  s         

 Vector   52  Occ=2.000000D+00  E=-5.332433D-01
              MO Center= -4.0D-01,  2.0D+00,  5.7D-01, r^2= 6.5D+00
   Bfn.  Coefficient  Atom+Function         Bfn.  Coefficient  Atom+Function  
  ----- ------------  ---------------      ----- ------------  ---------------
   141      0.242569   9 C  px              175     -0.219198  11 C  px        
   177      0.194267  11 C  pz              143     -0.183287   9 C  pz        
   146     -0.170958   9 C  pz        

 Vector   53  Occ=2.000000D+00  E=-5.209236D-01
              MO Center=  2.9D-01,  5.0D-01, -9.9D-02, r^2= 1.2D+01
   Bfn.  Coefficient  Atom+Function         Bfn.  Coefficient  Atom+Function  
  ----- ------------  ---------------      ----- ------------  ---------------
   343      0.174021  21 C  s               225      0.168224  15 C  s         
   139     -0.165154   9 C  s                84      0.151110   6 O  pz        

 Vector   54  Occ=2.000000D+00  E=-5.189891D-01
              MO Center=  5.4D-01, -5.4D-01, -2.9D-02, r^2= 1.2D+01
   Bfn.  Coefficient  Atom+Function         Bfn.  Coefficient  Atom+Function  
  ----- ------------  ---------------      ----- ------------  ---------------
   413      0.191984  25 H  s               346      0.174094  21 C  py        
   333     -0.172769  20 H  s               367     -0.166601  22 H  s         
   375      0.166289  23 H  s               343      0.153772  21 C  s         
   393     -0.152865  24 S  py        

 Vector   55  Occ=2.000000D+00  E=-4.603986D-01
              MO Center=  9.5D-01, -2.3D+00,  2.0D-01, r^2= 5.2D+00
   Bfn.  Coefficient  Atom+Function         Bfn.  Coefficient  Atom+Function  
  ----- ------------  ---------------      ----- ------------  ---------------
   394      0.304192  24 S  pz              387      0.293810  24 S  s         
   347     -0.222863  21 C  pz              350     -0.216859  21 C  pz        
   397      0.198800  24 S  pz              392      0.182853  24 S  px        
   451     -0.177288  27 O  px              395      0.154718  24 S  px        

 Vector   56  Occ=2.000000D+00  E=-4.529067D-01
              MO Center= -5.6D-01,  1.8D-01, -3.1D-01, r^2= 6.8D+00
   Bfn.  Coefficient  Atom+Function         Bfn.  Coefficient  Atom+Function  
  ----- ------------  ---------------      ----- ------------  ---------------
   253      0.309461  16 O  py              256      0.251218  16 O  py        
   254      0.247166  16 O  pz              451      0.197407  27 O  px        
   257      0.188896  16 O  pz              252     -0.165351  16 O  px        
   206     -0.155430  13 H  s               454      0.152815  27 O  px        
    84     -0.150840   6 O  pz        

 Vector   57  Occ=2.000000D+00  E=-4.403096D-01
              MO Center= -4.1D-01, -1.1D+00, -2.4D-01, r^2= 7.9D+00
   Bfn.  Coefficient  Atom+Function         Bfn.  Coefficient  Atom+Function  
  ----- ------------  ---------------      ----- ------------  ---------------
   253      0.328523  16 O  py              451     -0.321617  27 O  px        
   256      0.267138  16 O  py              454     -0.251066  27 O  px        
   387     -0.170629  24 S  s               344      0.166967  21 C  s         

 Vector   58  Occ=2.000000D+00  E=-4.284131D-01
              MO Center=  1.2D+00,  3.0D+00, -5.4D-01, r^2= 2.9D+00
   Bfn.  Coefficient  Atom+Function         Bfn.  Coefficient  Atom+Function  
  ----- ------------  ---------------      ----- ------------  ---------------
    13      0.472177   2 C  s                83      0.402089   6 O  py        
    56     -0.340268   5 C  s                84     -0.335291   6 O  pz        
    86      0.314486   6 O  py               87     -0.267579   6 O  pz        
    18      0.235331   2 C  py               64     -0.232434   5 C  py        
    15      0.202194   2 C  py              105      0.189898   7 N  s         

 Vector   59  Occ=2.000000D+00  E=-4.114012D-01
              MO Center= -6.6D-01, -6.7D-01, -2.1D-01, r^2= 9.5D+00
   Bfn.  Coefficient  Atom+Function         Bfn.  Coefficient  Atom+Function  
  ----- ------------  ---------------      ----- ------------  ---------------
   453      0.278131  27 O  pz              478     -0.277986  28 N  pz        
   481     -0.239265  28 N  pz              456      0.218186  27 O  pz        
   109      0.197534   7 N  pz              112      0.173841   7 N  pz        
    84     -0.150856   6 O  pz        

 Vector   60  Occ=2.000000D+00  E=-4.070127D-01
              MO Center= -7.6D-01, -5.1D-01, -1.7D-01, r^2= 1.0D+01
   Bfn.  Coefficient  Atom+Function         Bfn.  Coefficient  Atom+Function  
  ----- ------------  ---------------      ----- ------------  ---------------
   478      0.314929  28 N  pz              481      0.267638  28 N  pz        
   453     -0.265474  27 O  pz              109      0.210789   7 N  pz        
   456     -0.209801  27 O  pz              112      0.185714   7 N  pz        

 Vector   61  Occ=2.000000D+00  E=-4.012545D-01
              MO Center= -3.1D-01, -5.7D-01, -2.4D-01, r^2= 7.6D+00
   Bfn.  Coefficient  Atom+Function         Bfn.  Coefficient  Atom+Function  
  ----- ------------  ---------------      ----- ------------  ---------------
   451      0.286453  27 O  px              454      0.227002  27 O  px        
   277     -0.183923  17 N  px              254     -0.182429  16 O  pz        
   109      0.177909   7 N  pz              278     -0.177700  17 N  py        
   280     -0.174382  17 N  px              279      0.170181  17 N  pz        
   282      0.163850  17 N  pz              112      0.155037   7 N  pz        

 Vector   62  Occ=2.000000D+00  E=-3.605739D-01
              MO Center=  1.6D+00, -2.8D+00,  6.7D-01, r^2= 2.6D+00
   Bfn.  Coefficient  Atom+Function         Bfn.  Coefficient  Atom+Function  
  ----- ------------  ---------------      ----- ------------  ---------------
   396     -0.353020  24 S  py              392      0.342586  24 S  px        
   393     -0.333755  24 S  py              395      0.329194  24 S  px        
   344     -0.266905  21 C  s               284     -0.250587  17 N  py        
   394     -0.189440  24 S  pz              397     -0.189904  24 S  pz        
   174      0.169838  11 C  s         

 Vector   63  Occ=0.000000D+00  E= 2.478912D-02
              MO Center= -1.6D+00,  4.0D+00,  2.1D+00, r^2= 2.1D+01
   Bfn.  Coefficient  Atom+Function         Bfn.  Coefficient  Atom+Function  
  ----- ------------  ---------------      ----- ------------  ---------------
    56      2.553809   5 C  s               106     -2.466580   7 N  s         
   173      2.451718  11 C  s               425      2.072744  26 C  s         
   207     -2.028618  13 H  s               310      1.650765  19 C  s         
   206     -1.632089  13 H  s                46     -1.528639   4 H  s         
   226      1.528588  15 C  s               215     -1.505544  14 H  s         

 Vector   64  Occ=0.000000D+00  E= 3.633693D-02
              MO Center= -1.7D+00,  2.0D+00,  1.1D+00, r^2= 3.8D+01
   Bfn.  Coefficient  Atom+Function         Bfn.  Coefficient  Atom+Function  
  ----- ------------  ---------------      ----- ------------  ---------------
    64      3.370494   5 C  py              149     -3.157845   9 C  pz        
   198      2.442687  12 H  s                12      1.985239   2 C  s         
   147      1.957783   9 C  px               46     -1.681239   4 H  s         
    65     -1.686242   5 C  pz              475      1.619709  28 N  s         
   499      1.602973  29 H  s               174      1.495621  11 C  s         

 Vector   65  Occ=0.000000D+00  E= 3.968731D-02
              MO Center= -1.9D+00,  1.3D+00,  7.7D-01, r^2= 3.3D+01
   Bfn.  Coefficient  Atom+Function         Bfn.  Coefficient  Atom+Function  
  ----- ------------  ---------------      ----- ------------  ---------------
    56      3.268339   5 C  s               207     -2.885630  13 H  s         
   432      2.159934  26 C  px              216      2.050046  14 H  s         
   164     -2.024158  10 H  s               425     -1.975165  26 C  s         
    37      1.948784   3 H  s                64     -1.818191   5 C  py        
   499      1.740210  29 H  s               234     -1.579737  15 C  py        

 Vector   66  Occ=0.000000D+00  E= 4.306885D-02
              MO Center=  1.1D+00,  8.9D-01, -7.0D-01, r^2= 3.5D+01
   Bfn.  Coefficient  Atom+Function         Bfn.  Coefficient  Atom+Function  
  ----- ------------  ---------------      ----- ------------  ---------------
   164      4.309383  10 H  s               300     -3.376852  18 H  s         
   147     -2.842866   9 C  px              234      2.788786  15 C  py        
   377      2.301427  23 H  s               226     -2.153714  15 C  s         
     3      2.092043   1 H  s               216     -1.837449  14 H  s         
   130     -1.665084   8 H  s               174     -1.588542  11 C  s         

 Vector   67  Occ=0.000000D+00  E= 5.088180D-02
              MO Center=  3.9D-01,  4.1D-01, -1.2D+00, r^2= 4.2D+01
   Bfn.  Coefficient  Atom+Function         Bfn.  Coefficient  Atom+Function  
  ----- ------------  ---------------      ----- ------------  ---------------
   475     -2.139739  28 N  s               368      2.116379  22 H  s         
   432     -2.106914  26 C  px               64      2.052937   5 C  py        
   130      1.906491   8 H  s               334      1.575575  20 H  s         
    46     -1.555482   4 H  s               499     -1.553996  29 H  s         
    65     -1.451745   5 C  pz              377      1.454372  23 H  s         

 Vector   68  Occ=0.000000D+00  E= 5.512381D-02
              MO Center= -1.5D+00,  1.9D+00, -1.3D-01, r^2= 4.1D+01
   Bfn.  Coefficient  Atom+Function         Bfn.  Coefficient  Atom+Function  
  ----- ------------  ---------------      ----- ------------  ---------------
    46      3.459819   4 H  s                56     -3.021486   5 C  s         
    37     -2.988748   3 H  s                13      2.361732   2 C  s         
   234      2.227684  15 C  py              198     -2.080426  12 H  s         
   499      2.070114  29 H  s               344     -1.830021  21 C  s         
   216     -1.566100  14 H  s               207      1.455271  13 H  s         

 Vector   69  Occ=0.000000D+00  E= 5.974815D-02
              MO Center=  5.2D-01,  1.3D+00,  7.9D-01, r^2= 4.3D+01
   Bfn.  Coefficient  Atom+Function         Bfn.  Coefficient  Atom+Function  
  ----- ------------  ---------------      ----- ------------  ---------------
     3      3.755029   1 H  s                56      3.204005   5 C  s         
   130     -3.040728   8 H  s               164     -2.934207  10 H  s         
   106     -2.786282   7 N  s               207      2.797877  13 H  s         
   174     -2.644764  11 C  s                13      2.367795   2 C  s         
    65      2.244417   5 C  pz              388      2.117476  24 S  s         

 Vector   70  Occ=0.000000D+00  E= 6.157618D-02
              MO Center=  2.1D-01, -1.2D-01,  7.8D-01, r^2= 3.9D+01
   Bfn.  Coefficient  Atom+Function         Bfn.  Coefficient  Atom+Function  
  ----- ------------  ---------------      ----- ------------  ---------------
   164      5.938619  10 H  s               147     -3.700613   9 C  px        
   198     -3.242961  12 H  s               508      2.872057  30 H  s         
    56     -2.635670   5 C  s               368     -2.593256  22 H  s         
   233      2.206119  15 C  px              432      2.131624  26 C  px        
   475      2.118259  28 N  s                46     -1.829290   4 H  s         

 Vector   71  Occ=0.000000D+00  E= 6.427227D-02
              MO Center=  5.7D-02,  1.1D+00, -7.9D-01, r^2= 3.6D+01
   Bfn.  Coefficient  Atom+Function         Bfn.  Coefficient  Atom+Function  
  ----- ------------  ---------------      ----- ------------  ---------------
   216      4.278119  14 H  s               234     -4.219886  15 C  py        
   377      3.917275  23 H  s               334     -3.292452  20 H  s         
    37     -2.917745   3 H  s               207     -2.653596  13 H  s         
   164      2.481642  10 H  s                 3      2.065341   1 H  s         
    56      2.021144   5 C  s               198     -1.994355  12 H  s         

 Vector   72  Occ=0.000000D+00  E= 7.457097D-02
              MO Center=  2.5D-01,  5.0D-01,  1.0D+00, r^2= 4.7D+01
   Bfn.  Coefficient  Atom+Function         Bfn.  Coefficient  Atom+Function  
  ----- ------------  ---------------      ----- ------------  ---------------
   198      4.886435  12 H  s                56     -3.705989   5 C  s         
     3     -3.638894   1 H  s                46      3.473689   4 H  s         
   207     -3.408985  13 H  s                13     -2.428050   2 C  s         
   148      2.187577   9 C  py              114      2.169514   7 N  py        
   234      2.169546  15 C  py              415     -2.177896  25 H  s         

 Vector   73  Occ=0.000000D+00  E= 7.620661D-02
              MO Center= -8.1D-01,  1.5D-01, -4.4D-01, r^2= 4.1D+01
   Bfn.  Coefficient  Atom+Function         Bfn.  Coefficient  Atom+Function  
  ----- ------------  ---------------      ----- ------------  ---------------
   377     -3.808830  23 H  s               164      3.471682  10 H  s         
   216      3.456603  14 H  s               207     -3.245157  13 H  s         
   334      3.190825  20 H  s               499     -2.527675  29 H  s         
    37     -2.476893   3 H  s               508      2.106563  30 H  s         
   147     -2.073372   9 C  px              317      1.927474  19 C  px        

 Vector   74  Occ=0.000000D+00  E= 7.809948D-02
              MO Center=  7.1D-01, -7.9D-01, -1.2D+00, r^2= 3.9D+01
   Bfn.  Coefficient  Atom+Function         Bfn.  Coefficient  Atom+Function  
  ----- ------------  ---------------      ----- ------------  ---------------
    13      6.633212   2 C  s                56     -6.041338   5 C  s         
   368     -5.925753  22 H  s               164     -4.728203  10 H  s         
   334      4.692391  20 H  s               130      2.759630   8 H  s         
   319      2.425144  19 C  pz              352     -2.349340  21 C  py        
   377      2.349718  23 H  s               276      2.234428  17 N  s         

 Vector   75  Occ=0.000000D+00  E= 8.667173D-02
              MO Center= -4.3D-01,  8.7D-01,  5.6D-01, r^2= 4.1D+01
   Bfn.  Coefficient  Atom+Function         Bfn.  Coefficient  Atom+Function  
  ----- ------------  ---------------      ----- ------------  ---------------
   130      4.530479   8 H  s               508     -3.831366  30 H  s         
   207     -3.769865  13 H  s               198      2.862399  12 H  s         
   368      2.805864  22 H  s               164      2.713361  10 H  s         
     3      2.501449   1 H  s                46     -2.439453   4 H  s         
   377     -2.332988  23 H  s               234     -2.172143  15 C  py        

 Vector   76  Occ=0.000000D+00  E= 9.386318D-02
              MO Center= -1.7D+00,  8.2D-01, -1.1D-01, r^2= 3.6D+01
   Bfn.  Coefficient  Atom+Function         Bfn.  Coefficient  Atom+Function  
  ----- ------------  ---------------      ----- ------------  ---------------
    56     12.686430   5 C  s                13    -10.484475   2 C  s         
   508     -6.966520  30 H  s               216      6.137421  14 H  s         
   234     -6.031222  15 C  py              334      4.539301  20 H  s         
   425     -3.826707  26 C  s                64      3.723995   5 C  py        
   226      3.522797  15 C  s               276     -3.397704  17 N  s         

 Vector   77  Occ=0.000000D+00  E= 9.726019D-02
              MO Center=  4.6D-01,  1.2D+00,  5.1D-01, r^2= 3.7D+01
   Bfn.  Coefficient  Atom+Function         Bfn.  Coefficient  Atom+Function  
  ----- ------------  ---------------      ----- ------------  ---------------
    56     20.629001   5 C  s                13    -16.036411   2 C  s         
   300      6.231962  18 H  s                64      5.863553   5 C  py        
    21      4.962767   2 C  py              106     -4.004634   7 N  s         
   164     -3.735765  10 H  s               130      3.351660   8 H  s         
    65     -3.303652   5 C  pz              388     -3.097962  24 S  s         

 Vector   78  Occ=0.000000D+00  E= 1.125013D-01
              MO Center=  5.9D-01, -7.8D-01,  1.6D-01, r^2= 4.2D+01
   Bfn.  Coefficient  Atom+Function         Bfn.  Coefficient  Atom+Function  
  ----- ------------  ---------------      ----- ------------  ---------------
    13     19.247286   2 C  s                56    -17.926133   5 C  s         
   425     12.035999  26 C  s                64     -8.748320   5 C  py        
   149      7.172764   9 C  pz              174     -6.186646  11 C  s         
    21     -6.096448   2 C  py              388     -5.994973  24 S  s         
   317      5.866575  19 C  px              164     -5.825194  10 H  s         

 Vector   79  Occ=0.000000D+00  E= 1.149954D-01
              MO Center=  1.1D+00, -4.9D-01,  5.9D-01, r^2= 3.0D+01
   Bfn.  Coefficient  Atom+Function         Bfn.  Coefficient  Atom+Function  
  ----- ------------  ---------------      ----- ------------  ---------------
    13     17.886223   2 C  s                56    -15.704400   5 C  s         
   300     11.552579  18 H  s               164    -10.335646  10 H  s         
    64     -9.709520   5 C  py              276      8.040446  17 N  s         
   425     -6.833380  26 C  s               226     -6.704574  15 C  s         
   317     -5.776458  19 C  px               65      5.252048   5 C  pz        

 Vector   80  Occ=0.000000D+00  E= 1.234193D-01
              MO Center= -1.3D-01, -3.7D-01,  7.9D-01, r^2= 2.8D+01
   Bfn.  Coefficient  Atom+Function         Bfn.  Coefficient  Atom+Function  
  ----- ------------  ---------------      ----- ------------  ---------------
   344     11.746697  21 C  s               300     -7.747852  18 H  s         
   149     -7.221048   9 C  pz              425     -6.255846  26 C  s         
   164      5.996738  10 H  s                56     -4.683724   5 C  s         
    64      4.465505   5 C  py              198      3.812092  12 H  s         
   351     -3.823128  21 C  px              317     -3.727733  19 C  px        

 Vector   81  Occ=0.000000D+00  E= 1.283528D-01
              MO Center= -1.9D-01, -6.9D-01, -2.1D-01, r^2= 3.0D+01
   Bfn.  Coefficient  Atom+Function         Bfn.  Coefficient  Atom+Function  
  ----- ------------  ---------------      ----- ------------  ---------------
   318      9.728023  19 C  py              234      8.917277  15 C  py        
   432      7.560566  26 C  px              174     -7.275792  11 C  s         
   425      6.420720  26 C  s               226     -5.532695  15 C  s         
   475      5.024423  28 N  s               233     -4.538426  15 C  px        
   106      3.976967   7 N  s               319      3.789984  19 C  pz        

 Vector   82  Occ=0.000000D+00  E= 1.313232D-01
              MO Center= -6.0D-01,  1.3D+00,  1.4D+00, r^2= 3.2D+01
   Bfn.  Coefficient  Atom+Function         Bfn.  Coefficient  Atom+Function  
  ----- ------------  ---------------      ----- ------------  ---------------
    56     19.511526   5 C  s                13    -12.436078   2 C  s         
   425      9.813728  26 C  s               226      8.373376  15 C  s         
    64      6.321997   5 C  py              310      6.341409  19 C  s         
   344     -6.013096  21 C  s               276     -5.902415  17 N  s         
   148      5.805692   9 C  py              149      5.458523   9 C  pz        

 Vector   83  Occ=0.000000D+00  E= 1.370428D-01
              MO Center=  6.1D-01,  7.6D-01,  1.3D-01, r^2= 3.3D+01
   Bfn.  Coefficient  Atom+Function         Bfn.  Coefficient  Atom+Function  
  ----- ------------  ---------------      ----- ------------  ---------------
   344     10.418863  21 C  s                56     -9.367208   5 C  s         
   148      6.711439   9 C  py               63      6.428905   5 C  px        
    65     -4.872177   5 C  pz              207      4.648924  13 H  s         
   317     -4.549863  19 C  px              300      4.322033  18 H  s         
   368      4.012041  22 H  s               106      3.915161   7 N  s         

 Vector   84  Occ=0.000000D+00  E= 1.397559D-01
              MO Center=  2.1D-02,  7.0D-01,  3.0D-01, r^2= 2.9D+01
   Bfn.  Coefficient  Atom+Function         Bfn.  Coefficient  Atom+Function  
  ----- ------------  ---------------      ----- ------------  ---------------
   174     12.614652  11 C  s               149    -10.236336   9 C  pz        
    64     10.048389   5 C  py               13     -9.006018   2 C  s         
   148      7.901876   9 C  py              226      6.613828  15 C  s         
   147      5.807324   9 C  px              106     -4.929586   7 N  s         
   183     -4.745414  11 C  pz              344     -4.761344  21 C  s         

 Vector   85  Occ=0.000000D+00  E= 1.417532D-01
              MO Center= -2.9D-01, -1.2D+00, -4.4D-01, r^2= 2.7D+01
   Bfn.  Coefficient  Atom+Function         Bfn.  Coefficient  Atom+Function  
  ----- ------------  ---------------      ----- ------------  ---------------
   344     11.042507  21 C  s                56      7.797112   5 C  s         
   318      7.752248  19 C  py              106     -4.417300   7 N  s         
   317     -3.879005  19 C  px               13     -3.732946   2 C  s         
   173      3.715583  11 C  s               475     -3.695262  28 N  s         
   432     -3.403031  26 C  px              351     -3.273342  21 C  px        

 Vector   86  Occ=0.000000D+00  E= 1.455065D-01
              MO Center=  3.0D-03, -1.5D-01, -3.0D-01, r^2= 2.8D+01
   Bfn.  Coefficient  Atom+Function         Bfn.  Coefficient  Atom+Function  
  ----- ------------  ---------------      ----- ------------  ---------------
   344     14.188366  21 C  s               317     -8.740652  19 C  px        
   425     -7.935414  26 C  s               318      7.175516  19 C  py        
   234      6.993367  15 C  py              106     -6.945639   7 N  s         
   475      6.970335  28 N  s               226     -5.659662  15 C  s         
   148      4.722273   9 C  py              310     -4.594059  19 C  s         

 Vector   87  Occ=0.000000D+00  E= 1.476294D-01
              MO Center=  1.2D-01,  5.1D-01,  7.4D-01, r^2= 3.1D+01
   Bfn.  Coefficient  Atom+Function         Bfn.  Coefficient  Atom+Function  
  ----- ------------  ---------------      ----- ------------  ---------------
   425      8.656234  26 C  s               106      8.387503   7 N  s         
   164      6.860799  10 H  s               475     -6.695829  28 N  s         
   174     -6.528713  11 C  s               310      5.740667  19 C  s         
   147     -5.144529   9 C  px               56     -4.874688   5 C  s         
   432     -4.287156  26 C  px              300     -3.498187  18 H  s         

 Vector   88  Occ=0.000000D+00  E= 1.517811D-01
              MO Center= -1.2D-01,  1.8D+00, -3.8D-01, r^2= 3.2D+01
   Bfn.  Coefficient  Atom+Function         Bfn.  Coefficient  Atom+Function  
  ----- ------------  ---------------      ----- ------------  ---------------
   276      6.897960  17 N  s               234      6.680515  15 C  py        
    13      6.604550   2 C  s               300      6.027764  18 H  s         
   233     -5.533903  15 C  px               64     -4.770415   5 C  py        
   425      4.250943  26 C  s               319     -3.907880  19 C  pz        
   174     -3.625109  11 C  s               183      3.343036  11 C  pz        

 Vector   89  Occ=0.000000D+00  E= 1.569380D-01
              MO Center=  1.5D-01,  7.6D-01,  9.5D-01, r^2= 2.9D+01
   Bfn.  Coefficient  Atom+Function         Bfn.  Coefficient  Atom+Function  
  ----- ------------  ---------------      ----- ------------  ---------------
    56      7.614681   5 C  s               164      7.140172  10 H  s         
   148     -5.596935   9 C  py              174     -4.401641  11 C  s         
   181     -3.895788  11 C  px              216     -3.683527  14 H  s         
   425     -3.382417  26 C  s               300     -3.243033  18 H  s         
    64      2.910481   5 C  py              115      2.776634   7 N  pz        

 Vector   90  Occ=0.000000D+00  E= 1.596686D-01
              MO Center=  1.4D-01,  1.6D+00, -4.0D-01, r^2= 3.3D+01
   Bfn.  Coefficient  Atom+Function         Bfn.  Coefficient  Atom+Function  
  ----- ------------  ---------------      ----- ------------  ---------------
    13      9.224721   2 C  s                64     -9.123238   5 C  py        
   226     -7.983596  15 C  s               147     -7.077828   9 C  px        
   149      6.574576   9 C  pz               56     -6.212346   5 C  s         
   344      6.140580  21 C  s                65      5.970540   5 C  pz        
   174     -5.342015  11 C  s               318      5.178975  19 C  py        

 Vector   91  Occ=0.000000D+00  E= 1.628852D-01
              MO Center= -2.2D-01,  1.0D+00, -3.4D-01, r^2= 2.1D+01
   Bfn.  Coefficient  Atom+Function         Bfn.  Coefficient  Atom+Function  
  ----- ------------  ---------------      ----- ------------  ---------------
   234     13.246466  15 C  py              174     -6.988568  11 C  s         
   425      6.374022  26 C  s               235      4.113085  15 C  pz        
   334      4.020807  20 H  s               148     -3.897970   9 C  py        
   475     -3.761867  28 N  s               149      3.580926   9 C  pz        
[...]

 Vector  150  Occ=0.000000D+00  E= 4.210656D-01
              MO Center=  3.5D-02, -5.5D-01, -6.3D-01, r^2= 2.1D+01
   Bfn.  Coefficient  Atom+Function         Bfn.  Coefficient  Atom+Function  
  ----- ------------  ---------------      ----- ------------  ---------------
   344     14.431775  21 C  s               226     -7.736929  15 C  s         
   388     -6.296113  24 S  s               319      5.728190  19 C  pz        
   300     -5.328649  18 H  s               284      5.172681  17 N  py        
   174     -4.897962  11 C  s               276     -4.708607  17 N  s         
   334      4.639064  20 H  s               173     -4.596320  11 C  s         

 Vector  151  Occ=0.000000D+00  E= 4.244960D-01
              MO Center= -7.1D-02,  1.7D+00, -2.0D-01, r^2= 2.4D+01
   Bfn.  Coefficient  Atom+Function         Bfn.  Coefficient  Atom+Function  
  ----- ------------  ---------------      ----- ------------  ---------------
    56      9.465504   5 C  s               235      9.229444  15 C  pz        
   317     -7.912233  19 C  px              318      7.585632  19 C  py        
   226     -6.936396  15 C  s               344      6.728573  21 C  s         
   173     -6.485082  11 C  s               432      6.121199  26 C  px        
   234      5.444482  15 C  py              174     -4.876423  11 C  s         

 Vector  152  Occ=0.000000D+00  E= 4.274743D-01
              MO Center=  1.6D-01, -5.6D-02,  1.2D-02, r^2= 2.0D+01
   Bfn.  Coefficient  Atom+Function         Bfn.  Coefficient  Atom+Function  
  ----- ------------  ---------------      ----- ------------  ---------------
   344      8.776257  21 C  s                56      7.432965   5 C  s         
   173     -6.985696  11 C  s               148     -6.369868   9 C  py        
   197      5.689064  12 H  s               215      5.156479  14 H  s         
   377      4.894488  23 H  s               351     -4.785113  21 C  px        
   367     -4.631749  22 H  s               174     -4.422388  11 C  s         

 Vector  153  Occ=0.000000D+00  E= 4.354978D-01
              MO Center= -3.0D-01,  9.7D-01, -2.8D-01, r^2= 2.1D+01
   Bfn.  Coefficient  Atom+Function         Bfn.  Coefficient  Atom+Function  
  ----- ------------  ---------------      ----- ------------  ---------------
   425     19.489111  26 C  s               344    -11.946329  21 C  s         
   317     10.861377  19 C  px              233     -9.686261  15 C  px        
   310      8.254825  19 C  s                13     -8.023099   2 C  s         
   226      7.998411  15 C  s               284      6.491637  17 N  py        
    64      5.332401   5 C  py              235      4.798884  15 C  pz        

 Vector  154  Occ=0.000000D+00  E= 4.371807D-01
              MO Center= -2.0D-01,  1.7D+00, -1.3D-01, r^2= 2.1D+01
   Bfn.  Coefficient  Atom+Function         Bfn.  Coefficient  Atom+Function  
  ----- ------------  ---------------      ----- ------------  ---------------
    13     14.961793   2 C  s               148     -6.665332   9 C  py        
   276     -5.400552  17 N  s                12      5.328133   2 C  s         
    36     -5.282274   3 H  s               147     -5.028825   9 C  px        
    64     -4.511594   5 C  py              225      4.390068  15 C  s         
   139     -4.269786   9 C  s                 2     -4.168741   1 H  s         

 Vector  155  Occ=0.000000D+00  E= 4.401558D-01
              MO Center=  3.7D-01,  2.7D+00, -1.5D-01, r^2= 2.1D+01
   Bfn.  Coefficient  Atom+Function         Bfn.  Coefficient  Atom+Function  
  ----- ------------  ---------------      ----- ------------  ---------------
   233     -9.810707  15 C  px              106      9.493209   7 N  s         
   174     -6.929600  11 C  s                 2     -5.255997   1 H  s         
   234     -5.241843  15 C  py               12      5.206867   2 C  s         
   149      5.082778   9 C  pz              197      4.227081  12 H  s         
   475      4.004973  28 N  s                20      3.811753   2 C  px        

 Vector  156  Occ=0.000000D+00  E= 4.443338D-01
              MO Center=  1.8D-01,  4.5D-01,  8.6D-01, r^2= 1.6D+01
   Bfn.  Coefficient  Atom+Function         Bfn.  Coefficient  Atom+Function  
  ----- ------------  ---------------      ----- ------------  ---------------
   173     15.443031  11 C  s               174     14.504973  11 C  s         
   197    -11.017874  12 H  s               149     -9.231937   9 C  pz        
   206     -9.129620  13 H  s               344      8.191983  21 C  s         
   425     -7.745196  26 C  s               276     -7.411579  17 N  s         
   163     -7.022355  10 H  s               215     -6.257240  14 H  s         

 Vector  157  Occ=0.000000D+00  E= 4.478451D-01
              MO Center= -4.3D-02, -7.5D-02,  1.3D-01, r^2= 1.9D+01
   Bfn.  Coefficient  Atom+Function         Bfn.  Coefficient  Atom+Function  
  ----- ------------  ---------------      ----- ------------  ---------------
   235     11.339478  15 C  pz              425     -9.332205  26 C  s         
   174      8.323366  11 C  s               149     -7.920909   9 C  pz        
   276      7.273609  17 N  s               319     -7.094613  19 C  pz        
   106     -6.568398   7 N  s               284     -5.739466  17 N  py        
   318      5.045717  19 C  py              475      4.974609  28 N  s         

 Vector  158  Occ=0.000000D+00  E= 4.597877D-01
              MO Center=  6.6D-02,  8.8D-02,  1.8D-02, r^2= 2.1D+01
   Bfn.  Coefficient  Atom+Function         Bfn.  Coefficient  Atom+Function  
  ----- ------------  ---------------      ----- ------------  ---------------
   344     21.607790  21 C  s               475     -8.098333  28 N  s         
   173     -7.259422  11 C  s               139      7.131517   9 C  s         
   226     -7.054888  15 C  s               376     -6.794843  23 H  s         
   317     -6.652915  19 C  px              215      6.545485  14 H  s         
   283     -5.779097  17 N  px              352      5.033002  21 C  py        

 Vector  159  Occ=0.000000D+00  E= 4.638980D-01
              MO Center= -6.8D-01,  9.8D-01,  4.3D-01, r^2= 2.0D+01
   Bfn.  Coefficient  Atom+Function         Bfn.  Coefficient  Atom+Function  
  ----- ------------  ---------------      ----- ------------  ---------------
    56    -25.014279   5 C  s                13     24.395325   2 C  s         
   344    -12.817329  21 C  s               234    -12.612896  15 C  py        
   174     11.505273  11 C  s                64     -8.170032   5 C  py        
   173      8.195200  11 C  s                45     -7.508785   4 H  s         
    12      7.314408   2 C  s               206     -7.057554  13 H  s         

 Vector  160  Occ=0.000000D+00  E= 4.673811D-01
              MO Center=  4.3D-01, -9.9D-01,  2.4D-01, r^2= 1.9D+01
   Bfn.  Coefficient  Atom+Function         Bfn.  Coefficient  Atom+Function  
  ----- ------------  ---------------      ----- ------------  ---------------
   284     10.435025  17 N  py              148      7.636206   9 C  py        
   432      7.609928  26 C  px              174     -6.793554  11 C  s         
   344      6.430104  21 C  s               234     -6.171182  15 C  py        
   317     -6.022306  19 C  px               56      5.377923   5 C  s         
   147     -5.004322   9 C  px              319      4.959845  19 C  pz        

 Vector  161  Occ=0.000000D+00  E= 4.715157D-01
              MO Center= -4.1D-02,  4.8D-01, -1.2D-01, r^2= 1.9D+01
   Bfn.  Coefficient  Atom+Function         Bfn.  Coefficient  Atom+Function  
  ----- ------------  ---------------      ----- ------------  ---------------
    56     16.823298   5 C  s               174    -15.085559  11 C  s         
   344     -9.523350  21 C  s                12     -8.652002   2 C  s         
   319     -7.985503  19 C  pz              251      6.685576  16 O  s         
   367      6.590032  22 H  s               106     -6.112694   7 N  s         
   149      6.142669   9 C  pz              140     -5.967845   9 C  s         

 Vector  162  Occ=0.000000D+00  E= 4.726144D-01
              MO Center=  1.2D-01,  6.7D-01,  9.2D-03, r^2= 2.1D+01
   Bfn.  Coefficient  Atom+Function         Bfn.  Coefficient  Atom+Function  
  ----- ------------  ---------------      ----- ------------  ---------------
   344     31.527330  21 C  s                13     22.517312   2 C  s         
    56    -19.388832   5 C  s               226    -13.974532  15 C  s         
    64     -7.964862   5 C  py              376     -7.347030  23 H  s         
   367     -7.131397  22 H  s               317     -6.750804  19 C  px        
   310     -6.471108  19 C  s               300     -6.243893  18 H  s         

 Vector  163  Occ=0.000000D+00  E= 4.790038D-01
              MO Center= -3.5D-01,  9.5D-01,  1.1D-01, r^2= 2.0D+01
   Bfn.  Coefficient  Atom+Function         Bfn.  Coefficient  Atom+Function  
  ----- ------------  ---------------      ----- ------------  ---------------
    56     20.170542   5 C  s               174    -19.883146  11 C  s         
    12     -9.047770   2 C  s               234      8.947467  15 C  py        
    13     -7.966749   2 C  s               149      7.065767   9 C  pz        
   115      7.013761   7 N  pz              226     -6.978794  15 C  s         
   197      5.966190  12 H  s               235      5.993292  15 C  pz        

 Vector  164  Occ=0.000000D+00  E= 4.829502D-01
              MO Center= -6.5D-01,  5.2D-01, -2.2D-02, r^2= 2.0D+01
   Bfn.  Coefficient  Atom+Function         Bfn.  Coefficient  Atom+Function  
  ----- ------------  ---------------      ----- ------------  ---------------
    13     16.729451   2 C  s                56    -14.833548   5 C  s         
   276      7.758266  17 N  s               226     -6.419642  15 C  s         
   317     -6.412378  19 C  px               64     -5.363090   5 C  py        
   148     -5.255088   9 C  py               65      5.035789   5 C  pz        
   425     -4.868754  26 C  s               309     -3.956981  19 C  s         

 Vector  165  Occ=0.000000D+00  E= 4.923076D-01
              MO Center= -4.5D-01,  1.8D+00,  5.9D-01, r^2= 1.8D+01
   Bfn.  Coefficient  Atom+Function         Bfn.  Coefficient  Atom+Function  
  ----- ------------  ---------------      ----- ------------  ---------------
    13     32.525316   2 C  s               174    -22.144261  11 C  s         
    56    -18.376555   5 C  s                64    -16.947850   5 C  py        
   425     14.368726  26 C  s               226    -13.331846  15 C  s         
   149     12.764573   9 C  pz              106     11.822533   7 N  s         
   173    -10.244190  11 C  s               215      9.885629  14 H  s         

 Vector  166  Occ=0.000000D+00  E= 4.951822D-01
              MO Center= -6.2D-01, -1.0D-01,  1.2D-01, r^2= 1.8D+01
   Bfn.  Coefficient  Atom+Function         Bfn.  Coefficient  Atom+Function  
  ----- ------------  ---------------      ----- ------------  ---------------
    56     18.233531   5 C  s               174    -14.156147  11 C  s         
   233     -8.207747  15 C  px               13     -7.760608   2 C  s         
   173      5.841094  11 C  s               235      5.626871  15 C  pz        
   115      5.230428   7 N  pz              318      5.125316  19 C  py        
   149      4.905608   9 C  pz              376      4.225349  23 H  s         

 Vector  167  Occ=0.000000D+00  E= 5.060115D-01
              MO Center=  2.0D-01,  3.7D-01, -3.3D-01, r^2= 2.4D+01
   Bfn.  Coefficient  Atom+Function         Bfn.  Coefficient  Atom+Function  
  ----- ------------  ---------------      ----- ------------  ---------------
    13     37.293088   2 C  s               344    -35.123317  21 C  s         
    56    -28.891589   5 C  s                64    -16.871239   5 C  py        
   317     15.235895  19 C  px              106     14.441394   7 N  s         
   276     14.059255  17 N  s                12     13.227732   2 C  s         
   149     12.706502   9 C  pz              425     12.560866  26 C  s         


 center of mass
 --------------
 x =   0.02894284 y =  -0.09161162 z =  -0.01977157

 moments of inertia (a.u.)
 ------------------
        6528.054672733570          -0.000000000000          -0.000000000000
          -0.000000000000        2068.544190214746          -0.000000000000
          -0.000000000000          -0.000000000000        7236.520001337416

  Mulliken analysis of the total density
  --------------------------------------

    Atom       Charge   Shell Charges
 -----------   ------   -------------------------------------------------------
    1 H    1     0.96   0.76  0.22  0.01  0.03 -0.06
    2 C    6     6.56   2.01  0.66  0.32  0.28  2.07  1.06 -0.03  0.06  0.12
    3 H    1     0.81   0.76  0.08  0.01  0.03 -0.06
    4 H    1     0.79   0.76  0.05  0.01  0.03 -0.06
    5 C    6     4.95   2.01  0.68  0.08 -0.16  1.90  0.31 -0.10  0.24  0.00
    6 O    8     8.72   2.01  0.82  0.99  0.15  2.79  1.83  0.14  0.01 -0.02
    7 N    7     7.63   2.01  0.72  0.82 -0.08  2.46  1.44  0.17  0.05  0.04
    8 H    1     0.96   0.77  0.21 -0.02  0.05 -0.04
    9 C    6     6.66   2.01  0.66  0.23  0.01  2.00  1.43  0.01  0.14  0.20
   10 H    1     1.16   0.79  0.33  0.00  0.03  0.02
   11 C    6     5.66   2.01  0.66  0.19  0.14  2.04  0.55 -0.01  0.07  0.01
   12 H    1     0.98   0.77  0.25 -0.00  0.03 -0.07
   13 H    1     0.96   0.77  0.24 -0.00  0.03 -0.08
   14 H    1     0.91   0.77  0.17  0.02  0.03 -0.08
   15 C    6     4.25   2.01  0.68 -0.18  0.04  1.88  0.07 -0.06  0.23 -0.43
   16 O    8     8.94   2.01  0.82  1.05  0.20  2.79  1.89  0.16  0.01  0.00
   17 N    7     7.57   2.01  0.72  0.83 -0.02  2.45  1.44  0.01  0.05  0.08
   18 H    1     0.94   0.76  0.20 -0.01  0.06 -0.06
   19 C    6     6.49   2.01  0.67  0.08 -0.04  1.99  1.35  0.12  0.13  0.17
   20 H    1     0.97   0.78  0.19 -0.02  0.03 -0.01
   21 C    6     5.58   2.01  0.66  0.04 -0.17  1.99  0.93  0.05  0.10 -0.01
   22 H    1     1.22   0.76  0.43  0.00  0.03 -0.01
   23 H    1     1.12   0.77  0.36 -0.00  0.03 -0.03
   24 S   16    15.69   2.00  2.03  0.86  0.72  0.05  6.00  2.32  1.71  0.05  0.10 -0.14
   25 H    1     0.94   0.69  0.16  0.01  0.03  0.04
   26 C    6     4.63   2.01  0.68  0.04  0.13  1.89 -0.08 -0.07  0.23 -0.21
   27 O    8     8.80   2.01  0.82  1.03  0.15  2.79  1.84  0.15  0.01 -0.00
   28 N    7     7.22   2.01  0.72  0.83 -0.17  2.47  1.26  0.08  0.04 -0.02
   29 H    1     1.03   0.76  0.25  0.00  0.05 -0.03
   30 H    1     0.91   0.73  0.20 -0.02  0.06 -0.06

       Multipole analysis of the density wrt the origin
       ------------------------------------------------

     L   x y z        total         open         nuclear
     -   - - -        -----         ----         -------
     0   0 0 0      0.000000      0.000000    124.000000

     1   1 0 0     -1.026427      0.000000      0.000000
     1   0 1 0      1.778648      0.000000     -0.000000
     1   0 0 1      0.814474      0.000000      0.000000

     2   2 0 0    -75.378517      0.000000    758.795549
     2   1 1 0     -4.111584      0.000000     -9.056885
     2   1 0 1     -3.865951      0.000000    -24.565936
     2   0 2 0    -73.950433      0.000000   3177.377874
     2   0 1 1      3.741697      0.000000     10.482553
     2   0 0 2    -70.525885      0.000000    403.167630


 Task  times  cpu:     3527.1s     wall:     3583.6s


                                NWChem Input Module
                                -------------------


 Summary of allocated global arrays
-----------------------------------
  No active global arrays


MA_summarize_allocated_blocks: starting scan ...
MA_summarize_allocated_blocks: scan completed: 0 heap blocks, 0 stack blocks
MA usage statistics:

	allocation statistics:
					      heap	     stack
					      ----	     -----
	current number of blocks	         0	         0
	maximum number of blocks	        16	        14
	current total bytes		         0	         0
	maximum total bytes		    118744	  31125016
	maximum total K-bytes		       119	     31126
	maximum total M-bytes		         1	        32


                                     CITATION
                                     --------
                Please cite the following reference when publishing
                           results obtained with NWChem:

          E. Apra, E. J. Bylaska, W. A. de Jong, N. Govind, K. Kowalski,
       T. P. Straatsma, M. Valiev, H. J. J. van Dam, Y. Alexeev, J. Anchell,
       V. Anisimov, F. W. Aquino, R. Atta-Fynn, J. Autschbach, N. P. Bauman,
     J. C. Becca, D. E. Bernholdt, K. Bhaskaran-Nair, S. Bogatko, P. Borowski,
         J. Boschen, J. Brabec, A. Bruner, E. Cauet, Y. Chen, G. N. Chuev,
      C. J. Cramer, J. Daily, M. J. O. Deegan, T. H. Dunning Jr., M. Dupuis,
   K. G. Dyall, G. I. Fann, S. A. Fischer, A. Fonari, H. Fruchtl, L. Gagliardi,
      J. Garza, N. Gawande, S. Ghosh, K. Glaesemann, A. W. Gotz, J. Hammond,
       V. Helms, E. D. Hermes, K. Hirao, S. Hirata, M. Jacquelin, L. Jensen,
   B. G. Johnson, H. Jonsson, R. A. Kendall, M. Klemm, R. Kobayashi, V. Konkov,
      S. Krishnamoorthy, M. Krishnan, Z. Lin, R. D. Lins, R. J. Littlefield,
      A. J. Logsdail, K. Lopata, W. Ma, A. V. Marenich, J. Martin del Campo,
   D. Mejia-Rodriguez, J. E. Moore, J. M. Mullin, T. Nakajima, D. R. Nascimento,
    J. A. Nichols, P. J. Nichols, J. Nieplocha, A. Otero-de-la-Roza, B. Palmer,
    A. Panyala, T. Pirojsirikul, B. Peng, R. Peverati, J. Pittner, L. Pollack,
   R. M. Richard, P. Sadayappan, G. C. Schatz, W. A. Shelton, D. W. Silverstein,
   D. M. A. Smith, T. A. Soares, D. Song, M. Swart, H. L. Taylor, G. S. Thomas,
            V. Tipparaju, D. G. Truhlar, K. Tsemekhman, T. Van Voorhis,
      A. Vazquez-Mayagoitia, P. Verma, O. Villa, A. Vishnu, K. D. Vogiatzis,
        D. Wang, J. H. Weare, M. J. Williamson, T. L. Windus, K. Wolinski,
        A. T. Wong, Q. Wu, C. Yang, Q. Yu, M. Zacharias, Z. Zhang, Y. Zhao,
                                and R. J. Harrison
                        "NWChem: Past, present, and future
                         J. Chem. Phys. 152, 184102 (2020)
                               doi:10.1063/5.0004997

                                      AUTHORS
                                      -------
  E. Apra, E. J. Bylaska, N. Govind, K. Kowalski, M. Valiev, D. Mejia-Rodriguez,
       A. Kunitsa, N. P. Bauman, A. Panyala, W. A. de Jong, T. P. Straatsma,
   H. J. J. van Dam, D. Wang, T. L. Windus, J. Hammond, J. Autschbach, A. Woods,
    K. Bhaskaran-Nair, J. Brabec, K. Lopata, S. A. Fischer, S. Krishnamoorthy,
     M. Jacquelin, W. Ma, M. Klemm, O. Villa, Y. Chen, V. Anisimov, F. Aquino,
     S. Hirata, M. T. Hackler, E. Hermes, L. Jensen, J. E. Moore, J. C. Becca,
      V. Konjkov, T. Risthaus, M. Malagoli, A. Marenich, A. Otero-de-la-Roza,
        J. Mullin, P. Nichols, R. Peverati, J. Pittner, Y. Zhao, P.-D. Fan,
        A. Fonari, M. J. Williamson, R. J. Harrison, J. R. Rehr, M. Dupuis,
     D. Silverstein, D. M. A. Smith, J. Nieplocha, V. Tipparaju, M. Krishnan,
     B. E. Van Kuiken, A. Vazquez-Mayagoitia, M. Swart, Q. Wu, T. Van Voorhis,
     A. A. Auer, M. Nooijen, L. D. Crosby, E. Brown, G. Cisneros, G. I. Fann,
   H. Fruchtl, J. Garza, K. Hirao, R. A. Kendall, J. A. Nichols, K. Tsemekhman,
    K. Wolinski, J. Anchell, D. E. Bernholdt, P. Borowski, T. Clark, D. Clerc,
   H. Dachsel, M. J. O. Deegan, K. Dyall, D. Elwood, E. Glendening, M. Gutowski,
   A. C. Hess, J. Jaffe, B. G. Johnson, J. Ju, R. Kobayashi, R. Kutteh, Z. Lin,
   R. Littlefield, X. Long, B. Meng, T. Nakajima, S. Niu, L. Pollack, M. Rosing,
   K. Glaesemann, G. Sandrone, M. Stave, H. Taylor, G. Thomas, J. H. van Lenthe,
                               A. T. Wong, Z. Zhang.

 Total times  cpu:     3527.2s     wall:     3584.4s
