export TMOUT=5400
export TMPDIR=/tmp
export PTMPDIR=/tmp/ptmp
 argument  1 = ALA_MET_1.nw
                                         
                                         


             Northwest Computational Chemistry Package (NWChem) 7.2.0
             --------------------------------------------------------


                    Environmental Molecular Sciences Laboratory
                       Pacific Northwest National Laboratory
                                Richland, WA 99352

                              Copyright (c) 1994-2022
                       Pacific Northwest National Laboratory
                            Battelle Memorial Institute

             NWChem is an open-source computational chemistry package
                        distributed under the terms of the
                      Educational Community License (ECL) 2.0
             A copy of the license is included with this distribution
                              in the LICENSE.TXT file

                                  ACKNOWLEDGMENT
                                  --------------

            This software and its documentation were developed at the
            EMSL at Pacific Northwest National Laboratory, a multiprogram
            national laboratory, operated for the U.S. Department of Energy
            by Battelle under Contract Number DE-AC05-76RL01830. Support
            for this work was provided by the Department of Energy Office
            of Biological and Environmental Research, Office of Basic
            Energy Sciences, and the Office of Advanced Scientific Computing.


           Job information
           ---------------

    hostname        = nova18-45
    program         = /opt/rit/el9/20230413/app/linux-rhel9-x86_64_v3/gcc-11.2.1/nwchem-7.2.0-oxtctbuhfuzyfaoziquq6bki22grib3g/bin/nwchem
    date            = Fri Jun 27 15:32:09 2025

    compiled        = Wed_May_17_23:46:39_2023
    source          = /tmp/root/spack-stage/spack-stage-nwchem-7.2.0-oxtctbuhfuzyfaoziquq6bki22grib3g/spack-src
    nwchem branch   = 7.2.0
    nwchem revision = d0d141fd
    ga revision     = 5.8.0
    use scalapack   = T
    input           = ALA_MET_1.nw
    prefix          = ALA_MET_1.
    data base       = ./ALA_MET_1.db
    status          = startup
    nproc           =        8
    time left       =     -1s



           Memory information
           ------------------

    heap     =   26214394 doubles =    200.0 Mbytes
    stack    =   26214399 doubles =    200.0 Mbytes
    global   =   52428800 doubles =    400.0 Mbytes (distinct from heap & stack)
    total    =  104857593 doubles =    800.0 Mbytes
    verify   = yes
    hardfail = no 


           Directory information
           ---------------------

  0 permanent = .
  0 scratch   = .




                                NWChem Input Module
                                -------------------



 Scaling coordinates for geometry "geometry" by  1.889725989
 (inverse scale =  0.529177249)

 C1  symmetry detected

          ------
          auto-z
          ------
  no constraints, skipping    0.0000000000000000     
  no constraints, skipping    0.0000000000000000     


                             Geometry "geometry" -> ""
                             -------------------------

 Output coordinates in angstroms (scale by  1.889725989 to convert to a.u.)

  No.       Tag          Charge          X              Y              Z
 ---- ---------------- ---------- -------------- -------------- --------------
    1 H                    1.0000     2.78656180    -5.04863948    -0.25860673
    2 C                    6.0000     1.89369035    -5.60743843     0.01647564
    3 H                    1.0000     1.90888938    -5.83369153     1.08088699
    4 H                    1.0000     1.85243008    -6.53440885    -0.55390706
    5 C                    6.0000     0.66945597    -4.78251863    -0.30234016
    6 O                    8.0000    -0.16581458    -5.20137884    -1.09167421
    7 N                    7.0000     0.57025007    -3.60606660     0.31265399
    8 H                    1.0000     1.31909334    -3.31268942     0.92153212
    9 C                    6.0000    -0.52397417    -2.65371618     0.11993656
   10 H                    1.0000    -0.87471880    -2.72223283    -0.91184135
   11 C                    6.0000    -1.68293904    -3.02963616     1.05457906
   12 H                    1.0000    -2.01462176    -4.04644727     0.84121380
   13 H                    1.0000    -1.35685122    -2.96969347     2.09457455
   14 H                    1.0000    -2.52114071    -2.34875593     0.90179144
   15 C                    6.0000    -0.04632955    -1.20938794     0.36244338
   16 O                    8.0000     0.98179704    -0.98863295     1.00023249
   17 N                    7.0000    -0.80449223    -0.22747359    -0.13332125
   18 H                    1.0000    -1.65546819    -0.47052155    -0.62120813
   19 C                    6.0000    -0.52690453     1.20661699     0.01541765
   20 H                    1.0000    -0.05634990     1.37433462     0.98618958
   21 C                    6.0000     0.46112089     1.64540542    -1.08348155
   22 H                    1.0000     1.40389801     1.11581083    -0.93828555
   23 H                    1.0000     0.05895132     1.35845431    -2.05621826
   24 C                    6.0000     0.75561575     3.15117320    -1.11905089
   25 H                    1.0000     1.49621968     3.32860445    -1.89954623
   26 H                    1.0000    -0.15199039     3.68587847    -1.39871208
   27 S                   16.0000     1.39122290     3.84519805     0.43330540
   28 C                    6.0000     1.68337455     5.55344548    -0.09422481
   29 H                    1.0000     0.74853355     6.00082572    -0.43159735
   30 H                    1.0000     2.07658604     6.12943921     0.74457490
   31 H                    1.0000     2.40805099     5.56660105    -0.90833290
   32 C                    6.0000    -1.83858399     2.00474587    -0.01764720
   33 O                    8.0000    -2.79230495     1.61596395    -0.68257949
   34 N                    7.0000    -1.91563038     3.12451849     0.68817866
   35 H                    1.0000    -1.11634789     3.44601850     1.21160511
   36 H                    1.0000    -2.77876119     3.64134121     0.66994464

      Atomic Mass 
      ----------- 

      H                  1.007825
      C                 12.000000
      O                 15.994910
      N                 14.003070
      S                 31.972070


 Effective nuclear repulsion energy (a.u.)    1361.7259630623

            Nuclear Dipole moment (a.u.) 
            ----------------------------
        X                 Y               Z
 ---------------- ---------------- ----------------
     0.0000000000     0.0000000000     0.0000000000



                                Z-matrix (autoz)
                                -------- 

 Units are Angstrom for bonds and degrees for angles

      Type          Name      I     J     K     L     M      Value
      ----------- --------  ----- ----- ----- ----- ----- ----------
    1 Stretch                  1     2                       1.08864
    2 Stretch                  2     3                       1.08830
    3 Stretch                  2     4                       1.08918
    4 Stretch                  2     5                       1.51026
    5 Stretch                  5     6                       1.22318
    6 Stretch                  5     7                       1.33120
    7 Stretch                  7     8                       1.00875
    8 Stretch                  7     9                       1.46337
    9 Stretch                  9    10                       1.09192
   10 Stretch                  9    11                       1.53560
   11 Stretch                  9    15                       1.54047
   12 Stretch                 11    12                       1.09062
   13 Stretch                 11    13                       1.09157
   14 Stretch                 11    14                       1.09065
   15 Stretch                 15    16                       1.22986
   16 Stretch                 15    17                       1.33594
   17 Stretch                 17    18                       1.01058
   18 Stretch                 17    19                       1.46826
   19 Stretch                 19    20                       1.09176
   20 Stretch                 19    21                       1.54153
   21 Stretch                 19    32                       1.53578
   22 Stretch                 21    22                       1.09105
   23 Stretch                 21    23                       1.09101
   24 Stretch                 21    24                       1.53471
   25 Stretch                 24    25                       1.09048
   26 Stretch                 24    26                       1.08989
   27 Stretch                 24    27                       1.81534
   28 Stretch                 27    28                       1.81156
   29 Stretch                 28    29                       1.08991
   30 Stretch                 28    30                       1.09086
   31 Stretch                 28    31                       1.09000
   32 Stretch                 32    33                       1.22592
   33 Stretch                 32    34                       1.32590
   34 Stretch                 34    35                       1.00806
   35 Stretch                 34    36                       1.00620
   36 Bend                     1     2     3               110.02290
   37 Bend                     1     2     4               109.60889
   38 Bend                     1     2     5               109.33724
   39 Bend                     2     5     6               120.18042
   40 Bend                     2     5     7               116.46168
   41 Bend                     3     2     4               109.62004
   42 Bend                     3     2     5               109.35028
   43 Bend                     4     2     5               108.88125
   44 Bend                     5     7     8               118.72166
   45 Bend                     5     7     9               124.75195
   46 Bend                     6     5     7               123.35759
   47 Bend                     7     9    10               108.89258
   48 Bend                     7     9    11               108.95791
   49 Bend                     7     9    15               110.95276
   50 Bend                     8     7     9               116.44297
   51 Bend                     9    11    12               109.79732
   52 Bend                     9    11    13               109.93701
   53 Bend                     9    11    14               109.99526
   54 Bend                     9    15    16               120.60641
   55 Bend                     9    15    17               117.04829
   56 Bend                    10     9    11               108.50165
   57 Bend                    10     9    15               107.88970
   58 Bend                    11     9    15               111.57534
   59 Bend                    12    11    13               109.17442
   60 Bend                    12    11    14               108.71760
   61 Bend                    13    11    14               109.19438
   62 Bend                    15    17    18               118.70315
   63 Bend                    15    17    19               124.95999
   64 Bend                    16    15    17               122.33981
   65 Bend                    17    19    20               108.76011
   66 Bend                    17    19    21               109.08560
   67 Bend                    17    19    32               110.11731
   68 Bend                    18    17    19               116.29636
   69 Bend                    19    21    22               108.71151
   70 Bend                    19    21    23               108.93257
   71 Bend                    19    21    24               114.75815
   72 Bend                    19    32    33               120.75129
   73 Bend                    19    32    34               118.49399
   74 Bend                    20    19    21               108.29367
   75 Bend                    20    19    32               107.90391
   76 Bend                    21    19    32               112.59034
   77 Bend                    21    24    25               107.85155
   78 Bend                    21    24    26               109.11728
   79 Bend                    21    24    27               114.99052
   80 Bend                    22    21    23               108.02991
   81 Bend                    22    21    24               108.27144
   82 Bend                    23    21    24               107.94631
   83 Bend                    24    27    28                99.66907
   84 Bend                    25    24    26               107.58279
   85 Bend                    25    24    27               108.18276
   86 Bend                    26    24    27               108.87045
   87 Bend                    27    28    29               109.80864
   88 Bend                    27    28    30               109.39766
   89 Bend                    27    28    31               109.63918
   90 Bend                    29    28    30               109.29646
   91 Bend                    29    28    31               109.51800
   92 Bend                    30    28    31               109.16486
   93 Bend                    32    34    35               119.97905
   94 Bend                    32    34    36               118.29340
   95 Bend                    33    32    34               120.75469
   96 Bend                    35    34    36               121.71859
   97 Torsion                  1     2     5     6         119.87618
   98 Torsion                  1     2     5     7         -59.92508
   99 Torsion                  2     5     7     8           2.29741
  100 Torsion                  2     5     7     9         178.85088
  101 Torsion                  3     2     5     6        -119.60444
  102 Torsion                  3     2     5     7          60.59431
  103 Torsion                  4     2     5     6           0.14653
  104 Torsion                  4     2     5     7        -179.65473
  105 Torsion                  5     7     9    10         -32.90864
  106 Torsion                  5     7     9    11          85.26830
  107 Torsion                  5     7     9    15        -151.51000
  108 Torsion                  6     5     7     8        -177.49690
  109 Torsion                  6     5     7     9          -0.94343
  110 Torsion                  7     9    11    12         -58.60083
  111 Torsion                  7     9    11    13          61.52503
  112 Torsion                  7     9    11    14        -178.19965
  113 Torsion                  7     9    15    16         -19.29166
  114 Torsion                  7     9    15    17         161.54146
  115 Torsion                  8     7     9    10         143.71579
  116 Torsion                  8     7     9    11         -98.10727
  117 Torsion                  8     7     9    15          25.11443
  118 Torsion                  9    15    17    18           1.27080
  119 Torsion                  9    15    17    19         178.86497
  120 Torsion                 10     9    11    12          59.82181
  121 Torsion                 10     9    11    13         179.94768
  122 Torsion                 10     9    11    14         -59.77701
  123 Torsion                 10     9    15    16        -138.49698
  124 Torsion                 10     9    15    17          42.33615
  125 Torsion                 11     9    15    16         102.41055
  126 Torsion                 11     9    15    17         -76.75632
  127 Torsion                 12    11     9    15         178.55006
  128 Torsion                 13    11     9    15         -61.32407
  129 Torsion                 14    11     9    15          58.95124
  130 Torsion                 15    17    19    20         -33.65546
  131 Torsion                 15    17    19    21          84.26854
  132 Torsion                 15    17    19    32        -151.70119
  133 Torsion                 16    15    17    18        -177.88050
  134 Torsion                 16    15    17    19          -0.28633
  135 Torsion                 17    19    21    22         -63.30178
  136 Torsion                 17    19    21    23          54.19218
  137 Torsion                 17    19    21    24         175.31741
  138 Torsion                 17    19    32    33         -31.55495
  139 Torsion                 17    19    32    34         148.51313
  140 Torsion                 18    17    19    20         143.99079
  141 Torsion                 18    17    19    21         -98.08521
  142 Torsion                 18    17    19    32          25.94506
  143 Torsion                 19    21    24    25         177.36779
  144 Torsion                 19    21    24    26         -66.04761
  145 Torsion                 19    21    24    27          56.58341
  146 Torsion                 19    32    34    35           1.52977
  147 Torsion                 19    32    34    36        -179.53988
  148 Torsion                 20    19    21    22          54.91534
  149 Torsion                 20    19    21    23         172.40930
  150 Torsion                 20    19    21    24         -66.46547
  151 Torsion                 20    19    32    33        -150.12735
  152 Torsion                 20    19    32    34          29.94072
  153 Torsion                 21    19    32    33          90.42099
  154 Torsion                 21    19    32    34         -89.51094
  155 Torsion                 21    24    27    28         176.59783
  156 Torsion                 22    21    19    32         174.14036
  157 Torsion                 22    21    24    25          55.74682
  158 Torsion                 22    21    24    26         172.33142
  159 Torsion                 22    21    24    27         -65.03756
  160 Torsion                 23    21    19    32         -68.36568
  161 Torsion                 23    21    24    25         -60.96813
  162 Torsion                 23    21    24    26          55.61647
  163 Torsion                 23    21    24    27         178.24749
  164 Torsion                 24    21    19    32          52.75955
  165 Torsion                 24    27    28    29          59.90930
  166 Torsion                 24    27    28    30         179.85664
  167 Torsion                 24    27    28    31         -60.46091
  168 Torsion                 25    24    27    28          55.99492
  169 Torsion                 26    24    27    28         -60.63880
  170 Torsion                 33    32    34    35        -178.40216
  171 Torsion                 33    32    34    36           0.52820


            XYZ format geometry
            -------------------
    36
 geometry
 H                     2.78656180    -5.04863948    -0.25860673
 C                     1.89369035    -5.60743843     0.01647564
 H                     1.90888938    -5.83369153     1.08088699
 H                     1.85243008    -6.53440885    -0.55390706
 C                     0.66945597    -4.78251863    -0.30234016
 O                    -0.16581458    -5.20137884    -1.09167421
 N                     0.57025007    -3.60606660     0.31265399
 H                     1.31909334    -3.31268942     0.92153212
 C                    -0.52397417    -2.65371618     0.11993656
 H                    -0.87471880    -2.72223283    -0.91184135
 C                    -1.68293904    -3.02963616     1.05457906
 H                    -2.01462176    -4.04644727     0.84121380
 H                    -1.35685122    -2.96969347     2.09457455
 H                    -2.52114071    -2.34875593     0.90179144
 C                    -0.04632955    -1.20938794     0.36244338
 O                     0.98179704    -0.98863295     1.00023249
 N                    -0.80449223    -0.22747359    -0.13332125
 H                    -1.65546819    -0.47052155    -0.62120813
 C                    -0.52690453     1.20661699     0.01541765
 H                    -0.05634990     1.37433462     0.98618958
 C                     0.46112089     1.64540542    -1.08348155
 H                     1.40389801     1.11581083    -0.93828555
 H                     0.05895132     1.35845431    -2.05621826
 C                     0.75561575     3.15117320    -1.11905089
 H                     1.49621968     3.32860445    -1.89954623
 H                    -0.15199039     3.68587847    -1.39871208
 S                     1.39122290     3.84519805     0.43330540
 C                     1.68337455     5.55344548    -0.09422481
 H                     0.74853355     6.00082572    -0.43159735
 H                     2.07658604     6.12943921     0.74457490
 H                     2.40805099     5.56660105    -0.90833290
 C                    -1.83858399     2.00474587    -0.01764720
 O                    -2.79230495     1.61596395    -0.68257949
 N                    -1.91563038     3.12451849     0.68817866
 H                    -1.11634789     3.44601850     1.21160511
 H                    -2.77876119     3.64134121     0.66994464

 ==============================================================================
                                internuclear distances
 ------------------------------------------------------------------------------
       center one      |      center two      | atomic units |  angstroms
 ------------------------------------------------------------------------------
    2 C                |   1 H                |     2.05724  |     1.08864
    3 H                |   2 C                |     2.05659  |     1.08830
    4 H                |   2 C                |     2.05825  |     1.08918
    5 C                |   2 C                |     2.85398  |     1.51026
    6 O                |   5 C                |     2.31147  |     1.22318
    7 N                |   5 C                |     2.51561  |     1.33120
    8 H                |   7 N                |     1.90625  |     1.00875
    9 C                |   7 N                |     2.76536  |     1.46337
   10 H                |   9 C                |     2.06342  |     1.09192
   11 C                |   9 C                |     2.90187  |     1.53560
   12 H                |  11 C                |     2.06097  |     1.09062
   13 H                |  11 C                |     2.06276  |     1.09157
   14 H                |  11 C                |     2.06104  |     1.09065
   15 C                |   9 C                |     2.91106  |     1.54047
   16 O                |  15 C                |     2.32410  |     1.22986
   17 N                |  15 C                |     2.52457  |     1.33594
   18 H                |  17 N                |     1.90971  |     1.01058
   19 C                |  17 N                |     2.77461  |     1.46826
   20 H                |  19 C                |     2.06314  |     1.09176
   21 C                |  19 C                |     2.91307  |     1.54153
   22 H                |  21 C                |     2.06178  |     1.09105
   23 H                |  21 C                |     2.06171  |     1.09101
   24 C                |  21 C                |     2.90018  |     1.53471
   25 H                |  24 C                |     2.06071  |     1.09048
   26 H                |  24 C                |     2.05960  |     1.08989
   27 S                |  24 C                |     3.43050  |     1.81534
   28 C                |  27 S                |     3.42335  |     1.81156
   29 H                |  28 C                |     2.05963  |     1.08991
   30 H                |  28 C                |     2.06142  |     1.09086
   31 H                |  28 C                |     2.05980  |     1.09000
   32 C                |  19 C                |     2.90219  |     1.53578
   33 O                |  32 C                |     2.31665  |     1.22592
   34 N                |  32 C                |     2.50559  |     1.32590
   35 H                |  34 N                |     1.90496  |     1.00806
   36 H                |  34 N                |     1.90144  |     1.00620
 ------------------------------------------------------------------------------
                         number of included internuclear distances:         35
 ==============================================================================



 ==============================================================================
                                 internuclear angles
 ------------------------------------------------------------------------------
        center 1       |       center 2       |       center 3       |  degrees
 ------------------------------------------------------------------------------
    1 H                |   2 C                |   3 H                |   110.02
    1 H                |   2 C                |   4 H                |   109.61
    1 H                |   2 C                |   5 C                |   109.34
    3 H                |   2 C                |   4 H                |   109.62
    3 H                |   2 C                |   5 C                |   109.35
    4 H                |   2 C                |   5 C                |   108.88
    2 C                |   5 C                |   6 O                |   120.18
    2 C                |   5 C                |   7 N                |   116.46
    6 O                |   5 C                |   7 N                |   123.36
    5 C                |   7 N                |   8 H                |   118.72
    5 C                |   7 N                |   9 C                |   124.75
    8 H                |   7 N                |   9 C                |   116.44
    7 N                |   9 C                |  10 H                |   108.89
    7 N                |   9 C                |  11 C                |   108.96
    7 N                |   9 C                |  15 C                |   110.95
   10 H                |   9 C                |  11 C                |   108.50
   10 H                |   9 C                |  15 C                |   107.89
   11 C                |   9 C                |  15 C                |   111.58
    9 C                |  11 C                |  12 H                |   109.80
    9 C                |  11 C                |  13 H                |   109.94
    9 C                |  11 C                |  14 H                |   110.00
   12 H                |  11 C                |  13 H                |   109.17
   12 H                |  11 C                |  14 H                |   108.72
   13 H                |  11 C                |  14 H                |   109.19
    9 C                |  15 C                |  16 O                |   120.61
    9 C                |  15 C                |  17 N                |   117.05
   16 O                |  15 C                |  17 N                |   122.34
   15 C                |  17 N                |  18 H                |   118.70
   15 C                |  17 N                |  19 C                |   124.96
   18 H                |  17 N                |  19 C                |   116.30
   17 N                |  19 C                |  20 H                |   108.76
   17 N                |  19 C                |  21 C                |   109.09
   17 N                |  19 C                |  32 C                |   110.12
   20 H                |  19 C                |  21 C                |   108.29
   20 H                |  19 C                |  32 C                |   107.90
   21 C                |  19 C                |  32 C                |   112.59
   19 C                |  21 C                |  22 H                |   108.71
   19 C                |  21 C                |  23 H                |   108.93
   19 C                |  21 C                |  24 C                |   114.76
   22 H                |  21 C                |  23 H                |   108.03
   22 H                |  21 C                |  24 C                |   108.27
   23 H                |  21 C                |  24 C                |   107.95
   21 C                |  24 C                |  25 H                |   107.85
   21 C                |  24 C                |  26 H                |   109.12
   21 C                |  24 C                |  27 S                |   114.99
   25 H                |  24 C                |  26 H                |   107.58
   25 H                |  24 C                |  27 S                |   108.18
   26 H                |  24 C                |  27 S                |   108.87
   24 C                |  27 S                |  28 C                |    99.67
   27 S                |  28 C                |  29 H                |   109.81
   27 S                |  28 C                |  30 H                |   109.40
   27 S                |  28 C                |  31 H                |   109.64
   29 H                |  28 C                |  30 H                |   109.30
   29 H                |  28 C                |  31 H                |   109.52
   30 H                |  28 C                |  31 H                |   109.16
   19 C                |  32 C                |  33 O                |   120.75
   19 C                |  32 C                |  34 N                |   118.49
   33 O                |  32 C                |  34 N                |   120.75
   32 C                |  34 N                |  35 H                |   119.98
   32 C                |  34 N                |  36 H                |   118.29
   35 H                |  34 N                |  36 H                |   121.72
 ------------------------------------------------------------------------------
                            number of included internuclear angles:         61
 ==============================================================================



  library name resolved from: environment
  library file name is: </opt/rit/el9/20230413/app/linux-rhel9-x86_64_v3/gcc-11.2.1/nwchem-7.2.0-oxtctbuhfuzyfaoziquq6bki22grib3g/share/nwchem/libraries/>
  


 Summary of "ao basis" -> "" (cartesian)
 ------------------------------------------------------------------------------
       Tag                 Description            Shells   Functions and Types
 ---------------- ------------------------------  ------  ---------------------
 *                        aug-cc-pvdz                 on all atoms 


                      Basis "ao basis" -> "ao basis" (cartesian)
                      -----
  H (Hydrogen)
  ------------
            Exponent  Coefficients 
       -------------- ---------------------------------------------------------
  1 S  1.30100000E+01  0.019685
  1 S  1.96200000E+00  0.137977
  1 S  4.44600000E-01  0.478148

  2 S  1.22000000E-01  1.000000

  3 S  2.97400000E-02  1.000000

  4 P  7.27000000E-01  1.000000

  5 P  1.41000000E-01  1.000000

  C (Carbon)
  ----------
            Exponent  Coefficients 
       -------------- ---------------------------------------------------------
  1 S  6.66500000E+03  0.000692
  1 S  1.00000000E+03  0.005329
  1 S  2.28000000E+02  0.027077
  1 S  6.47100000E+01  0.101718
  1 S  2.10600000E+01  0.274740
  1 S  7.49500000E+00  0.448564
  1 S  2.79700000E+00  0.285074
  1 S  5.21500000E-01  0.015204

  2 S  6.66500000E+03 -0.000146
  2 S  1.00000000E+03 -0.001154
  2 S  2.28000000E+02 -0.005725
  2 S  6.47100000E+01 -0.023312
  2 S  2.10600000E+01 -0.063955
  2 S  7.49500000E+00 -0.149981
  2 S  2.79700000E+00 -0.127262
  2 S  5.21500000E-01  0.544529

  3 S  1.59600000E-01  1.000000

  4 S  4.69000000E-02  1.000000

  5 P  9.43900000E+00  0.038109
  5 P  2.00200000E+00  0.209480
  5 P  5.45600000E-01  0.508557

  6 P  1.51700000E-01  1.000000

  7 P  4.04100000E-02  1.000000

  8 D  5.50000000E-01  1.000000

  9 D  1.51000000E-01  1.000000

  O (Oxygen)
  ----------
            Exponent  Coefficients 
       -------------- ---------------------------------------------------------
  1 S  1.17200000E+04  0.000710
  1 S  1.75900000E+03  0.005470
  1 S  4.00800000E+02  0.027837
  1 S  1.13700000E+02  0.104800
  1 S  3.70300000E+01  0.283062
  1 S  1.32700000E+01  0.448719
  1 S  5.02500000E+00  0.270952
  1 S  1.01300000E+00  0.015458

  2 S  1.17200000E+04 -0.000160
  2 S  1.75900000E+03 -0.001263
  2 S  4.00800000E+02 -0.006267
  2 S  1.13700000E+02 -0.025716
  2 S  3.70300000E+01 -0.070924
  2 S  1.32700000E+01 -0.165411
  2 S  5.02500000E+00 -0.116955
  2 S  1.01300000E+00  0.557368

  3 S  3.02300000E-01  1.000000

  4 S  7.89600000E-02  1.000000

  5 P  1.77000000E+01  0.043018
  5 P  3.85400000E+00  0.228913
  5 P  1.04600000E+00  0.508728

  6 P  2.75300000E-01  1.000000

  7 P  6.85600000E-02  1.000000

  8 D  1.18500000E+00  1.000000

  9 D  3.32000000E-01  1.000000

  N (Nitrogen)
  ------------
            Exponent  Coefficients 
       -------------- ---------------------------------------------------------
  1 S  9.04600000E+03  0.000700
  1 S  1.35700000E+03  0.005389
  1 S  3.09300000E+02  0.027406
  1 S  8.77300000E+01  0.103207
  1 S  2.85600000E+01  0.278723
  1 S  1.02100000E+01  0.448540
  1 S  3.83800000E+00  0.278238
  1 S  7.46600000E-01  0.015440

  2 S  9.04600000E+03 -0.000153
  2 S  1.35700000E+03 -0.001208
  2 S  3.09300000E+02 -0.005992
  2 S  8.77300000E+01 -0.024544
  2 S  2.85600000E+01 -0.067459
  2 S  1.02100000E+01 -0.158078
  2 S  3.83800000E+00 -0.121831
  2 S  7.46600000E-01  0.549003

  3 S  2.24800000E-01  1.000000

  4 S  6.12400000E-02  1.000000

  5 P  1.35500000E+01  0.039919
  5 P  2.91700000E+00  0.217169
  5 P  7.97300000E-01  0.510319

  6 P  2.18500000E-01  1.000000

  7 P  5.61100000E-02  1.000000

  8 D  8.17000000E-01  1.000000

  9 D  2.30000000E-01  1.000000

  S (Sulphur)
  -----------
            Exponent  Coefficients 
       -------------- ---------------------------------------------------------
  1 S  1.10800000E+05  0.000248
  1 S  1.66100000E+04  0.001920
  1 S  3.78100000E+03  0.009962
  1 S  1.07100000E+03  0.040298
  1 S  3.49800000E+02  0.128604
  1 S  1.26300000E+02  0.303480
  1 S  4.92600000E+01  0.421432
  1 S  2.01600000E+01  0.230781
  1 S  5.72000000E+00  0.017897
  1 S  2.18200000E+00 -0.002975
  1 S  4.32700000E-01  0.000850

  2 S  1.10800000E+05 -0.000069
  2 S  1.66100000E+04 -0.000528
  2 S  3.78100000E+03 -0.002797
  2 S  1.07100000E+03 -0.011265
  2 S  3.49800000E+02 -0.038883
  2 S  1.26300000E+02 -0.099503
  2 S  4.92600000E+01 -0.199740
  2 S  2.01600000E+01 -0.123360
  2 S  5.72000000E+00  0.513194
  2 S  2.18200000E+00  0.607120
  2 S  4.32700000E-01  0.039675

  3 S  1.10800000E+05  0.000020
  3 S  1.66100000E+04  0.000153
  3 S  3.78100000E+03  0.000810
  3 S  1.07100000E+03  0.003290
  3 S  3.49800000E+02  0.011297
  3 S  1.26300000E+02  0.029639
  3 S  4.92600000E+01  0.059985
  3 S  2.01600000E+01  0.041325
  3 S  5.72000000E+00 -0.207474
  3 S  2.18200000E+00 -0.392889
  3 S  4.32700000E-01  0.632840

  4 S  1.57000000E-01  1.000000

  5 S  5.07000000E-02  1.000000

  6 P  3.99700000E+02  0.004475
  6 P  9.41900000E+01  0.034171
  6 P  2.97500000E+01  0.144250
  6 P  1.07700000E+01  0.353928
  6 P  4.11900000E+00  0.459085
  6 P  1.62500000E+00  0.206383
  6 P  4.72600000E-01  0.010214

  7 P  3.99700000E+02 -0.001163
  7 P  9.41900000E+01 -0.008657
  7 P  2.97500000E+01 -0.039089
  7 P  1.07700000E+01 -0.093463
  7 P  4.11900000E+00 -0.147994
  7 P  1.62500000E+00  0.030190
  7 P  4.72600000E-01  0.561573

  8 P  1.40700000E-01  1.000000

  9 P  3.99000000E-02  1.000000

 10 D  4.79000000E-01  1.000000

 11 D  1.52000000E-01  1.000000



 Summary of "ao basis" -> "ao basis" (cartesian)
 ------------------------------------------------------------------------------
       Tag                 Description            Shells   Functions and Types
 ---------------- ------------------------------  ------  ---------------------
 H                        aug-cc-pvdz                5        9   3s2p
 C                        aug-cc-pvdz                9       25   4s3p2d
 O                        aug-cc-pvdz                9       25   4s3p2d
 N                        aug-cc-pvdz                9       25   4s3p2d
 S                        aug-cc-pvdz               11       29   5s4p2d


                                 NWChem SCF Module
                                 -----------------



  ao basis        = "ao basis"
  functions       =   600
  atoms           =    36
  closed shells   =    70
  open shells     =     0
  charge          =   0.00
  wavefunction    = RHF 
  input vectors   = atomic
  output vectors  = ./ALA_MET_1.movecs
  use symmetry    = F
  symmetry adapt  = F


 Summary of "ao basis" -> "ao basis" (cartesian)
 ------------------------------------------------------------------------------
       Tag                 Description            Shells   Functions and Types
 ---------------- ------------------------------  ------  ---------------------
 H                        aug-cc-pvdz                5        9   3s2p
 C                        aug-cc-pvdz                9       25   4s3p2d
 O                        aug-cc-pvdz                9       25   4s3p2d
 N                        aug-cc-pvdz                9       25   4s3p2d
 S                        aug-cc-pvdz               11       29   5s4p2d



 Forming initial guess at       1.0s


 !! The overlap matrix has   5 vectors deemed linearly dependent with
    eigenvalues:
 2.47D-06 2.75D-06 6.69D-06 7.40D-06 8.70D-06


      Superposition of Atomic Density Guess
      -------------------------------------

 Sum of atomic energies:       -1170.84498976

      Non-variational initial energy
      ------------------------------

 Total energy =   -1181.678809
 1-e energy   =   -4305.799666
 2-e energy   =    1762.394895
 HOMO         =      -0.264225
 LUMO         =       0.007328


 Starting SCF solution at     314.1s



 ----------------------------------------------
         Quadratically convergent ROHF

 Convergence threshold     :          1.000E-04
 Maximum no. of iterations :           30
 Final Fock-matrix accuracy:          1.000E-10
 ----------------------------------------------


              iter       energy          gnorm     gmax       time
             ----- ------------------- --------- --------- --------
                 1    -1175.0081716275  2.42D+00  1.25D-01    474.7
                 2    -1175.3265891536  8.32D-01  4.62D-02    932.9
                 3    -1175.3876520251  6.25D-02  4.15D-03   1627.9
                 4    -1175.3882651775  3.58D-03  3.59D-04   2462.4
                 5    -1175.3882677108  6.80D-06  3.64D-07   3962.1


       Final RHF  results 
       ------------------ 

         Total SCF energy =  -1175.388267710802
      One-electron energy =  -4318.135955181986
      Two-electron energy =   1781.021724408839
 Nuclear repulsion energy =   1361.725963062345

        Time for solution =   3700.5s


             Final eigenvalues
             -----------------

              1      
    1  -91.9662
    2  -20.5401
    3  -20.5368
    4  -20.5141
    5  -15.6082
    6  -15.6066
    7  -15.5888
    8  -11.3733
    9  -11.3685
   10  -11.3463
   11  -11.3091
   12  -11.2963
   13  -11.2808
   14  -11.2780
   15  -11.2603
   16  -11.2354
   17  -11.2343
   18   -8.9673
   19   -6.6496
   20   -6.6483
   21   -6.6463
   22   -1.4040
   23   -1.3946
   24   -1.3760
   25   -1.2526
   26   -1.2376
   27   -1.2365
   28   -1.1128
   29   -1.0656
   30   -1.0416
   31   -0.9891
   32   -0.9758
   33   -0.8976
   34   -0.8880
   35   -0.8316
   36   -0.8166
   37   -0.7856
   38   -0.7835
   39   -0.7596
   40   -0.7213
   41   -0.6870
   42   -0.6735
   43   -0.6607
   44   -0.6534
   45   -0.6501
   46   -0.6269
   47   -0.6171
   48   -0.6125
   49   -0.6077
   50   -0.5995
   51   -0.5934
   52   -0.5809
   53   -0.5761
   54   -0.5621
   55   -0.5601
   56   -0.5507
   57   -0.5417
   58   -0.5294
   59   -0.5241
   60   -0.5170
   61   -0.4992
   62   -0.4939
   63   -0.4472
   64   -0.4384
   65   -0.4325
   66   -0.4255
   67   -0.4124
   68   -0.4047
   69   -0.3869
   70   -0.3569
   71    0.0253
   72    0.0356
   73    0.0379
   74    0.0408
   75    0.0481
   76    0.0499
   77    0.0548
   78    0.0604
   79    0.0624
   80    0.0676

                       ROHF Final Molecular Orbital Analysis
                       -------------------------------------

 Vector   22  Occ=2.000000D+00  E=-1.404042D+00
              MO Center= -1.9D+00,  1.3D+00, -1.7D-01, r^2= 3.4D+00
   Bfn.  Coefficient  Atom+Function         Bfn.  Coefficient  Atom+Function  
  ----- ------------  ---------------      ----- ------------  ---------------
   535      0.343094  33 O  s               534      0.314222  33 O  s         
   509      0.224375  32 C  s         

 Vector   23  Occ=2.000000D+00  E=-1.394567D+00
              MO Center= -4.9D-02, -6.1D-01,  4.6D-01, r^2= 4.3D+00
   Bfn.  Coefficient  Atom+Function         Bfn.  Coefficient  Atom+Function  
  ----- ------------  ---------------      ----- ------------  ---------------
   250      0.326519  16 O  s               249      0.312213  16 O  s         
   224      0.216393  15 C  s               535     -0.170285  33 O  s         
   534     -0.155929  33 O  s         

 Vector   24  Occ=2.000000D+00  E=-1.376041D+00
              MO Center=  1.7D-01, -4.7D+00, -6.5D-01, r^2= 1.7D+00
   Bfn.  Coefficient  Atom+Function         Bfn.  Coefficient  Atom+Function  
  ----- ------------  ---------------      ----- ------------  ---------------
    79      0.343671   6 O  s                80      0.344800   6 O  s         
    54      0.242064   5 C  s                12      0.168909   2 C  s         

 Vector   25  Occ=2.000000D+00  E=-1.252559D+00
              MO Center= -5.4D-01, -1.9D-01,  3.7D-02, r^2= 1.9D+00
   Bfn.  Coefficient  Atom+Function         Bfn.  Coefficient  Atom+Function  
  ----- ------------  ---------------      ----- ------------  ---------------
   275      0.429446  17 N  s               274      0.340171  17 N  s         
   250     -0.217448  16 O  s               249     -0.180798  16 O  s         
   227     -0.152850  15 C  px              298      0.150890  18 H  s         
   308      0.150134  19 C  s         

 Vector   26  Occ=2.000000D+00  E=-1.237579D+00
              MO Center=  1.7D-01, -3.2D+00,  1.1D-01, r^2= 5.5D+00
   Bfn.  Coefficient  Atom+Function         Bfn.  Coefficient  Atom+Function  
  ----- ------------  ---------------      ----- ------------  ---------------
   105      0.422137   7 N  s               104      0.327082   7 N  s         
    80     -0.203036   6 O  s                79     -0.177052   6 O  s         

 Vector   27  Occ=2.000000D+00  E=-1.236541D+00
              MO Center= -1.7D+00,  2.2D+00,  4.0D-01, r^2= 5.4D+00
   Bfn.  Coefficient  Atom+Function         Bfn.  Coefficient  Atom+Function  
  ----- ------------  ---------------      ----- ------------  ---------------
   560      0.362416  34 N  s               559      0.352257  34 N  s         
   535     -0.201870  33 O  s               534     -0.169625  33 O  s         
   583      0.159348  35 H  s         

 Vector   28  Occ=2.000000D+00  E=-1.112847D+00
              MO Center=  5.8D-01,  2.6D+00, -5.6D-01, r^2= 4.3D+00
   Bfn.  Coefficient  Atom+Function         Bfn.  Coefficient  Atom+Function  
  ----- ------------  ---------------      ----- ------------  ---------------
   385      0.228146  24 C  s               342      0.206692  21 C  s         
   429      0.195119  27 S  s         

 Vector   29  Occ=2.000000D+00  E=-1.065598D+00
              MO Center=  9.4D-02, -3.9D-01,  1.6D-01, r^2= 1.5D+01
   Bfn.  Coefficient  Atom+Function         Bfn.  Coefficient  Atom+Function  
  ----- ------------  ---------------      ----- ------------  ---------------
   138      0.191854   9 C  s               429      0.159906  27 S  s         
   172      0.151518  11 C  s         

 Vector   30  Occ=2.000000D+00  E=-1.041597D+00
              MO Center=  4.2D-01,  5.7D-01,  3.9D-03, r^2= 1.7D+01
   Bfn.  Coefficient  Atom+Function         Bfn.  Coefficient  Atom+Function  
  ----- ------------  ---------------      ----- ------------  ---------------
   309      0.215501  19 C  s               457     -0.176689  28 C  s         
   429     -0.159873  27 S  s               386     -0.153662  24 C  s         

 Vector   31  Occ=2.000000D+00  E=-9.890712D-01
              MO Center=  1.1D+00, -3.0D+00, -3.6D-02, r^2= 1.6D+01
   Bfn.  Coefficient  Atom+Function         Bfn.  Coefficient  Atom+Function  
  ----- ------------  ---------------      ----- ------------  ---------------
    11      0.291521   2 C  s                56     -0.181587   5 C  s         

 Vector   32  Occ=2.000000D+00  E=-9.757676D-01
              MO Center=  1.1D-01,  6.4D-01, -5.3D-02, r^2= 1.6D+01
   Bfn.  Coefficient  Atom+Function         Bfn.  Coefficient  Atom+Function  
  ----- ------------  ---------------      ----- ------------  ---------------
   225      0.235427  15 C  s               308      0.176236  19 C  s         
   145     -0.171930   9 C  py              385     -0.167211  24 C  s         
   139     -0.165796   9 C  s                56     -0.160475   5 C  s         
   457      0.158915  28 C  s               144     -0.157042   9 C  px        
   172      0.157023  11 C  s               231     -0.156911  15 C  py        

 Vector   33  Occ=2.000000D+00  E=-8.976241D-01
              MO Center=  5.9D-02,  3.1D-01,  3.1D-02, r^2= 1.5D+01
   Bfn.  Coefficient  Atom+Function         Bfn.  Coefficient  Atom+Function  
  ----- ------------  ---------------      ----- ------------  ---------------
   145      0.222965   9 C  py              144      0.188479   9 C  px        
   172     -0.186249  11 C  s               139      0.166863   9 C  s         
   225     -0.162494  15 C  s               342      0.162463  21 C  s         
   458      0.154526  28 C  s         

 Vector   34  Occ=2.000000D+00  E=-8.880200D-01
              MO Center= -3.1D-01,  4.7D-01,  8.9D-02, r^2= 1.4D+01
   Bfn.  Coefficient  Atom+Function         Bfn.  Coefficient  Atom+Function  
  ----- ------------  ---------------      ----- ------------  ---------------
   309      0.263614  19 C  s               314     -0.231429  19 C  px        
   172     -0.163183  11 C  s               145      0.152665   9 C  py        
   342     -0.152884  21 C  s               516      0.152992  32 C  py        
   144      0.150847   9 C  px        

 Vector   35  Occ=2.000000D+00  E=-8.316036D-01
              MO Center= -5.5D-01,  2.2D+00,  1.0D-01, r^2= 9.8D+00
   Bfn.  Coefficient  Atom+Function         Bfn.  Coefficient  Atom+Function  
  ----- ------------  ---------------      ----- ------------  ---------------
   430     -0.222345  27 S  s               309      0.220966  19 C  s         
   563     -0.219725  34 N  py              429     -0.189928  27 S  s         
   509      0.189831  32 C  s               516      0.173726  32 C  py        
   592     -0.150920  36 H  s         

 Vector   36  Occ=2.000000D+00  E=-8.165578D-01
              MO Center=  5.6D-03,  3.6D-01, -1.4D-01, r^2= 9.6D+00
   Bfn.  Coefficient  Atom+Function         Bfn.  Coefficient  Atom+Function  
  ----- ------------  ---------------      ----- ------------  ---------------
   386      0.308425  24 C  s               275      0.234836  17 N  s         
   225     -0.223187  15 C  s               277     -0.218632  17 N  px        
   298      0.212337  18 H  s               343     -0.211576  21 C  s         
   430     -0.204734  27 S  s               429     -0.158881  27 S  s         
   224     -0.154138  15 C  s         

 Vector   37  Occ=2.000000D+00  E=-7.855654D-01
              MO Center=  2.1D-02, -1.6D+00,  1.2D-01, r^2= 1.2D+01
   Bfn.  Coefficient  Atom+Function         Bfn.  Coefficient  Atom+Function  
  ----- ------------  ---------------      ----- ------------  ---------------
   139     -0.259297   9 C  s               128      0.257790   8 H  s         
   105      0.219073   7 N  s               109      0.199394   7 N  pz        
    55     -0.193135   5 C  s               144     -0.184552   9 C  px        
   108      0.174534   7 N  py              231     -0.162644  15 C  py        

 Vector   38  Occ=2.000000D+00  E=-7.834786D-01
              MO Center= -1.9D-01,  4.0D-01, -8.7D-02, r^2= 1.0D+01
   Bfn.  Coefficient  Atom+Function         Bfn.  Coefficient  Atom+Function  
  ----- ------------  ---------------      ----- ------------  ---------------
   225      0.309661  15 C  s               298     -0.199792  18 H  s         
   386      0.188186  24 C  s               430     -0.185308  27 S  s         
   511      0.183229  32 C  s               277      0.175527  17 N  px        
   314     -0.153877  19 C  px        

 Vector   39  Occ=2.000000D+00  E=-7.595579D-01
              MO Center= -1.1D+00,  1.1D+00,  3.1D-01, r^2= 9.0D+00
   Bfn.  Coefficient  Atom+Function         Bfn.  Coefficient  Atom+Function  
  ----- ------------  ---------------      ----- ------------  ---------------
   562      0.272133  34 N  px              583      0.255992  35 H  s         
   592     -0.161533  36 H  s         

 Vector   40  Occ=2.000000D+00  E=-7.212874D-01
              MO Center= -7.0D-01, -2.6D-01,  3.5D-01, r^2= 1.4D+01
   Bfn.  Coefficient  Atom+Function         Bfn.  Coefficient  Atom+Function  
  ----- ------------  ---------------      ----- ------------  ---------------
   562      0.262040  34 N  px              592     -0.249953  36 H  s         
   145     -0.204715   9 C  py              142     -0.191583   9 C  py        
   228      0.186001  15 C  py              583      0.150456  35 H  s         

 Vector   41  Occ=2.000000D+00  E=-6.870273D-01
              MO Center= -5.7D-01,  4.8D-01, -3.0D-02, r^2= 8.0D+00
   Bfn.  Coefficient  Atom+Function         Bfn.  Coefficient  Atom+Function  
  ----- ------------  ---------------      ----- ------------  ---------------
   537     -0.209987  33 O  px              309      0.198253  19 C  s         
   332      0.193094  20 H  s               313      0.164028  19 C  pz        
   510     -0.160100  32 C  s         

 Vector   42  Occ=2.000000D+00  E=-6.734868D-01
              MO Center= -6.3D-02, -1.4D+00, -1.9D-01, r^2= 1.3D+01
   Bfn.  Coefficient  Atom+Function         Bfn.  Coefficient  Atom+Function  
  ----- ------------  ---------------      ----- ------------  ---------------
    80      0.174542   6 O  s                82     -0.167307   6 O  px        
   278     -0.164898  17 N  py              312      0.150652  19 C  py        

 Vector   43  Occ=2.000000D+00  E=-6.607130D-01
              MO Center= -2.6D-01,  1.2D+00, -6.0D-01, r^2= 1.1D+01
   Bfn.  Coefficient  Atom+Function         Bfn.  Coefficient  Atom+Function  
  ----- ------------  ---------------      ----- ------------  ---------------
   388      0.196662  24 C  px              345      0.184136  21 C  px        
   513     -0.182661  32 C  py              343      0.175155  21 C  s         
   418     -0.173437  26 H  s               314     -0.170401  19 C  px        
   510     -0.155360  32 C  s         

 Vector   44  Occ=2.000000D+00  E=-6.534376D-01
              MO Center= -1.7D-01, -1.4D+00, -6.9D-02, r^2= 1.1D+01
   Bfn.  Coefficient  Atom+Function         Bfn.  Coefficient  Atom+Function  
  ----- ------------  ---------------      ----- ------------  ---------------
   107      0.183748   7 N  px              162      0.180171  10 H  s         
   143     -0.160006   9 C  pz              277      0.155708  17 N  px        

 Vector   45  Occ=2.000000D+00  E=-6.501274D-01
              MO Center= -4.1D-02, -2.0D+00, -1.5D-02, r^2= 1.1D+01
   Bfn.  Coefficient  Atom+Function         Bfn.  Coefficient  Atom+Function  
  ----- ------------  ---------------      ----- ------------  ---------------
    13      0.209004   2 C  s                56     -0.204377   5 C  s         
    58      0.194440   5 C  py               82     -0.168331   6 O  px        
   250     -0.167672  16 O  s               227      0.162741  15 C  px        
   537     -0.155304  33 O  px              252     -0.152577  16 O  px        
   511     -0.153323  32 C  s         

 Vector   46  Occ=2.000000D+00  E=-6.268577D-01
              MO Center=  1.6D-01, -2.5D+00, -6.0D-03, r^2= 1.1D+01
   Bfn.  Coefficient  Atom+Function         Bfn.  Coefficient  Atom+Function  
  ----- ------------  ---------------      ----- ------------  ---------------
   139      0.474204   9 C  s               173     -0.374750  11 C  s         
   225     -0.218644  15 C  s                59      0.183774   5 C  pz        
   309     -0.175293  19 C  s               145      0.154835   9 C  py        
    16      0.152584   2 C  pz        

 Vector   47  Occ=2.000000D+00  E=-6.170984D-01
              MO Center=  5.8D-01,  1.0D+00, -2.4D-01, r^2= 2.0D+01
   Bfn.  Coefficient  Atom+Function         Bfn.  Coefficient  Atom+Function  
  ----- ------------  ---------------      ----- ------------  ---------------
   462     -0.217831  28 C  pz              139      0.212486   9 C  s         
   343     -0.211483  21 C  s               367      0.161157  22 H  s         
    56      0.158859   5 C  s               347      0.157262  21 C  pz        
   490     -0.151896  30 H  s         

 Vector   48  Occ=2.000000D+00  E=-6.125329D-01
              MO Center=  1.9D-01,  3.0D+00, -3.3D-01, r^2= 1.3D+01
   Bfn.  Coefficient  Atom+Function         Bfn.  Coefficient  Atom+Function  
  ----- ------------  ---------------      ----- ------------  ---------------
   315      0.276711  19 C  py              460      0.247465  28 C  px        
   481     -0.206412  29 H  s               512      0.192343  32 C  px        
   309      0.191146  19 C  s               499      0.185093  31 H  s         
   539     -0.173328  33 O  pz              410      0.163271  25 H  s         
   510     -0.162117  32 C  s               511      0.156157  32 C  s         

 Vector   49  Occ=2.000000D+00  E=-6.077033D-01
              MO Center=  5.5D-01, -3.3D-01,  2.4D-01, r^2= 1.7D+01
   Bfn.  Coefficient  Atom+Function         Bfn.  Coefficient  Atom+Function  
  ----- ------------  ---------------      ----- ------------  ---------------
   227      0.193594  15 C  px              254     -0.184930  16 O  pz        
   252     -0.175881  16 O  px              462      0.169818  28 C  pz        
   490      0.167246  30 H  s               491      0.167887  30 H  s         
   250     -0.150927  16 O  s         

 Vector   50  Occ=2.000000D+00  E=-5.994908D-01
              MO Center=  2.7D-01,  3.4D+00, -4.8D-02, r^2= 1.2D+01
   Bfn.  Coefficient  Atom+Function         Bfn.  Coefficient  Atom+Function  
  ----- ------------  ---------------      ----- ------------  ---------------
   460      0.262754  28 C  px              491      0.240098  30 H  s         
   343     -0.234908  21 C  s               481     -0.229755  29 H  s         
   490      0.225776  30 H  s               462      0.172347  28 C  pz        
   309      0.169021  19 C  s               538      0.154060  33 O  py        

 Vector   51  Occ=2.000000D+00  E=-5.933893D-01
              MO Center=  6.3D-01, -8.7D-01,  4.5D-02, r^2= 1.8D+01
   Bfn.  Coefficient  Atom+Function         Bfn.  Coefficient  Atom+Function  
  ----- ------------  ---------------      ----- ------------  ---------------
   309      0.231247  19 C  s               252      0.202682  16 O  px        
   229     -0.177242  15 C  pz              499     -0.155462  31 H  s         
    35      0.153000   3 H  s         

 Vector   52  Occ=2.000000D+00  E=-5.808991D-01
              MO Center=  9.6D-03,  1.7D-01, -2.2D-01, r^2= 2.0D+01
   Bfn.  Coefficient  Atom+Function         Bfn.  Coefficient  Atom+Function  
  ----- ------------  ---------------      ----- ------------  ---------------
   315      0.187724  19 C  py              309      0.172578  19 C  s         
   388      0.165658  24 C  px              539     -0.164175  33 O  pz        
   499     -0.158537  31 H  s               333     -0.156859  20 H  s         
   214     -0.151961  14 H  s         

 Vector   53  Occ=2.000000D+00  E=-5.760837D-01
              MO Center= -8.5D-01, -3.5D-01, -7.1D-03, r^2= 1.6D+01
   Bfn.  Coefficient  Atom+Function         Bfn.  Coefficient  Atom+Function  
  ----- ------------  ---------------      ----- ------------  ---------------
   539      0.201792  33 O  pz              564      0.165144  34 N  pz        
   214     -0.153768  14 H  s         

 Vector   54  Occ=2.000000D+00  E=-5.620958D-01
              MO Center=  1.7D-01, -3.1D-01, -2.4D-01, r^2= 1.7D+01
   Bfn.  Coefficient  Atom+Function         Bfn.  Coefficient  Atom+Function  
  ----- ------------  ---------------      ----- ------------  ---------------
   333      0.214854  20 H  s               332      0.180669  20 H  s         
    45      0.175588   4 H  s               284     -0.156214  17 N  py        
   390     -0.151894  24 C  pz        

 Vector   55  Occ=2.000000D+00  E=-5.601310D-01
              MO Center=  3.6D-01, -3.1D+00, -3.4D-02, r^2= 1.4D+01
   Bfn.  Coefficient  Atom+Function         Bfn.  Coefficient  Atom+Function  
  ----- ------------  ---------------      ----- ------------  ---------------
    45     -0.208931   4 H  s                 1      0.194355   1 H  s         
    44     -0.181545   4 H  s                15      0.178601   2 C  py        
    14      0.163324   2 C  px              197      0.162555  12 H  s         
    84      0.155895   6 O  pz              176     -0.156248  11 C  py        

 Vector   56  Occ=2.000000D+00  E=-5.507061D-01
              MO Center=  2.1D-01, -2.2D+00,  8.2D-02, r^2= 1.5D+01
   Bfn.  Coefficient  Atom+Function         Bfn.  Coefficient  Atom+Function  
  ----- ------------  ---------------      ----- ------------  ---------------
   309      0.251109  19 C  s               343     -0.216564  21 C  s         
    16     -0.203024   2 C  pz               44      0.191444   4 H  s         
   333     -0.168112  20 H  s               139      0.166114   9 C  s         
    35     -0.162013   3 H  s               367      0.161493  22 H  s         
   141     -0.159591   9 C  px        

 Vector   57  Occ=2.000000D+00  E=-5.416998D-01
              MO Center= -2.9D-01, -2.6D+00,  4.8D-01, r^2= 9.8D+00
   Bfn.  Coefficient  Atom+Function         Bfn.  Coefficient  Atom+Function  
  ----- ------------  ---------------      ----- ------------  ---------------
   197     -0.265331  12 H  s               176      0.260993  11 C  py        
   196     -0.250744  12 H  s               253      0.182767  16 O  py        
   309      0.179243  19 C  s               163      0.169815  10 H  s         
    44     -0.164747   4 H  s         

 Vector   58  Occ=2.000000D+00  E=-5.293919D-01
              MO Center=  2.2D-01,  1.9D+00, -8.1D-01, r^2= 5.8D+00
   Bfn.  Coefficient  Atom+Function         Bfn.  Coefficient  Atom+Function  
  ----- ------------  ---------------      ----- ------------  ---------------
   366      0.298772  22 H  s               345      0.258761  21 C  px        
   376     -0.225814  23 H  s               367      0.217078  22 H  s         
   510      0.212865  32 C  s               418      0.208744  26 H  s         
   315     -0.200109  19 C  py              388     -0.176416  24 C  px        
   515      0.165335  32 C  px              346     -0.164338  21 C  py        

 Vector   59  Occ=2.000000D+00  E=-5.241259D-01
              MO Center= -6.5D-01, -2.7D+00,  5.3D-01, r^2= 7.0D+00
   Bfn.  Coefficient  Atom+Function         Bfn.  Coefficient  Atom+Function  
  ----- ------------  ---------------      ----- ------------  ---------------
   206      0.266717  13 H  s               205      0.242092  13 H  s         
   163      0.225391  10 H  s               175      0.217340  11 C  px        
   214     -0.203213  14 H  s               177      0.189160  11 C  pz        
   162      0.181285  10 H  s               107      0.179069   7 N  px        
   141     -0.159927   9 C  px              215     -0.158191  14 H  s         

 Vector   60  Occ=2.000000D+00  E=-5.169812D-01
              MO Center=  2.7D-01, -9.5D-01,  8.2D-02, r^2= 1.2D+01
   Bfn.  Coefficient  Atom+Function         Bfn.  Coefficient  Atom+Function  
  ----- ------------  ---------------      ----- ------------  ---------------
   163      0.214174  10 H  s               254      0.210807  16 O  pz        
   313     -0.188434  19 C  pz              257      0.162641  16 O  pz        
   215     -0.160562  14 H  s               252     -0.158587  16 O  px        
   347      0.152021  21 C  pz        

 Vector   61  Occ=2.000000D+00  E=-4.991608D-01
              MO Center=  9.7D-01,  3.3D+00, -4.4D-01, r^2= 5.1D+00
   Bfn.  Coefficient  Atom+Function         Bfn.  Coefficient  Atom+Function  
  ----- ------------  ---------------      ----- ------------  ---------------
   436      0.275850  27 S  py              461     -0.263033  28 C  py        
   464     -0.245803  28 C  py              389     -0.221377  24 C  py        
   375     -0.213121  23 H  s               346      0.210633  21 C  py        
   376     -0.206253  23 H  s               347      0.166816  21 C  pz        
   392     -0.152077  24 C  py        

 Vector   62  Occ=2.000000D+00  E=-4.938630D-01
              MO Center=  1.3D-02, -3.6D+00, -2.9D-02, r^2= 6.5D+00
   Bfn.  Coefficient  Atom+Function         Bfn.  Coefficient  Atom+Function  
  ----- ------------  ---------------      ----- ------------  ---------------
    84      0.233341   6 O  pz              143     -0.222486   9 C  pz        
   177      0.188875  11 C  pz               87      0.171020   6 O  pz        
   162      0.165713  10 H  s               163      0.154081  10 H  s         

 Vector   63  Occ=2.000000D+00  E=-4.472182D-01
              MO Center=  4.6D-01,  3.0D+00,  5.8D-02, r^2= 6.7D+00
   Bfn.  Coefficient  Atom+Function         Bfn.  Coefficient  Atom+Function  
  ----- ------------  ---------------      ----- ------------  ---------------
   430      0.382874  27 S  s               309      0.363776  19 C  s         
   437      0.337404  27 S  pz              343     -0.317937  21 C  s         
   333     -0.264330  20 H  s               491     -0.219343  30 H  s         
   538     -0.210639  33 O  py              390     -0.202483  24 C  pz        
   393     -0.198021  24 C  pz              440      0.193080  27 S  pz        

 Vector   64  Occ=2.000000D+00  E=-4.384429D-01
              MO Center= -1.3D+00,  2.1D+00, -3.0D-01, r^2= 5.6D+00
   Bfn.  Coefficient  Atom+Function         Bfn.  Coefficient  Atom+Function  
  ----- ------------  ---------------      ----- ------------  ---------------
   537      0.298776  33 O  px              538     -0.293666  33 O  py        
   367     -0.250643  22 H  s               541     -0.243604  33 O  py        
   540      0.226572  33 O  px              510     -0.217958  32 C  s         
   139     -0.204969   9 C  s               437     -0.180529  27 S  pz        
   539     -0.178364  33 O  pz              430     -0.173310  27 S  s         

 Vector   65  Occ=2.000000D+00  E=-4.325208D-01
              MO Center=  2.7D-01, -1.2D+00,  6.4D-01, r^2= 4.1D+00
   Bfn.  Coefficient  Atom+Function         Bfn.  Coefficient  Atom+Function  
  ----- ------------  ---------------      ----- ------------  ---------------
   253      0.500853  16 O  py              256      0.405160  16 O  py        
   309     -0.202914  19 C  s               142      0.191832   9 C  py        
   275     -0.190562  17 N  s               145      0.175224   9 C  py        
    12      0.151536   2 C  s               315     -0.151814  19 C  py        

 Vector   66  Occ=2.000000D+00  E=-4.255398D-01
              MO Center= -2.1D+00,  2.2D+00,  6.0D-02, r^2= 3.4D+00
   Bfn.  Coefficient  Atom+Function         Bfn.  Coefficient  Atom+Function  
  ----- ------------  ---------------      ----- ------------  ---------------
   564      0.347763  34 N  pz              567      0.311897  34 N  pz        
   538      0.284406  33 O  py              539     -0.273559  33 O  pz        
   541      0.231012  33 O  py              542     -0.212242  33 O  pz        
   309     -0.203512  19 C  s               563     -0.191319  34 N  py        

 Vector   67  Occ=2.000000D+00  E=-4.124353D-01
              MO Center=  2.3D-01, -5.0D+00, -7.3D-01, r^2= 2.6D+00
   Bfn.  Coefficient  Atom+Function         Bfn.  Coefficient  Atom+Function  
  ----- ------------  ---------------      ----- ------------  ---------------
    83      0.429581   6 O  py               13     -0.364087   2 C  s         
    86      0.344714   6 O  py               82     -0.336474   6 O  px        
    85     -0.259892   6 O  px              105     -0.236873   7 N  s         
    17     -0.222365   2 C  px               14     -0.194247   2 C  px        
   511      0.193076  32 C  s                56      0.185449   5 C  s         

 Vector   68  Occ=2.000000D+00  E=-4.046656D-01
              MO Center= -1.8D-01, -4.0D-01,  1.2D-01, r^2= 5.5D+00
   Bfn.  Coefficient  Atom+Function         Bfn.  Coefficient  Atom+Function  
  ----- ------------  ---------------      ----- ------------  ---------------
   279      0.347591  17 N  pz              282      0.319778  17 N  pz        
   254     -0.262039  16 O  pz              257     -0.203651  16 O  pz        
   277     -0.199894  17 N  px              280     -0.177935  17 N  px        
   318      0.165983  19 C  py              252      0.165122  16 O  px        

 Vector   69  Occ=2.000000D+00  E=-3.868941D-01
              MO Center=  8.9D-02, -3.6D+00, -7.9D-02, r^2= 4.3D+00
   Bfn.  Coefficient  Atom+Function         Bfn.  Coefficient  Atom+Function  
  ----- ------------  ---------------      ----- ------------  ---------------
   109      0.327866   7 N  pz              112      0.295900   7 N  pz        
   139      0.253817   9 C  s                84     -0.246707   6 O  pz        
   107     -0.213206   7 N  px              110     -0.205522   7 N  px        
   174      0.198208  11 C  s                87     -0.189889   6 O  pz        
   108     -0.173675   7 N  py               82      0.162472   6 O  px        

 Vector   70  Occ=2.000000D+00  E=-3.568892D-01
              MO Center=  1.3D+00,  3.9D+00,  2.6D-01, r^2= 2.5D+00
   Bfn.  Coefficient  Atom+Function         Bfn.  Coefficient  Atom+Function  
  ----- ------------  ---------------      ----- ------------  ---------------
   438      0.506068  27 S  px              435      0.483372  27 S  px        
   419      0.229112  26 H  s               500     -0.166667  31 H  s         
   410     -0.163303  25 H  s               440     -0.160058  27 S  pz        

 Vector   71  Occ=0.000000D+00  E= 2.530609D-02
              MO Center= -4.4D-02,  6.1D+00,  2.3D-01, r^2= 2.1D+01
   Bfn.  Coefficient  Atom+Function         Bfn.  Coefficient  Atom+Function  
  ----- ------------  ---------------      ----- ------------  ---------------
   511      3.288970  32 C  s               459      3.234613  28 C  s         
   561     -2.988463  34 N  s               458      2.127292  28 C  s         
   234      2.000175  15 C  py              174      1.959001  11 C  s         
   318      1.922644  19 C  py              492     -1.646455  30 H  s         
   310      1.634400  19 C  s               431     -1.549830  27 S  s         

 Vector   72  Occ=0.000000D+00  E= 3.560470D-02
              MO Center=  1.1D+00,  3.1D+00, -1.5D+00, r^2= 3.1D+01
   Bfn.  Coefficient  Atom+Function         Bfn.  Coefficient  Atom+Function  
  ----- ------------  ---------------      ----- ------------  ---------------
   511      3.174908  32 C  s               411     -2.843972  25 H  s         
   174      2.777100  11 C  s               319     -2.486037  19 C  pz        
   317      2.184680  19 C  px              234      1.934082  15 C  py        
   149     -1.694086   9 C  pz              387     -1.638575  24 C  s         
   147      1.532450   9 C  px              396     -1.485804  24 C  pz        

 Vector   73  Occ=0.000000D+00  E= 3.791511D-02
              MO Center=  1.1D+00, -1.8D+00,  1.1D+00, r^2= 4.6D+01
   Bfn.  Coefficient  Atom+Function         Bfn.  Coefficient  Atom+Function  
  ----- ------------  ---------------      ----- ------------  ---------------
   174      3.330950  11 C  s               148     -2.518540   9 C  py        
   106     -2.287309   7 N  s               511      2.092661  32 C  s         
    56      2.054165   5 C  s               173      1.696348  11 C  s         
    63      1.639262   5 C  px               64     -1.510658   5 C  py        
     3     -1.411464   1 H  s                37     -1.402545   3 H  s         

 Vector   74  Occ=0.000000D+00  E= 4.081220D-02
              MO Center=  7.3D-01,  3.1D+00,  3.6D-01, r^2= 4.7D+01
   Bfn.  Coefficient  Atom+Function         Bfn.  Coefficient  Atom+Function  
  ----- ------------  ---------------      ----- ------------  ---------------
   492      3.221130  30 H  s               148      2.664473   9 C  py        
   387     -1.784572  24 C  s               561     -1.779794  34 N  s         
   594     -1.719706  36 H  s               511      1.706027  32 C  s         
   519      1.539658  32 C  py              411     -1.497789  25 H  s         
    64      1.384329   5 C  py              319     -1.332323  19 C  pz        

 Vector   75  Occ=0.000000D+00  E= 4.811373D-02
              MO Center=  5.3D-01,  3.5D-01,  3.8D-01, r^2= 5.2D+01
   Bfn.  Coefficient  Atom+Function         Bfn.  Coefficient  Atom+Function  
  ----- ------------  ---------------      ----- ------------  ---------------
   483      2.947303  29 H  s               511      2.501256  32 C  s         
    64      2.294820   5 C  py              411     -2.150419  25 H  s         
    12     -2.054767   2 C  s                63     -1.714049   5 C  px        
    56      1.684490   5 C  s               147     -1.631709   9 C  px        
   420      1.628745  26 H  s               585     -1.630324  35 H  s         

 Vector   76  Occ=0.000000D+00  E= 4.990097D-02
              MO Center=  1.1D-01, -1.4D+00,  8.5D-01, r^2= 4.4D+01
   Bfn.  Coefficient  Atom+Function         Bfn.  Coefficient  Atom+Function  
  ----- ------------  ---------------      ----- ------------  ---------------
   149      2.736558   9 C  pz              318     -2.210581  19 C  py        
   173      2.187754  11 C  s                 3      2.154679   1 H  s         
   198     -1.893125  12 H  s               164      1.871012  10 H  s         
   276     -1.697886  17 N  s               368      1.701063  22 H  s         
   206     -1.682583  13 H  s               147     -1.622248   9 C  px        

 Vector   77  Occ=0.000000D+00  E= 5.477832D-02
              MO Center= -4.8D-01, -3.8D-01, -1.0D+00, r^2= 4.2D+01
   Bfn.  Coefficient  Atom+Function         Bfn.  Coefficient  Atom+Function  
  ----- ------------  ---------------      ----- ------------  ---------------
   377      2.553357  23 H  s               164      2.203088  10 H  s         
   492      2.146595  30 H  s               276      2.127689  17 N  s         
   411     -1.984959  25 H  s               561     -1.927291  34 N  s         
   198      1.906674  12 H  s               387     -1.632341  24 C  s         
    63      1.520716   5 C  px              501     -1.520742  31 H  s         

 Vector   78  Occ=0.000000D+00  E= 6.038704D-02
              MO Center=  3.3D-01,  5.1D-01, -4.2D-01, r^2= 5.4D+01
   Bfn.  Coefficient  Atom+Function         Bfn.  Coefficient  Atom+Function  
  ----- ------------  ---------------      ----- ------------  ---------------
   501      3.604077  31 H  s                46      2.359914   4 H  s         
   377     -2.342859  23 H  s                56      1.949917   5 C  s         
   353     -1.956671  21 C  pz              207     -1.826602  13 H  s         
    13     -1.800689   2 C  s               511      1.700161  32 C  s         
   216      1.673980  14 H  s               492     -1.676423  30 H  s         

 Vector   79  Occ=0.000000D+00  E= 6.239161D-02
              MO Center=  1.6D+00, -1.5D+00, -2.6D-01, r^2= 5.2D+01
   Bfn.  Coefficient  Atom+Function         Bfn.  Coefficient  Atom+Function  
  ----- ------------  ---------------      ----- ------------  ---------------
   368      3.035569  22 H  s               411     -3.000723  25 H  s         
   483      2.997987  29 H  s                 3      2.892205   1 H  s         
    46     -2.689354   4 H  s               106      2.630571   7 N  s         
   234      2.439364  15 C  py               37     -2.259574   3 H  s         
   216      2.004180  14 H  s               459     -1.924273  28 C  s         

 Vector   80  Occ=0.000000D+00  E= 6.759708D-02
              MO Center=  1.5D-01, -9.9D-01,  9.2D-01, r^2= 5.5D+01
   Bfn.  Coefficient  Atom+Function         Bfn.  Coefficient  Atom+Function  
  ----- ------------  ---------------      ----- ------------  ---------------
   174     -3.557092  11 C  s                46      3.533629   4 H  s         
    56      3.253814   5 C  s                37     -3.057802   3 H  s         
   334      2.822426  20 H  s                64      2.643224   5 C  py        
   594     -2.390805  36 H  s               483      2.181754  29 H  s         
    13      2.086181   2 C  s               585      2.032141  35 H  s         

 Vector   81  Occ=0.000000D+00  E= 7.005912D-02
              MO Center= -1.6D-01,  1.1D+00, -3.6D-01, r^2= 4.6D+01
   Bfn.  Coefficient  Atom+Function         Bfn.  Coefficient  Atom+Function  
  ----- ------------  ---------------      ----- ------------  ---------------
   334      5.579585  20 H  s               420      4.354303  26 H  s         
   411     -4.270846  25 H  s               198     -3.564019  12 H  s         
   483     -3.249154  29 H  s                13      3.182532   2 C  s         
   501      3.115905  31 H  s               511     -3.035529  32 C  s         
   319     -3.012614  19 C  pz              318      2.809713  19 C  py        

 Vector   82  Occ=0.000000D+00  E= 7.330261D-02
              MO Center= -2.0D-02,  1.7D+00, -7.8D-01, r^2= 4.6D+01
   Bfn.  Coefficient  Atom+Function         Bfn.  Coefficient  Atom+Function  
  ----- ------------  ---------------      ----- ------------  ---------------
   420     -4.747832  26 H  s               164      4.419984  10 H  s         
   234      4.160571  15 C  py              511      4.101465  32 C  s         
   492     -3.943195  30 H  s               174      3.728961  11 C  s         
   459     -3.740996  28 C  s               395      3.432235  24 C  py        
   501      3.054758  31 H  s               351      2.957415  21 C  px        

 Vector   83  Occ=0.000000D+00  E= 7.815631D-02
              MO Center= -6.4D-01, -2.6D-01,  1.5D+00, r^2= 4.3D+01
   Bfn.  Coefficient  Atom+Function         Bfn.  Coefficient  Atom+Function  
  ----- ------------  ---------------      ----- ------------  ---------------
    13      6.361192   2 C  s               207      5.275440  13 H  s         
   234      3.861155  15 C  py               64      3.622099   5 C  py        
   420     -3.309795  26 H  s                63     -2.991020   5 C  px        
   198     -2.874733  12 H  s               318      2.350853  19 C  py        
   377      2.264329  23 H  s               431      2.241655  27 S  s         

 Vector   84  Occ=0.000000D+00  E= 7.936961D-02
              MO Center=  1.9D-01, -1.1D+00,  2.2D-01, r^2= 4.7D+01
   Bfn.  Coefficient  Atom+Function         Bfn.  Coefficient  Atom+Function  
  ----- ------------  ---------------      ----- ------------  ---------------
   216      5.111334  14 H  s               420     -5.080531  26 H  s         
   411      3.269303  25 H  s               377      3.152524  23 H  s         
   431      3.164298  27 S  s               368     -3.119288  22 H  s         
   198     -3.006053  12 H  s                46     -2.596829   4 H  s         
   561     -2.562187  34 N  s               394     -2.521963  24 C  px        

 Vector   85  Occ=0.000000D+00  E= 8.462611D-02
              MO Center=  4.5D-01, -7.6D-01,  1.2D-01, r^2= 5.0D+01
   Bfn.  Coefficient  Atom+Function         Bfn.  Coefficient  Atom+Function  
  ----- ------------  ---------------      ----- ------------  ---------------
   368     -3.611073  22 H  s                 3      3.489158   1 H  s         
   198      3.414177  12 H  s               585      3.427355  35 H  s         
   483     -3.328128  29 H  s               106      3.031710   7 N  s         
   216     -3.014474  14 H  s               334     -2.930011  20 H  s         
   234      2.913085  15 C  py              501      2.830567  31 H  s         

 Vector   86  Occ=0.000000D+00  E= 9.391485D-02
              MO Center=  5.8D-01, -4.3D-02,  7.6D-01, r^2= 4.4D+01
   Bfn.  Coefficient  Atom+Function         Bfn.  Coefficient  Atom+Function  
  ----- ------------  ---------------      ----- ------------  ---------------
   334      7.324700  20 H  s               368     -5.300109  22 H  s         
   431      5.297241  27 S  s               130      5.170330   8 H  s         
   511      4.855198  32 C  s               319     -4.707520  19 C  pz        
   420     -4.393701  26 H  s               351      4.203652  21 C  px        
   207     -4.135899  13 H  s               459     -3.743567  28 C  s         

 Vector   87  Occ=0.000000D+00  E= 9.676608D-02
              MO Center=  5.0D-01, -2.0D-01, -1.0D+00, r^2= 4.2D+01
   Bfn.  Coefficient  Atom+Function         Bfn.  Coefficient  Atom+Function  
  ----- ------------  ---------------      ----- ------------  ---------------
   411      6.905767  25 H  s               164      5.310806  10 H  s         
   459      4.927045  28 C  s               377     -4.627090  23 H  s         
   149      3.244140   9 C  pz              198     -3.218409  12 H  s         
   368     -3.209863  22 H  s               334     -2.991891  20 H  s         
   395     -2.740021  24 C  py              276     -2.649970  17 N  s         

 Vector   88  Occ=0.000000D+00  E= 1.024650D-01
              MO Center=  6.4D-01, -2.5D-01,  6.8D-01, r^2= 4.5D+01
   Bfn.  Coefficient  Atom+Function         Bfn.  Coefficient  Atom+Function  
  ----- ------------  ---------------      ----- ------------  ---------------
   334      8.097008  20 H  s               234     -6.625534  15 C  py        
   411      5.776375  25 H  s                13     -5.391977   2 C  s         
   585     -5.402717  35 H  s               387      4.891547  24 C  s         
   130     -4.625815   8 H  s               216     -4.053041  14 H  s         
   318     -3.722207  19 C  py              148     -3.175121   9 C  py        

 Vector   89  Occ=0.000000D+00  E= 1.059106D-01
              MO Center=  5.3D-01, -2.6D-01, -4.2D-01, r^2= 4.2D+01
   Bfn.  Coefficient  Atom+Function         Bfn.  Coefficient  Atom+Function  
  ----- ------------  ---------------      ----- ------------  ---------------
    56     11.742890   5 C  s                13     -9.036425   2 C  s         
   318     -6.695815  19 C  py              511      6.594133  32 C  s         
   431     -6.117467  27 S  s               420     -5.228215  26 H  s         
   377      5.186172  23 H  s               174     -4.999408  11 C  s         
[...]
    56    -11.185012   5 C  s               317     -9.271151  19 C  px        
   226      8.284794  15 C  s                12      6.700863   2 C  s         
   174      6.112616  11 C  s                45     -5.926303   4 H  s         
    63     -5.149530   5 C  px                2     -4.911293   1 H  s         

 Vector  179  Occ=0.000000D+00  E= 4.474281D-01
              MO Center=  5.6D-02, -3.6D-01, -3.8D-01, r^2= 2.7D+01
   Bfn.  Coefficient  Atom+Function         Bfn.  Coefficient  Atom+Function  
  ----- ------------  ---------------      ----- ------------  ---------------
   459      8.272803  28 C  s               317     -7.425357  19 C  px        
    13      6.918564   2 C  s               442     -5.466635  27 S  py        
   561     -5.294531  34 N  s               387     -4.797126  24 C  s         
   197     -4.552791  12 H  s               519      4.468358  32 C  py        
   319     -4.357182  19 C  pz              149      4.288118   9 C  pz        

 Vector  180  Occ=0.000000D+00  E= 4.482201D-01
              MO Center=  4.9D-01,  1.1D+00, -6.3D-02, r^2= 3.5D+01
   Bfn.  Coefficient  Atom+Function         Bfn.  Coefficient  Atom+Function  
  ----- ------------  ---------------      ----- ------------  ---------------
   317      9.067069  19 C  px              234     -8.046001  15 C  py        
   174     -7.296668  11 C  s                56      6.998974   5 C  s         
   319      6.577476  19 C  pz              459     -5.792455  28 C  s         
   387      5.594850  24 C  s               442      5.268498  27 S  py        
   482     -4.505174  29 H  s               519     -4.045897  32 C  py        

 Vector  181  Occ=0.000000D+00  E= 4.517819D-01
              MO Center= -2.5D-01, -1.1D+00,  2.1D-02, r^2= 2.6D+01
   Bfn.  Coefficient  Atom+Function         Bfn.  Coefficient  Atom+Function  
  ----- ------------  ---------------      ----- ------------  ---------------
    56     15.577986   5 C  s               148     14.850523   9 C  py        
   561     -9.564310  34 N  s               511      8.527324  32 C  s         
   387     -7.659954  24 C  s               106      7.105576   7 N  s         
   367      7.003301  22 H  s               343     -6.644352  21 C  s         
   113     -6.437527   7 N  px              226     -6.081282  15 C  s         

 Vector  182  Occ=0.000000D+00  E= 4.531842D-01
              MO Center=  5.1D-01,  8.4D-01, -1.5D-01, r^2= 3.0D+01
   Bfn.  Coefficient  Atom+Function         Bfn.  Coefficient  Atom+Function  
  ----- ------------  ---------------      ----- ------------  ---------------
   387      8.590189  24 C  s               561      8.566052  34 N  s         
   318     -7.477368  19 C  py               13     -6.402483   2 C  s         
    36      5.029828   3 H  s               276     -4.447379  17 N  s         
   419     -4.291188  26 H  s               411      4.202604  25 H  s         
   519     -4.086811  32 C  py              367     -3.983446  22 H  s         

 Vector  183  Occ=0.000000D+00  E= 4.591825D-01
              MO Center=  9.6D-02,  4.0D-01, -1.5D-01, r^2= 2.5D+01
   Bfn.  Coefficient  Atom+Function         Bfn.  Coefficient  Atom+Function  
  ----- ------------  ---------------      ----- ------------  ---------------
   511     11.975706  32 C  s                13    -10.428090   2 C  s         
   343      7.910602  21 C  s               431     -7.816992  27 S  s         
   561     -7.761202  34 N  s               459      7.097433  28 C  s         
    56      6.319554   5 C  s               387      6.245642  24 C  s         
    12     -5.949620   2 C  s               536     -5.296175  33 O  s         

 Vector  184  Occ=0.000000D+00  E= 4.634446D-01
              MO Center= -3.4D-01, -8.2D-01, -1.9D-01, r^2= 2.7D+01
   Bfn.  Coefficient  Atom+Function         Bfn.  Coefficient  Atom+Function  
  ----- ------------  ---------------      ----- ------------  ---------------
   174     12.371644  11 C  s               173      8.659344  11 C  s         
   197     -8.284189  12 H  s               318     -8.020943  19 C  py        
   387      7.760403  24 C  s               215     -7.651529  14 H  s         
    12     -7.386023   2 C  s               459     -6.721560  28 C  s         
   317      6.590763  19 C  px              106     -6.498127   7 N  s         

 Vector  185  Occ=0.000000D+00  E= 4.658057D-01
              MO Center=  1.5D-01,  8.7D-02, -4.7D-01, r^2= 2.8D+01
   Bfn.  Coefficient  Atom+Function         Bfn.  Coefficient  Atom+Function  
  ----- ------------  ---------------      ----- ------------  ---------------
    56     10.081839   5 C  s                13     -7.997644   2 C  s         
   511      7.663537  32 C  s               148      7.414166   9 C  py        
   276     -5.096420  17 N  s               386     -4.847022  24 C  s         
   367     -4.585968  22 H  s               318     -4.275126  19 C  py        
    63      3.995974   5 C  px              419      3.923296  26 H  s         

 Vector  186  Occ=0.000000D+00  E= 4.709409D-01
              MO Center=  2.9D-01,  1.1D+00,  1.2D-01, r^2= 2.5D+01
   Bfn.  Coefficient  Atom+Function         Bfn.  Coefficient  Atom+Function  
  ----- ------------  ---------------      ----- ------------  ---------------
   284     12.339220  17 N  py              148     10.369245   9 C  py        
   174      7.995680  11 C  s               173      6.971302  11 C  s         
   206     -6.732077  13 H  s               367     -6.482020  22 H  s         
    56     -5.565706   5 C  s               343      5.496332  21 C  s         
   511     -5.200473  32 C  s               387      5.101178  24 C  s         

 Vector  187  Occ=0.000000D+00  E= 4.725767D-01
              MO Center= -1.0D-01, -1.4D+00, -2.2D-01, r^2= 2.8D+01
   Bfn.  Coefficient  Atom+Function         Bfn.  Coefficient  Atom+Function  
  ----- ------------  ---------------      ----- ------------  ---------------
   148     19.538231   9 C  py              284     11.537369  17 N  py        
   106     10.044699   7 N  s               276     -9.541697  17 N  s         
   174     -9.378123  11 C  s               147     -8.156752   9 C  px        
   173     -8.026252  11 C  s               511     -7.841539  32 C  s         
   387      7.385106  24 C  s               235     -7.072332  15 C  pz        

 Vector  188  Occ=0.000000D+00  E= 4.761602D-01
              MO Center= -1.1D-01,  8.2D-01, -3.8D-02, r^2= 2.5D+01
   Bfn.  Coefficient  Atom+Function         Bfn.  Coefficient  Atom+Function  
  ----- ------------  ---------------      ----- ------------  ---------------
   511     19.153955  32 C  s                56     13.722825   5 C  s         
   174     12.695712  11 C  s                13    -11.075659   2 C  s         
   226     -9.973539  15 C  s               387     -9.526525  24 C  s         
   318     -9.241134  19 C  py              352      8.231677  21 C  py        
   376      8.195172  23 H  s               206     -8.154194  13 H  s         

 Vector  189  Occ=0.000000D+00  E= 4.817897D-01
              MO Center=  2.3D-01, -2.6D-01,  4.0D-01, r^2= 2.9D+01
   Bfn.  Coefficient  Atom+Function         Bfn.  Coefficient  Atom+Function  
  ----- ------------  ---------------      ----- ------------  ---------------
    13     26.977391   2 C  s                56    -24.621479   5 C  s         
   511    -24.617748  32 C  s               318     17.613986  19 C  py        
   226     14.874225  15 C  s               317    -13.650116  19 C  px        
    12     11.039517   2 C  s               459      9.924606  28 C  s         
    36     -9.547371   3 H  s                63     -8.300981   5 C  px        

 Vector  190  Occ=0.000000D+00  E= 4.830995D-01
              MO Center=  2.1D-01, -1.5D+00,  1.0D-01, r^2= 2.3D+01
   Bfn.  Coefficient  Atom+Function         Bfn.  Coefficient  Atom+Function  
  ----- ------------  ---------------      ----- ------------  ---------------
    56    -17.281428   5 C  s                13     16.436427   2 C  s         
   511    -15.813069  32 C  s               234      9.612728  15 C  py        
    12      9.342460   2 C  s                 2     -8.499581   1 H  s         
   113      7.484567   7 N  px              276     -7.063700  17 N  s         
   148      6.868585   9 C  py              163      6.855469  10 H  s         

 Vector  191  Occ=0.000000D+00  E= 4.853948D-01
              MO Center= -1.7D-01,  5.5D-01, -1.3D-01, r^2= 2.5D+01
   Bfn.  Coefficient  Atom+Function         Bfn.  Coefficient  Atom+Function  
  ----- ------------  ---------------      ----- ------------  ---------------
   511     24.133362  32 C  s                13    -20.978483   2 C  s         
    56     17.934336   5 C  s               174     17.906414  11 C  s         
   226    -12.924117  15 C  s               344    -12.397020  21 C  s         
   387    -11.156640  24 C  s               317     10.062325  19 C  px        
   148      9.250931   9 C  py               64     -8.256340   5 C  py        

 Vector  192  Occ=0.000000D+00  E= 4.927026D-01
              MO Center= -3.3D-03, -1.2D+00,  2.1D-01, r^2= 2.7D+01
   Bfn.  Coefficient  Atom+Function         Bfn.  Coefficient  Atom+Function  
  ----- ------------  ---------------      ----- ------------  ---------------
   174     11.824035  11 C  s                56    -10.068392   5 C  s         
   114     -9.072822   7 N  py               13     -7.470943   2 C  s         
   173      6.728754  11 C  s                64     -6.331709   5 C  py        
   197     -6.268882  12 H  s                63      5.165439   5 C  px        
   139      4.858993   9 C  s               206     -4.797780  13 H  s         

 Vector  193  Occ=0.000000D+00  E= 4.936101D-01
              MO Center= -3.3D-01,  1.5D+00, -7.5D-03, r^2= 2.4D+01
   Bfn.  Coefficient  Atom+Function         Bfn.  Coefficient  Atom+Function  
  ----- ------------  ---------------      ----- ------------  ---------------
    13     17.410364   2 C  s               511    -16.598881  32 C  s         
    56    -13.384701   5 C  s               284     11.827667  17 N  py        
   561     10.911553  34 N  s               148     10.703873   9 C  py        
   106      8.506688   7 N  s               226      8.351237  15 C  s         
    63     -7.109448   5 C  px              458      5.743018  28 C  s         

 Vector  194  Occ=0.000000D+00  E= 4.957615D-01
              MO Center= -3.4D-01, -1.0D+00,  3.0D-01, r^2= 2.3D+01
   Bfn.  Coefficient  Atom+Function         Bfn.  Coefficient  Atom+Function  
  ----- ------------  ---------------      ----- ------------  ---------------
    13      7.554416   2 C  s               206     -6.421863  13 H  s         
   318      5.764188  19 C  py              387     -5.747979  24 C  s         
   458     -4.903665  28 C  s               174     -4.632812  11 C  s         
   147     -4.519670   9 C  px              148      4.365310   9 C  py        
   106      4.119833   7 N  s               207     -4.011827  13 H  s         

 Vector  195  Occ=0.000000D+00  E= 5.031728D-01
              MO Center=  2.2D-01,  1.2D+00, -8.0D-02, r^2= 2.6D+01
   Bfn.  Coefficient  Atom+Function         Bfn.  Coefficient  Atom+Function  
  ----- ------------  ---------------      ----- ------------  ---------------
   174     18.229552  11 C  s               511     15.897120  32 C  s         
   318     13.243409  19 C  py              387    -11.608941  24 C  s         
   459    -11.216803  28 C  s               317     10.417473  19 C  px        
   344    -10.211587  21 C  s                13     -7.943087   2 C  s         
   458     -7.877449  28 C  s               226     -7.618965  15 C  s         


 center of mass
 --------------
 x =  -0.02562469 y =  -0.01757216 z =   0.00373674

 moments of inertia (a.u.)
 ------------------
       11335.012687219261          -0.000000000001          -0.000000000001
          -0.000000000001        2228.762574033402           0.000000000003
          -0.000000000001           0.000000000003       12656.524528751397

  Mulliken analysis of the total density
  --------------------------------------

    Atom       Charge   Shell Charges
 -----------   ------   -------------------------------------------------------
    1 H    1     0.84   0.76  0.10  0.00  0.03 -0.06
    2 C    6     6.43   2.01  0.66  0.26  0.25  2.06  1.04 -0.02  0.06  0.11
    3 H    1     0.85   0.76  0.11  0.00  0.03 -0.06
    4 H    1     0.99   0.76  0.24  0.01  0.03 -0.05
    5 C    6     5.06   2.01  0.68  0.10 -0.12  1.90  0.31 -0.06  0.24  0.02
    6 O    8     8.71   2.01  0.82  0.99  0.15  2.79  1.82  0.14  0.01 -0.02
    7 N    7     7.60   2.01  0.72  0.86 -0.06  2.46  1.45  0.07  0.05  0.05
    8 H    1     1.00   0.75  0.23 -0.00  0.06 -0.03
    9 C    6     6.41   2.01  0.66  0.19 -0.01  2.00  1.42 -0.14  0.14  0.14
   10 H    1     1.11   0.78  0.32 -0.01  0.03 -0.00
   11 C    6     5.62   2.01  0.67  0.18  0.21  2.04  0.46 -0.01  0.07 -0.01
   12 H    1     1.02   0.77  0.28  0.00  0.03 -0.06
   13 H    1     0.87   0.77  0.15  0.00  0.03 -0.08
   14 H    1     0.90   0.77  0.15  0.01  0.03 -0.07
   15 C    6     4.61   2.01  0.68  0.01  0.03  1.88  0.07  0.00  0.23 -0.30
   16 O    8     8.82   2.01  0.82  1.02  0.17  2.79  1.86  0.15  0.01 -0.01
   17 N    7     7.64   2.01  0.72  0.88 -0.05  2.45  1.47  0.06  0.05  0.05
   18 H    1     0.99   0.75  0.22 -0.01  0.06 -0.03
   19 C    6     6.26   2.01  0.66  0.24 -0.01  2.00  1.11  0.09  0.14  0.01
   20 H    1     1.11   0.78  0.31 -0.02  0.03  0.01
   21 C    6     6.04   2.01  0.67  0.36 -0.03  2.03  0.74  0.02  0.09  0.16
   22 H    1     0.98   0.78  0.27 -0.01  0.03 -0.08
   23 H    1     0.90   0.78  0.19  0.00  0.03 -0.10
   24 C    6     6.10   2.01  0.66  0.37 -0.07  1.99  0.91  0.11  0.10  0.01
   25 H    1     1.08   0.78  0.32 -0.00  0.03 -0.05
   26 H    1     0.90   0.78  0.15 -0.02  0.03 -0.04
   27 S   16    15.38   2.00  2.03  0.86  0.69  0.08  6.00  2.31  1.40  0.10  0.13 -0.22
   28 C    6     5.98   2.01  0.65  0.38 -0.08  2.00  1.01 -0.03  0.07 -0.03
   29 H    1     1.06   0.76  0.26  0.02  0.03 -0.02
   30 H    1     1.21   0.76  0.45 -0.00  0.03 -0.03
   31 H    1     1.03   0.76  0.24  0.01  0.03 -0.01
   32 C    6     4.56   2.01  0.68  0.07  0.04  1.89 -0.18 -0.01  0.23 -0.16
   33 O    8     8.84   2.01  0.82  1.04  0.18  2.79  1.86  0.14  0.01  0.00
   34 N    7     7.24   2.01  0.72  0.83 -0.14  2.47  1.25  0.09  0.04 -0.02
   35 H    1     0.89   0.74  0.17 -0.02  0.06 -0.06
   36 H    1     0.99   0.75  0.21 -0.01  0.05 -0.02

       Multipole analysis of the density wrt the origin
       ------------------------------------------------

     L   x y z        total         open         nuclear
     -   - - -        -----         ----         -------
     0   0 0 0     -0.000000      0.000000    140.000000

     1   1 0 0      0.656584      0.000000      0.000000
     1   0 1 0      2.329746      0.000000      0.000000
     1   0 0 1      0.513340      0.000000      0.000000

     2   2 0 0    -87.011671      0.000000    987.402789
     2   1 1 0     -4.895964      0.000000      4.283083
     2   1 0 1     -7.323713      0.000000    -20.771990
     2   0 2 0    -74.312100      0.000000   5992.368255
     2   0 1 1     -8.545510      0.000000    -42.118295
     2   0 0 2    -84.484806      0.000000    270.504722


 Task  times  cpu:     3969.5s     wall:     4168.4s


                                NWChem Input Module
                                -------------------


 Summary of allocated global arrays
-----------------------------------
  No active global arrays


MA_summarize_allocated_blocks: starting scan ...
MA_summarize_allocated_blocks: scan completed: 0 heap blocks, 0 stack blocks
MA usage statistics:

	allocation statistics:
					      heap	     stack
					      ----	     -----
	current number of blocks	         0	         0
	maximum number of blocks	        16	        14
	current total bytes		         0	         0
	maximum total bytes		    138144	  33951768
	maximum total K-bytes		       139	     33952
	maximum total M-bytes		         1	        34


                                     CITATION
                                     --------
                Please cite the following reference when publishing
                           results obtained with NWChem:

          E. Apra, E. J. Bylaska, W. A. de Jong, N. Govind, K. Kowalski,
       T. P. Straatsma, M. Valiev, H. J. J. van Dam, Y. Alexeev, J. Anchell,
       V. Anisimov, F. W. Aquino, R. Atta-Fynn, J. Autschbach, N. P. Bauman,
     J. C. Becca, D. E. Bernholdt, K. Bhaskaran-Nair, S. Bogatko, P. Borowski,
         J. Boschen, J. Brabec, A. Bruner, E. Cauet, Y. Chen, G. N. Chuev,
      C. J. Cramer, J. Daily, M. J. O. Deegan, T. H. Dunning Jr., M. Dupuis,
   K. G. Dyall, G. I. Fann, S. A. Fischer, A. Fonari, H. Fruchtl, L. Gagliardi,
      J. Garza, N. Gawande, S. Ghosh, K. Glaesemann, A. W. Gotz, J. Hammond,
       V. Helms, E. D. Hermes, K. Hirao, S. Hirata, M. Jacquelin, L. Jensen,
   B. G. Johnson, H. Jonsson, R. A. Kendall, M. Klemm, R. Kobayashi, V. Konkov,
      S. Krishnamoorthy, M. Krishnan, Z. Lin, R. D. Lins, R. J. Littlefield,
      A. J. Logsdail, K. Lopata, W. Ma, A. V. Marenich, J. Martin del Campo,
   D. Mejia-Rodriguez, J. E. Moore, J. M. Mullin, T. Nakajima, D. R. Nascimento,
    J. A. Nichols, P. J. Nichols, J. Nieplocha, A. Otero-de-la-Roza, B. Palmer,
    A. Panyala, T. Pirojsirikul, B. Peng, R. Peverati, J. Pittner, L. Pollack,
   R. M. Richard, P. Sadayappan, G. C. Schatz, W. A. Shelton, D. W. Silverstein,
   D. M. A. Smith, T. A. Soares, D. Song, M. Swart, H. L. Taylor, G. S. Thomas,
            V. Tipparaju, D. G. Truhlar, K. Tsemekhman, T. Van Voorhis,
      A. Vazquez-Mayagoitia, P. Verma, O. Villa, A. Vishnu, K. D. Vogiatzis,
        D. Wang, J. H. Weare, M. J. Williamson, T. L. Windus, K. Wolinski,
        A. T. Wong, Q. Wu, C. Yang, Q. Yu, M. Zacharias, Z. Zhang, Y. Zhao,
                                and R. J. Harrison
                        "NWChem: Past, present, and future
                         J. Chem. Phys. 152, 184102 (2020)
                               doi:10.1063/5.0004997

                                      AUTHORS
                                      -------
  E. Apra, E. J. Bylaska, N. Govind, K. Kowalski, M. Valiev, D. Mejia-Rodriguez,
       A. Kunitsa, N. P. Bauman, A. Panyala, W. A. de Jong, T. P. Straatsma,
   H. J. J. van Dam, D. Wang, T. L. Windus, J. Hammond, J. Autschbach, A. Woods,
    K. Bhaskaran-Nair, J. Brabec, K. Lopata, S. A. Fischer, S. Krishnamoorthy,
     M. Jacquelin, W. Ma, M. Klemm, O. Villa, Y. Chen, V. Anisimov, F. Aquino,
     S. Hirata, M. T. Hackler, E. Hermes, L. Jensen, J. E. Moore, J. C. Becca,
      V. Konjkov, T. Risthaus, M. Malagoli, A. Marenich, A. Otero-de-la-Roza,
        J. Mullin, P. Nichols, R. Peverati, J. Pittner, Y. Zhao, P.-D. Fan,
        A. Fonari, M. J. Williamson, R. J. Harrison, J. R. Rehr, M. Dupuis,
     D. Silverstein, D. M. A. Smith, J. Nieplocha, V. Tipparaju, M. Krishnan,
     B. E. Van Kuiken, A. Vazquez-Mayagoitia, M. Swart, Q. Wu, T. Van Voorhis,
     A. A. Auer, M. Nooijen, L. D. Crosby, E. Brown, G. Cisneros, G. I. Fann,
   H. Fruchtl, J. Garza, K. Hirao, R. A. Kendall, J. A. Nichols, K. Tsemekhman,
    K. Wolinski, J. Anchell, D. E. Bernholdt, P. Borowski, T. Clark, D. Clerc,
   H. Dachsel, M. J. O. Deegan, K. Dyall, D. Elwood, E. Glendening, M. Gutowski,
   A. C. Hess, J. Jaffe, B. G. Johnson, J. Ju, R. Kobayashi, R. Kutteh, Z. Lin,
   R. Littlefield, X. Long, B. Meng, T. Nakajima, S. Niu, L. Pollack, M. Rosing,
   K. Glaesemann, G. Sandrone, M. Stave, H. Taylor, G. Thomas, J. H. van Lenthe,
                               A. T. Wong, Z. Zhang.

 Total times  cpu:     3969.5s     wall:     4168.9s
