export TMOUT=5400
export TMPDIR=/tmp
export PTMPDIR=/tmp/ptmp
 argument  1 = ALA_THR_1.nw
                                         
                                         


             Northwest Computational Chemistry Package (NWChem) 7.2.0
             --------------------------------------------------------


                    Environmental Molecular Sciences Laboratory
                       Pacific Northwest National Laboratory
                                Richland, WA 99352

                              Copyright (c) 1994-2022
                       Pacific Northwest National Laboratory
                            Battelle Memorial Institute

             NWChem is an open-source computational chemistry package
                        distributed under the terms of the
                      Educational Community License (ECL) 2.0
             A copy of the license is included with this distribution
                              in the LICENSE.TXT file

                                  ACKNOWLEDGMENT
                                  --------------

            This software and its documentation were developed at the
            EMSL at Pacific Northwest National Laboratory, a multiprogram
            national laboratory, operated for the U.S. Department of Energy
            by Battelle under Contract Number DE-AC05-76RL01830. Support
            for this work was provided by the Department of Energy Office
            of Biological and Environmental Research, Office of Basic
            Energy Sciences, and the Office of Advanced Scientific Computing.


           Job information
           ---------------

    hostname        = nova18-41
    program         = /opt/rit/el9/20230413/app/linux-rhel9-x86_64_v3/gcc-11.2.1/nwchem-7.2.0-oxtctbuhfuzyfaoziquq6bki22grib3g/bin/nwchem
    date            = Mon Jun 30 10:47:09 2025

    compiled        = Wed_May_17_23:46:39_2023
    source          = /tmp/root/spack-stage/spack-stage-nwchem-7.2.0-oxtctbuhfuzyfaoziquq6bki22grib3g/spack-src
    nwchem branch   = 7.2.0
    nwchem revision = d0d141fd
    ga revision     = 5.8.0
    use scalapack   = T
    input           = ALA_THR_1.nw
    prefix          = ALA_THR_1.
    data base       = ./ALA_THR_1.db
    status          = startup
    nproc           =        8
    time left       =     -1s



           Memory information
           ------------------

    heap     =   26214398 doubles =    200.0 Mbytes
    stack    =   26214395 doubles =    200.0 Mbytes
    global   =   52428800 doubles =    400.0 Mbytes (distinct from heap & stack)
    total    =  104857593 doubles =    800.0 Mbytes
    verify   = yes
    hardfail = no 


           Directory information
           ---------------------

  0 permanent = .
  0 scratch   = .




                                NWChem Input Module
                                -------------------



 Scaling coordinates for geometry "geometry" by  1.889725989
 (inverse scale =  0.529177249)

 C1  symmetry detected

          ------
          auto-z
          ------
  no constraints, skipping    0.0000000000000000     
  no constraints, skipping    0.0000000000000000     


                             Geometry "geometry" -> ""
                             -------------------------

 Output coordinates in angstroms (scale by  1.889725989 to convert to a.u.)

  No.       Tag          Charge          X              Y              Z
 ---- ---------------- ---------- -------------- -------------- --------------
    1 H                    1.0000    -2.34788537    -2.28822476    -1.96280031
    2 C                    6.0000    -2.47071462    -2.72891897    -0.97474687
    3 H                    1.0000    -2.41534716    -3.81450307    -1.04145975
    4 H                    1.0000    -3.43805886    -2.43996110    -0.56570230
    5 C                    6.0000    -1.38139288    -2.22562144    -0.05938861
    6 O                    8.0000    -1.66582606    -1.57800747     0.93973246
    7 N                    7.0000    -0.12537095    -2.49673630    -0.41388211
    8 H                    1.0000     0.02630793    -3.03320739    -1.25120838
    9 C                    6.0000     1.05045982    -2.15129993     0.39917738
   10 H                    1.0000     0.92396729    -2.59851095     1.38689694
   11 C                    6.0000     2.27999428    -2.78771341    -0.26197608
   12 H                    1.0000     2.44147116    -2.35613491    -1.25054384
   13 H                    1.0000     3.16088363    -2.59875263     0.35392877
   14 H                    1.0000     2.14132152    -3.86553881    -0.35186644
   15 C                    6.0000     1.26147079    -0.63575036     0.62815309
   16 O                    8.0000     2.04745121    -0.24997283     1.48684481
   17 N                    7.0000     0.56255048     0.22556759    -0.11677831
   18 H                    1.0000    -0.07761539    -0.14547901    -0.80222421
   19 C                    6.0000     0.53793178     1.68627645     0.07794601
   20 H                    1.0000     1.53393238     2.01978881     0.37126717
   21 C                    6.0000     0.16722216     2.38870978    -1.23878205
   22 H                    1.0000     0.11778902     3.46571973    -1.07581291
   23 C                    6.0000     1.18438190     2.12179305    -2.34907593
   24 H                    1.0000     1.20031242     1.06389271    -2.60730470
   25 H                    1.0000     0.90976842     2.69827525    -3.23218222
   26 H                    1.0000     2.17607230     2.43068091    -2.01902528
   27 O                    8.0000    -1.08785077     1.93075488    -1.69377134
   28 H                    1.0000    -1.76273592     2.40062016    -1.19577067
   29 C                    6.0000    -0.42187497     2.14316303     1.18794360
   30 O                    8.0000    -0.56158463     3.33692723     1.42232418
   31 N                    7.0000    -1.13399624     1.24851033     1.86182256
   32 H                    1.0000    -1.06462532     0.26418154     1.64187370
   33 H                    1.0000    -1.75022861     1.57431842     2.58725536

      Atomic Mass 
      ----------- 

      H                  1.007825
      C                 12.000000
      O                 15.994910
      N                 14.003070


 Effective nuclear repulsion energy (a.u.)    1231.5464379269

            Nuclear Dipole moment (a.u.) 
            ----------------------------
        X                 Y               Z
 ---------------- ---------------- ----------------
    -0.0000000000    -0.0000000000    -0.0000000000



                                Z-matrix (autoz)
                                -------- 

 Units are Angstrom for bonds and degrees for angles

      Type          Name      I     J     K     L     M      Value
      ----------- --------  ----- ----- ----- ----- ----- ----------
    1 Stretch                  1     2                       1.08883
    2 Stretch                  2     3                       1.08904
    3 Stretch                  2     4                       1.08930
    4 Stretch                  2     5                       1.50924
    5 Stretch                  5     6                       1.22415
    6 Stretch                  5     7                       1.33295
    7 Stretch                  7     8                       1.00594
    8 Stretch                  7     9                       1.47070
    9 Stretch                  9    10                       1.09160
   10 Stretch                  9    11                       1.53424
   11 Stretch                  9    15                       1.54721
   12 Stretch                 11    12                       1.09069
   13 Stretch                 11    13                       1.09133
   14 Stretch                 11    14                       1.09042
   15 Stretch                 15    16                       1.22635
   16 Stretch                 15    17                       1.33614
   17 Stretch                 17    18                       1.00862
   18 Stretch                 17    19                       1.47384
   19 Stretch                 19    20                       1.09054
   20 Stretch                 19    21                       1.53773
   21 Stretch                 19    29                       1.53690
   22 Stretch                 21    22                       1.09039
   23 Stretch                 21    23                       1.52925
   24 Stretch                 21    27                       1.41136
   25 Stretch                 23    24                       1.08908
   26 Stretch                 23    25                       1.08978
   27 Stretch                 23    26                       1.08986
   28 Stretch                 27    28                       0.96138
   29 Stretch                 29    30                       1.22455
   30 Stretch                 29    31                       1.32727
   31 Stretch                 31    32                       1.01099
   32 Stretch                 31    33                       1.00605
   33 Bend                     1     2     3               110.00688
   34 Bend                     1     2     4               109.48563
   35 Bend                     1     2     5               109.51018
   36 Bend                     2     5     6               120.24689
   37 Bend                     2     5     7               116.80704
   38 Bend                     3     2     4               109.42545
   39 Bend                     3     2     5               109.44349
   40 Bend                     4     2     5               108.95049
   41 Bend                     5     7     8               118.15893
   42 Bend                     5     7     9               123.95640
   43 Bend                     6     5     7               122.92914
   44 Bend                     7     9    10               108.14102
   45 Bend                     7     9    11               107.76136
   46 Bend                     7     9    15               114.89308
   47 Bend                     8     7     9               117.70243
   48 Bend                     9    11    12               110.18755
   49 Bend                     9    11    13               109.38033
   50 Bend                     9    11    14               110.09775
   51 Bend                     9    15    16               119.94510
   52 Bend                     9    15    17               118.52818
   53 Bend                    10     9    11               108.23092
   54 Bend                    10     9    15               106.45106
   55 Bend                    11     9    15               111.14923
   56 Bend                    12    11    13               108.87498
   57 Bend                    12    11    14               109.58672
   58 Bend                    13    11    14               108.68231
   59 Bend                    15    17    18               118.27743
   60 Bend                    15    17    19               125.02718
   61 Bend                    16    15    17               121.52335
   62 Bend                    17    19    20               108.86738
   63 Bend                    17    19    21               110.09787
   64 Bend                    17    19    29               113.60837
   65 Bend                    18    17    19               116.34547
   66 Bend                    19    21    22               109.52046
   67 Bend                    19    21    23               112.43367
   68 Bend                    19    21    27               110.01117
   69 Bend                    19    29    30               119.95301
   70 Bend                    19    29    31               120.09116
   71 Bend                    20    19    21               108.10679
   72 Bend                    20    19    29               106.57055
   73 Bend                    21    19    29               109.39520
   74 Bend                    21    23    24               110.57436
   75 Bend                    21    23    25               109.17222
   76 Bend                    21    23    26               109.62627
   77 Bend                    21    27    28               107.37847
   78 Bend                    22    21    23               108.12348
   79 Bend                    22    21    27               109.16940
   80 Bend                    23    21    27               107.50500
   81 Bend                    24    23    25               108.98927
   82 Bend                    24    23    26               109.49968
   83 Bend                    25    23    26               108.95170
   84 Bend                    29    31    32               120.59789
   85 Bend                    29    31    33               118.45364
   86 Bend                    30    29    31               119.91528
   87 Bend                    32    31    33               120.94481
   88 Torsion                  1     2     5     6         118.17704
   89 Torsion                  1     2     5     7         -60.37016
   90 Torsion                  2     5     7     8          -1.32281
   91 Torsion                  2     5     7     9        -176.29504
   92 Torsion                  3     2     5     6        -121.15885
   93 Torsion                  3     2     5     7          60.29394
   94 Torsion                  4     2     5     6          -1.54742
   95 Torsion                  4     2     5     7         179.90538
   96 Torsion                  5     7     9    10          56.03165
   97 Torsion                  5     7     9    11         172.81638
   98 Torsion                  5     7     9    15         -62.69100
   99 Torsion                  6     5     7     8        -179.82756
  100 Torsion                  6     5     7     9           5.20021
  101 Torsion                  7     9    11    12          63.77079
  102 Torsion                  7     9    11    13        -176.57782
  103 Torsion                  7     9    11    14         -57.21802
  104 Torsion                  7     9    15    16         166.18898
  105 Torsion                  7     9    15    17         -13.15297
  106 Torsion                  8     7     9    10        -118.96183
  107 Torsion                  8     7     9    11          -2.17709
  108 Torsion                  8     7     9    15         122.31552
  109 Torsion                  9    15    17    18          -0.02097
  110 Torsion                  9    15    17    19         172.92106
  111 Torsion                 10     9    11    12        -179.50306
  112 Torsion                 10     9    11    13         -59.85167
  113 Torsion                 10     9    11    14          59.50813
  114 Torsion                 10     9    15    16          46.52445
  115 Torsion                 10     9    15    17        -132.81751
  116 Torsion                 11     9    15    16         -71.12058
  117 Torsion                 11     9    15    17         109.53746
  118 Torsion                 12    11     9    15         -62.94405
  119 Torsion                 13    11     9    15          56.70734
  120 Torsion                 14    11     9    15         176.06714
  121 Torsion                 15    17    19    20          37.32881
  122 Torsion                 15    17    19    21         155.67366
  123 Torsion                 15    17    19    29         -81.24438
  124 Torsion                 16    15    17    18        -179.35205
  125 Torsion                 16    15    17    19          -6.41002
  126 Torsion                 17    19    21    22         178.04526
  127 Torsion                 17    19    21    23         -61.72799
  128 Torsion                 17    19    21    27          58.05288
  129 Torsion                 17    19    29    30        -177.95406
  130 Torsion                 17    19    29    31          -0.27183
  131 Torsion                 18    17    19    20        -149.60671
  132 Torsion                 18    17    19    21         -31.26186
  133 Torsion                 18    17    19    29          91.82010
  134 Torsion                 19    21    23    24          64.07555
  135 Torsion                 19    21    23    25        -176.02494
  136 Torsion                 19    21    23    26         -56.74759
  137 Torsion                 19    21    27    28          80.15815
  138 Torsion                 19    29    31    32          -1.07349
  139 Torsion                 19    29    31    33         179.61616
  140 Torsion                 20    19    21    22         -63.14306
  141 Torsion                 20    19    21    23          57.08370
  142 Torsion                 20    19    21    27         176.86457
  143 Torsion                 20    19    29    30          62.16112
  144 Torsion                 20    19    29    31        -120.15664
  145 Torsion                 21    19    29    30         -54.48772
  146 Torsion                 21    19    29    31         123.19451
  147 Torsion                 22    21    19    29          52.52934
  148 Torsion                 22    21    23    24        -174.89344
  149 Torsion                 22    21    23    25         -54.99392
  150 Torsion                 22    21    23    26          64.28342
  151 Torsion                 22    21    27    28         -40.04686
  152 Torsion                 23    21    19    29         172.75610
  153 Torsion                 23    21    27    28        -157.10929
  154 Torsion                 24    23    21    27         -57.15020
  155 Torsion                 25    23    21    27          62.74931
  156 Torsion                 26    23    21    27        -177.97334
  157 Torsion                 27    21    19    29         -67.46304
  158 Torsion                 30    29    31    32         176.60962
  159 Torsion                 30    29    31    33          -2.70073


            XYZ format geometry
            -------------------
    33
 geometry
 H                    -2.34788537    -2.28822476    -1.96280031
 C                    -2.47071462    -2.72891897    -0.97474687
 H                    -2.41534716    -3.81450307    -1.04145975
 H                    -3.43805886    -2.43996110    -0.56570230
 C                    -1.38139288    -2.22562144    -0.05938861
 O                    -1.66582606    -1.57800747     0.93973246
 N                    -0.12537095    -2.49673630    -0.41388211
 H                     0.02630793    -3.03320739    -1.25120838
 C                     1.05045982    -2.15129993     0.39917738
 H                     0.92396729    -2.59851095     1.38689694
 C                     2.27999428    -2.78771341    -0.26197608
 H                     2.44147116    -2.35613491    -1.25054384
 H                     3.16088363    -2.59875263     0.35392877
 H                     2.14132152    -3.86553881    -0.35186644
 C                     1.26147079    -0.63575036     0.62815309
 O                     2.04745121    -0.24997283     1.48684481
 N                     0.56255048     0.22556759    -0.11677831
 H                    -0.07761539    -0.14547901    -0.80222421
 C                     0.53793178     1.68627645     0.07794601
 H                     1.53393238     2.01978881     0.37126717
 C                     0.16722216     2.38870978    -1.23878205
 H                     0.11778902     3.46571973    -1.07581291
 C                     1.18438190     2.12179305    -2.34907593
 H                     1.20031242     1.06389271    -2.60730470
 H                     0.90976842     2.69827525    -3.23218222
 H                     2.17607230     2.43068091    -2.01902528
 O                    -1.08785077     1.93075488    -1.69377134
 H                    -1.76273592     2.40062016    -1.19577067
 C                    -0.42187497     2.14316303     1.18794360
 O                    -0.56158463     3.33692723     1.42232418
 N                    -1.13399624     1.24851033     1.86182256
 H                    -1.06462532     0.26418154     1.64187370
 H                    -1.75022861     1.57431842     2.58725536

 ==============================================================================
                                internuclear distances
 ------------------------------------------------------------------------------
       center one      |      center two      | atomic units |  angstroms
 ------------------------------------------------------------------------------
    2 C                |   1 H                |     2.05759  |     1.08883
    3 H                |   2 C                |     2.05799  |     1.08904
    4 H                |   2 C                |     2.05847  |     1.08930
    5 C                |   2 C                |     2.85205  |     1.50924
    6 O                |   5 C                |     2.31331  |     1.22415
    7 N                |   5 C                |     2.51891  |     1.33295
    8 H                |   7 N                |     1.90096  |     1.00594
    9 C                |   7 N                |     2.77923  |     1.47070
   10 H                |   9 C                |     2.06282  |     1.09160
   11 C                |   9 C                |     2.89930  |     1.53424
   12 H                |  11 C                |     2.06110  |     1.09069
   13 H                |  11 C                |     2.06232  |     1.09133
   14 H                |  11 C                |     2.06060  |     1.09042
   15 C                |   9 C                |     2.92380  |     1.54721
   16 O                |  15 C                |     2.31747  |     1.22635
   17 N                |  15 C                |     2.52495  |     1.33614
   18 H                |  17 N                |     1.90602  |     1.00862
   19 C                |  17 N                |     2.78515  |     1.47384
   20 H                |  19 C                |     2.06083  |     1.09054
   21 C                |  19 C                |     2.90589  |     1.53773
   22 H                |  21 C                |     2.06054  |     1.09039
   23 C                |  21 C                |     2.88987  |     1.52925
   24 H                |  23 C                |     2.05806  |     1.08908
   25 H                |  23 C                |     2.05939  |     1.08978
   26 H                |  23 C                |     2.05954  |     1.08986
   27 O                |  21 C                |     2.66709  |     1.41136
   28 H                |  27 O                |     1.81674  |     0.96138
   29 C                |  19 C                |     2.90432  |     1.53690
   30 O                |  29 C                |     2.31407  |     1.22455
   31 N                |  29 C                |     2.50817  |     1.32727
   32 H                |  31 N                |     1.91049  |     1.01099
   33 H                |  31 N                |     1.90117  |     1.00605
 ------------------------------------------------------------------------------
                         number of included internuclear distances:         32
 ==============================================================================



 ==============================================================================
                                 internuclear angles
 ------------------------------------------------------------------------------
        center 1       |       center 2       |       center 3       |  degrees
 ------------------------------------------------------------------------------
    1 H                |   2 C                |   3 H                |   110.01
    1 H                |   2 C                |   4 H                |   109.49
    1 H                |   2 C                |   5 C                |   109.51
    3 H                |   2 C                |   4 H                |   109.43
    3 H                |   2 C                |   5 C                |   109.44
    4 H                |   2 C                |   5 C                |   108.95
    2 C                |   5 C                |   6 O                |   120.25
    2 C                |   5 C                |   7 N                |   116.81
    6 O                |   5 C                |   7 N                |   122.93
    5 C                |   7 N                |   8 H                |   118.16
    5 C                |   7 N                |   9 C                |   123.96
    8 H                |   7 N                |   9 C                |   117.70
    7 N                |   9 C                |  10 H                |   108.14
    7 N                |   9 C                |  11 C                |   107.76
    7 N                |   9 C                |  15 C                |   114.89
   10 H                |   9 C                |  11 C                |   108.23
   10 H                |   9 C                |  15 C                |   106.45
   11 C                |   9 C                |  15 C                |   111.15
    9 C                |  11 C                |  12 H                |   110.19
    9 C                |  11 C                |  13 H                |   109.38
    9 C                |  11 C                |  14 H                |   110.10
   12 H                |  11 C                |  13 H                |   108.87
   12 H                |  11 C                |  14 H                |   109.59
   13 H                |  11 C                |  14 H                |   108.68
    9 C                |  15 C                |  16 O                |   119.95
    9 C                |  15 C                |  17 N                |   118.53
   16 O                |  15 C                |  17 N                |   121.52
   15 C                |  17 N                |  18 H                |   118.28
   15 C                |  17 N                |  19 C                |   125.03
   18 H                |  17 N                |  19 C                |   116.35
   17 N                |  19 C                |  20 H                |   108.87
   17 N                |  19 C                |  21 C                |   110.10
   17 N                |  19 C                |  29 C                |   113.61
   20 H                |  19 C                |  21 C                |   108.11
   20 H                |  19 C                |  29 C                |   106.57
   21 C                |  19 C                |  29 C                |   109.40
   19 C                |  21 C                |  22 H                |   109.52
   19 C                |  21 C                |  23 C                |   112.43
   19 C                |  21 C                |  27 O                |   110.01
   22 H                |  21 C                |  23 C                |   108.12
   22 H                |  21 C                |  27 O                |   109.17
   23 C                |  21 C                |  27 O                |   107.51
   21 C                |  23 C                |  24 H                |   110.57
   21 C                |  23 C                |  25 H                |   109.17
   21 C                |  23 C                |  26 H                |   109.63
   24 H                |  23 C                |  25 H                |   108.99
   24 H                |  23 C                |  26 H                |   109.50
   25 H                |  23 C                |  26 H                |   108.95
   21 C                |  27 O                |  28 H                |   107.38
   19 C                |  29 C                |  30 O                |   119.95
   19 C                |  29 C                |  31 N                |   120.09
   30 O                |  29 C                |  31 N                |   119.92
   29 C                |  31 N                |  32 H                |   120.60
   29 C                |  31 N                |  33 H                |   118.45
   32 H                |  31 N                |  33 H                |   120.94
 ------------------------------------------------------------------------------
                            number of included internuclear angles:         55
 ==============================================================================



  library name resolved from: environment
  library file name is: </opt/rit/el9/20230413/app/linux-rhel9-x86_64_v3/gcc-11.2.1/nwchem-7.2.0-oxtctbuhfuzyfaoziquq6bki22grib3g/share/nwchem/libraries/>
  


 Summary of "ao basis" -> "" (cartesian)
 ------------------------------------------------------------------------------
       Tag                 Description            Shells   Functions and Types
 ---------------- ------------------------------  ------  ---------------------
 *                        aug-cc-pvdz                 on all atoms 


                      Basis "ao basis" -> "ao basis" (cartesian)
                      -----
  H (Hydrogen)
  ------------
            Exponent  Coefficients 
       -------------- ---------------------------------------------------------
  1 S  1.30100000E+01  0.019685
  1 S  1.96200000E+00  0.137977
  1 S  4.44600000E-01  0.478148

  2 S  1.22000000E-01  1.000000

  3 S  2.97400000E-02  1.000000

  4 P  7.27000000E-01  1.000000

  5 P  1.41000000E-01  1.000000

  C (Carbon)
  ----------
            Exponent  Coefficients 
       -------------- ---------------------------------------------------------
  1 S  6.66500000E+03  0.000692
  1 S  1.00000000E+03  0.005329
  1 S  2.28000000E+02  0.027077
  1 S  6.47100000E+01  0.101718
  1 S  2.10600000E+01  0.274740
  1 S  7.49500000E+00  0.448564
  1 S  2.79700000E+00  0.285074
  1 S  5.21500000E-01  0.015204

  2 S  6.66500000E+03 -0.000146
  2 S  1.00000000E+03 -0.001154
  2 S  2.28000000E+02 -0.005725
  2 S  6.47100000E+01 -0.023312
  2 S  2.10600000E+01 -0.063955
  2 S  7.49500000E+00 -0.149981
  2 S  2.79700000E+00 -0.127262
  2 S  5.21500000E-01  0.544529

  3 S  1.59600000E-01  1.000000

  4 S  4.69000000E-02  1.000000

  5 P  9.43900000E+00  0.038109
  5 P  2.00200000E+00  0.209480
  5 P  5.45600000E-01  0.508557

  6 P  1.51700000E-01  1.000000

  7 P  4.04100000E-02  1.000000

  8 D  5.50000000E-01  1.000000

  9 D  1.51000000E-01  1.000000

  O (Oxygen)
  ----------
            Exponent  Coefficients 
       -------------- ---------------------------------------------------------
  1 S  1.17200000E+04  0.000710
  1 S  1.75900000E+03  0.005470
  1 S  4.00800000E+02  0.027837
  1 S  1.13700000E+02  0.104800
  1 S  3.70300000E+01  0.283062
  1 S  1.32700000E+01  0.448719
  1 S  5.02500000E+00  0.270952
  1 S  1.01300000E+00  0.015458

  2 S  1.17200000E+04 -0.000160
  2 S  1.75900000E+03 -0.001263
  2 S  4.00800000E+02 -0.006267
  2 S  1.13700000E+02 -0.025716
  2 S  3.70300000E+01 -0.070924
  2 S  1.32700000E+01 -0.165411
  2 S  5.02500000E+00 -0.116955
  2 S  1.01300000E+00  0.557368

  3 S  3.02300000E-01  1.000000

  4 S  7.89600000E-02  1.000000

  5 P  1.77000000E+01  0.043018
  5 P  3.85400000E+00  0.228913
  5 P  1.04600000E+00  0.508728

  6 P  2.75300000E-01  1.000000

  7 P  6.85600000E-02  1.000000

  8 D  1.18500000E+00  1.000000

  9 D  3.32000000E-01  1.000000

  N (Nitrogen)
  ------------
            Exponent  Coefficients 
       -------------- ---------------------------------------------------------
  1 S  9.04600000E+03  0.000700
  1 S  1.35700000E+03  0.005389
  1 S  3.09300000E+02  0.027406
  1 S  8.77300000E+01  0.103207
  1 S  2.85600000E+01  0.278723
  1 S  1.02100000E+01  0.448540
  1 S  3.83800000E+00  0.278238
  1 S  7.46600000E-01  0.015440

  2 S  9.04600000E+03 -0.000153
  2 S  1.35700000E+03 -0.001208
  2 S  3.09300000E+02 -0.005992
  2 S  8.77300000E+01 -0.024544
  2 S  2.85600000E+01 -0.067459
  2 S  1.02100000E+01 -0.158078
  2 S  3.83800000E+00 -0.121831
  2 S  7.46600000E-01  0.549003

  3 S  2.24800000E-01  1.000000

  4 S  6.12400000E-02  1.000000

  5 P  1.35500000E+01  0.039919
  5 P  2.91700000E+00  0.217169
  5 P  7.97300000E-01  0.510319

  6 P  2.18500000E-01  1.000000

  7 P  5.61100000E-02  1.000000

  8 D  8.17000000E-01  1.000000

  9 D  2.30000000E-01  1.000000



 Summary of "ao basis" -> "ao basis" (cartesian)
 ------------------------------------------------------------------------------
       Tag                 Description            Shells   Functions and Types
 ---------------- ------------------------------  ------  ---------------------
 H                        aug-cc-pvdz                5        9   3s2p
 C                        aug-cc-pvdz                9       25   4s3p2d
 O                        aug-cc-pvdz                9       25   4s3p2d
 N                        aug-cc-pvdz                9       25   4s3p2d


                                 NWChem SCF Module
                                 -----------------



  ao basis        = "ao basis"
  functions       =   553
  atoms           =    33
  closed shells   =    62
  open shells     =     0
  charge          =   0.00
  wavefunction    = RHF 
  input vectors   = atomic
  output vectors  = ./ALA_THR_1.movecs
  use symmetry    = F
  symmetry adapt  = F


 Summary of "ao basis" -> "ao basis" (cartesian)
 ------------------------------------------------------------------------------
       Tag                 Description            Shells   Functions and Types
 ---------------- ------------------------------  ------  ---------------------
 H                        aug-cc-pvdz                5        9   3s2p
 C                        aug-cc-pvdz                9       25   4s3p2d
 O                        aug-cc-pvdz                9       25   4s3p2d
 N                        aug-cc-pvdz                9       25   4s3p2d



 Forming initial guess at       1.2s


 !! The overlap matrix has   3 vectors deemed linearly dependent with
    eigenvalues:
 3.36D-06 4.45D-06 7.57D-06


      Superposition of Atomic Density Guess
      -------------------------------------

 Sum of atomic energies:        -809.46727949

      Non-variational initial energy
      ------------------------------

 Total energy =    -819.630070
 1-e energy   =   -3548.335419
 2-e energy   =    1497.158911
 HOMO         =      -0.310135
 LUMO         =       0.012401


 Starting SCF solution at     349.4s



 ----------------------------------------------
         Quadratically convergent ROHF

 Convergence threshold     :          1.000E-04
 Maximum no. of iterations :           30
 Final Fock-matrix accuracy:          1.000E-10
 ----------------------------------------------


              iter       energy          gnorm     gmax       time
             ----- ------------------- --------- --------- --------
                 1     -813.3058930151  2.50D+00  1.53D-01    550.6
                 2     -813.6359051258  8.30D-01  4.09D-02   1024.1
                 3     -813.6960669227  6.70D-02  3.39D-03   1710.1
                 4     -813.6967063212  4.25D-03  4.38D-04   2694.9
                 5     -813.6967099275  8.73D-06  4.31D-07   4518.5


       Final RHF  results 
       ------------------ 

         Total SCF energy =   -813.696709927538
      One-electron energy =  -3559.882307140971
      Two-electron energy =   1514.639159286554
 Nuclear repulsion energy =   1231.546437926879

        Time for solution =   4245.9s


             Final eigenvalues
             -----------------

              1      
    1  -20.5801
    2  -20.5517
    3  -20.5306
    4  -20.5115
    5  -15.6260
    6  -15.6024
    7  -15.5739
    8  -11.3807
    9  -11.3658
   10  -11.3459
   11  -11.3143
   12  -11.3004
   13  -11.2921
   14  -11.2625
   15  -11.2592
   16  -11.2309
   17   -1.4158
   18   -1.3939
   19   -1.3859
   20   -1.3728
   21   -1.2749
   22   -1.2451
   23   -1.1987
   24   -1.0829
   25   -1.0542
   26   -1.0135
   27   -0.9762
   28   -0.9053
   29   -0.8365
   30   -0.8341
   31   -0.8106
   32   -0.7843
   33   -0.7419
   34   -0.7301
   35   -0.7219
   36   -0.6989
   37   -0.6925
   38   -0.6623
   39   -0.6478
   40   -0.6370
   41   -0.6297
   42   -0.6154
   43   -0.6024
   44   -0.5988
   45   -0.5908
   46   -0.5796
   47   -0.5679
   48   -0.5603
   49   -0.5567
   50   -0.5532
   51   -0.5450
   52   -0.5363
   53   -0.5318
   54   -0.5120
   55   -0.4887
   56   -0.4575
   57   -0.4536
   58   -0.4505
   59   -0.4353
   60   -0.4109
   61   -0.3949
   62   -0.3856
   63    0.0178
   64    0.0341
   65    0.0352
   66    0.0423
   67    0.0499
   68    0.0530
   69    0.0572
   70    0.0583
   71    0.0633
   72    0.0726

                       ROHF Final Molecular Orbital Analysis
                       -------------------------------------

 Vector   17  Occ=2.000000D+00  E=-1.415769D+00
              MO Center= -1.3D+00, -1.8D+00,  5.0D-01, r^2= 1.3D+00
   Bfn.  Coefficient  Atom+Function         Bfn.  Coefficient  Atom+Function  
  ----- ------------  ---------------      ----- ------------  ---------------
    80      0.342872   6 O  s                79      0.340660   6 O  s         
    54      0.241567   5 C  s                12      0.180083   2 C  s         

 Vector   18  Occ=2.000000D+00  E=-1.393876D+00
              MO Center=  5.1D-01,  6.7D-01,  2.3D-01, r^2= 5.5D+00
   Bfn.  Coefficient  Atom+Function         Bfn.  Coefficient  Atom+Function  
  ----- ------------  ---------------      ----- ------------  ---------------
   250      0.272299  16 O  s               249      0.253626  16 O  s         
   429      0.250911  27 O  s               428      0.220772  27 O  s         
   224      0.185817  15 C  s         

 Vector   19  Occ=2.000000D+00  E=-1.385891D+00
              MO Center=  1.0D-01,  1.1D+00, -3.5D-01, r^2= 5.7D+00
   Bfn.  Coefficient  Atom+Function         Bfn.  Coefficient  Atom+Function  
  ----- ------------  ---------------      ----- ------------  ---------------
   429      0.345115  27 O  s               428      0.303315  27 O  s         
   250     -0.242259  16 O  s               249     -0.228523  16 O  s         
   224     -0.155419  15 C  s         

 Vector   20  Occ=2.000000D+00  E=-1.372840D+00
              MO Center= -6.0D-01,  2.7D+00,  1.0D+00, r^2= 2.1D+00
   Bfn.  Coefficient  Atom+Function         Bfn.  Coefficient  Atom+Function  
  ----- ------------  ---------------      ----- ------------  ---------------
   488      0.360829  30 O  s               487      0.330779  30 O  s         
   462      0.227756  29 C  s               429     -0.168191  27 O  s         
   428     -0.152577  27 O  s         

 Vector   21  Occ=2.000000D+00  E=-1.274945D+00
              MO Center= -2.1D-01, -2.1D+00, -9.1D-02, r^2= 2.2D+00
   Bfn.  Coefficient  Atom+Function         Bfn.  Coefficient  Atom+Function  
  ----- ------------  ---------------      ----- ------------  ---------------
   105      0.391046   7 N  s               104      0.332157   7 N  s         
    80     -0.215410   6 O  s                79     -0.181136   6 O  s         
   139     -0.175397   9 C  s               128      0.153576   8 H  s         

 Vector   22  Occ=2.000000D+00  E=-1.245146D+00
              MO Center=  5.4D-01,  2.1D-01,  2.0D-01, r^2= 2.7D+00
   Bfn.  Coefficient  Atom+Function         Bfn.  Coefficient  Atom+Function  
  ----- ------------  ---------------      ----- ------------  ---------------
   275      0.359284  17 N  s               274      0.324778  17 N  s         
   309     -0.251155  19 C  s               250     -0.201345  16 O  s         
   249     -0.161447  16 O  s         

 Vector   23  Occ=2.000000D+00  E=-1.198746D+00
              MO Center= -8.5D-01,  1.4D+00,  1.6D+00, r^2= 1.8D+00
   Bfn.  Coefficient  Atom+Function         Bfn.  Coefficient  Atom+Function  
  ----- ------------  ---------------      ----- ------------  ---------------
   513      0.387398  31 N  s               512      0.365228  31 N  s         
   309     -0.288607  19 C  s               488     -0.194143  30 O  s         
   466     -0.187891  29 C  py              487     -0.165687  30 O  s         
   536      0.159336  32 H  s               545      0.157752  33 H  s         

 Vector   24  Occ=2.000000D+00  E=-1.082864D+00
              MO Center=  5.0D-01, -1.8D+00, -1.4D-01, r^2= 5.7D+00
   Bfn.  Coefficient  Atom+Function         Bfn.  Coefficient  Atom+Function  
  ----- ------------  ---------------      ----- ------------  ---------------
   138      0.228553   9 C  s               172      0.190801  11 C  s         
    12     -0.153191   2 C  s         

 Vector   25  Occ=2.000000D+00  E=-1.054246D+00
              MO Center=  4.6D-01,  1.2D+00, -9.0D-01, r^2= 5.8D+00
   Bfn.  Coefficient  Atom+Function         Bfn.  Coefficient  Atom+Function  
  ----- ------------  ---------------      ----- ------------  ---------------
   342      0.217983  21 C  s               309      0.195255  19 C  s         
   376      0.190204  23 C  s               308      0.182737  19 C  s         
   348      0.171673  21 C  px        

 Vector   26  Occ=2.000000D+00  E=-1.013546D+00
              MO Center= -1.2D+00, -2.6D+00, -6.5D-01, r^2= 4.9D+00
   Bfn.  Coefficient  Atom+Function         Bfn.  Coefficient  Atom+Function  
  ----- ------------  ---------------      ----- ------------  ---------------
    11      0.316715   2 C  s               172      0.167594  11 C  s         
    55      0.164453   5 C  s         

 Vector   27  Occ=2.000000D+00  E=-9.762232D-01
              MO Center=  7.4D-01,  1.5D+00, -9.0D-01, r^2= 5.0D+00
   Bfn.  Coefficient  Atom+Function         Bfn.  Coefficient  Atom+Function  
  ----- ------------  ---------------      ----- ------------  ---------------
   350      0.323764  21 C  pz              376     -0.257900  23 C  s         
   316      0.240506  19 C  pz              308      0.219625  19 C  s         
   145     -0.162872   9 C  py              139     -0.156423   9 C  s         

 Vector   28  Occ=2.000000D+00  E=-9.052754D-01
              MO Center=  1.2D+00, -1.8D+00, -6.5D-02, r^2= 5.5D+00
   Bfn.  Coefficient  Atom+Function         Bfn.  Coefficient  Atom+Function  
  ----- ------------  ---------------      ----- ------------  ---------------
   139      0.281252   9 C  s               145      0.240445   9 C  py        
   172     -0.238593  11 C  s               138      0.199922   9 C  s         
   173     -0.176783  11 C  s         

 Vector   29  Occ=2.000000D+00  E=-8.364583D-01
              MO Center= -1.0D-01, -1.0D+00, -5.8D-01, r^2= 7.7D+00
   Bfn.  Coefficient  Atom+Function         Bfn.  Coefficient  Atom+Function  
  ----- ------------  ---------------      ----- ------------  ---------------
   107      0.256808   7 N  px              128      0.188953   8 H  s         
   105      0.184538   7 N  s                54     -0.181137   5 C  s         
    60     -0.176219   5 C  px              309      0.164167  19 C  s         
   139     -0.159609   9 C  s                56      0.150804   5 C  s         

 Vector   30  Occ=2.000000D+00  E=-8.341477D-01
              MO Center= -8.7D-02,  9.7D-01, -4.1D-01, r^2= 7.8D+00
   Bfn.  Coefficient  Atom+Function         Bfn.  Coefficient  Atom+Function  
  ----- ------------  ---------------      ----- ------------  ---------------
   309      0.458282  19 C  s               344      0.240869  21 C  s         
   464     -0.206497  29 C  s                56     -0.187700   5 C  s         
   342     -0.180464  21 C  s               377      0.171459  23 C  s         
   462      0.157440  29 C  s               376      0.151424  23 C  s         

 Vector   31  Occ=2.000000D+00  E=-8.105588D-01
              MO Center=  4.8D-01, -2.7D-01, -3.6D-02, r^2= 4.6D+00
   Bfn.  Coefficient  Atom+Function         Bfn.  Coefficient  Atom+Function  
  ----- ------------  ---------------      ----- ------------  ---------------
   309      0.219837  19 C  s               298     -0.208232  18 H  s         
   279      0.204004  17 N  pz              277      0.195323  17 N  px        
   275     -0.187706  17 N  s               231      0.179612  15 C  py        
   224      0.174199  15 C  s               128      0.161679   8 H  s         
   145      0.157206   9 C  py              250     -0.151849  16 O  s         

 Vector   32  Occ=2.000000D+00  E=-7.843454D-01
              MO Center= -3.2D-01,  1.3D+00,  7.1D-01, r^2= 4.5D+00
   Bfn.  Coefficient  Atom+Function         Bfn.  Coefficient  Atom+Function  
  ----- ------------  ---------------      ----- ------------  ---------------
   225      0.224706  15 C  s               462     -0.190678  29 C  s         
   516     -0.183082  31 N  py              298     -0.166959  18 H  s         
   470     -0.163728  29 C  pz              545      0.164156  33 H  s         
   517      0.160463  31 N  pz              488      0.158863  30 O  s         
   315     -0.153473  19 C  py              515     -0.153407  31 N  px        

 Vector   33  Occ=2.000000D+00  E=-7.419289D-01
              MO Center= -2.6D-01,  2.6D-01,  6.2D-01, r^2= 5.8D+00
   Bfn.  Coefficient  Atom+Function         Bfn.  Coefficient  Atom+Function  
  ----- ------------  ---------------      ----- ------------  ---------------
   225      0.295056  15 C  s               516      0.250243  31 N  py        
   315     -0.220259  19 C  py              536     -0.218170  32 H  s         
   145     -0.206379   9 C  py              463      0.205714  29 C  s         
   464     -0.151131  29 C  s         

 Vector   34  Occ=2.000000D+00  E=-7.301254D-01
              MO Center= -2.6D-01, -5.0D-01,  2.8D-01, r^2= 7.6D+00
   Bfn.  Coefficient  Atom+Function         Bfn.  Coefficient  Atom+Function  
  ----- ------------  ---------------      ----- ------------  ---------------
   145      0.283374   9 C  py              225     -0.236317  15 C  s         
   109     -0.196392   7 N  pz              516      0.174579  31 N  py        
   536     -0.162914  32 H  s               128      0.153969   8 H  s         
   146      0.154568   9 C  pz              226      0.151814  15 C  s         
   228     -0.151699  15 C  py        

 Vector   35  Occ=2.000000D+00  E=-7.219442D-01
              MO Center= -2.1D-01,  9.1D-01, -6.8D-01, r^2= 7.1D+00
   Bfn.  Coefficient  Atom+Function         Bfn.  Coefficient  Atom+Function  
  ----- ------------  ---------------      ----- ------------  ---------------
   431      0.252849  27 O  px              452     -0.230876  28 H  s         
   346     -0.173026  21 C  py              366     -0.153549  22 H  s         

 Vector   36  Occ=2.000000D+00  E=-6.988653D-01
              MO Center= -5.1D-01, -8.6D-01, -1.6D-01, r^2= 8.8D+00
   Bfn.  Coefficient  Atom+Function         Bfn.  Coefficient  Atom+Function  
  ----- ------------  ---------------      ----- ------------  ---------------
    57      0.182168   5 C  px               13      0.150635   2 C  s         
   108      0.150646   7 N  py        

 Vector   37  Occ=2.000000D+00  E=-6.924943D-01
              MO Center= -6.3D-01, -1.2D+00,  2.8D-01, r^2= 6.7D+00
   Bfn.  Coefficient  Atom+Function         Bfn.  Coefficient  Atom+Function  
  ----- ------------  ---------------      ----- ------------  ---------------
    84      0.252733   6 O  pz               80      0.211801   6 O  s         
   143      0.171991   9 C  pz               57      0.168509   5 C  px        
   107     -0.154787   7 N  px        

 Vector   38  Occ=2.000000D+00  E=-6.622856D-01
              MO Center= -1.9D-01,  1.1D+00,  7.8D-01, r^2= 7.4D+00
   Bfn.  Coefficient  Atom+Function         Bfn.  Coefficient  Atom+Function  
  ----- ------------  ---------------      ----- ------------  ---------------
   545      0.194950  33 H  s               517      0.184816  31 N  pz        
   491     -0.176481  30 O  py              488     -0.173488  30 O  s         
   466      0.169184  29 C  py              278     -0.156371  17 N  py        

 Vector   39  Occ=2.000000D+00  E=-6.477937D-01
              MO Center=  1.1D-01,  4.7D-01, -1.7D-01, r^2= 8.4D+00
   Bfn.  Coefficient  Atom+Function         Bfn.  Coefficient  Atom+Function  
  ----- ------------  ---------------      ----- ------------  ---------------
   433      0.195959  27 O  pz              225      0.187450  15 C  s         
   311     -0.187867  19 C  px              139     -0.176824   9 C  s         
   226     -0.173084  15 C  s               332     -0.168444  20 H  s         

 Vector   40  Occ=2.000000D+00  E=-6.369648D-01
              MO Center= -6.4D-01, -8.5D-01, -1.6D-01, r^2= 8.8D+00
   Bfn.  Coefficient  Atom+Function         Bfn.  Coefficient  Atom+Function  
  ----- ------------  ---------------      ----- ------------  ---------------
   344      0.260617  21 C  s               139     -0.210542   9 C  s         
    15     -0.194116   2 C  py              367     -0.183676  22 H  s         
     1     -0.175165   1 H  s                58     -0.163543   5 C  py        
    35      0.161021   3 H  s         

 Vector   41  Occ=2.000000D+00  E=-6.297136D-01
              MO Center= -3.6D-02, -1.2D-01, -5.7D-01, r^2= 9.7D+00
   Bfn.  Coefficient  Atom+Function         Bfn.  Coefficient  Atom+Function  
  ----- ------------  ---------------      ----- ------------  ---------------
   344      0.279283  21 C  s               284     -0.216812  17 N  py        
   367     -0.207440  22 H  s                15      0.155886   2 C  py        

 Vector   42  Occ=2.000000D+00  E=-6.154226D-01
              MO Center=  3.0D-01, -3.9D-01, -8.9D-02, r^2= 8.7D+00
   Bfn.  Coefficient  Atom+Function         Bfn.  Coefficient  Atom+Function  
  ----- ------------  ---------------      ----- ------------  ---------------
   176     -0.161296  11 C  py              252     -0.155158  16 O  px        
   433     -0.155269  27 O  pz               59      0.150157   5 C  pz        

 Vector   43  Occ=2.000000D+00  E=-6.024040D-01
              MO Center= -4.2D-02, -5.0D-01,  3.9D-01, r^2= 9.5D+00
   Bfn.  Coefficient  Atom+Function         Bfn.  Coefficient  Atom+Function  
  ----- ------------  ---------------      ----- ------------  ---------------
   491      0.204007  30 O  py               59      0.179605   5 C  pz        
   254      0.177352  16 O  pz               84     -0.152175   6 O  pz        

 Vector   44  Occ=2.000000D+00  E=-5.987850D-01
              MO Center=  2.0D-01, -5.7D-01,  4.9D-01, r^2= 8.5D+00
   Bfn.  Coefficient  Atom+Function         Bfn.  Coefficient  Atom+Function  
  ----- ------------  ---------------      ----- ------------  ---------------
   491     -0.177287  30 O  py              227      0.176126  15 C  px        
   254     -0.176732  16 O  pz        

 Vector   45  Occ=2.000000D+00  E=-5.907566D-01
              MO Center= -9.5D-01, -2.4D+00, -4.7D-01, r^2= 8.7D+00
   Bfn.  Coefficient  Atom+Function         Bfn.  Coefficient  Atom+Function  
  ----- ------------  ---------------      ----- ------------  ---------------
    44      0.305744   4 H  s                14     -0.263616   2 C  px        
    45      0.256225   4 H  s               205      0.212272  13 H  s         
   206      0.181427  13 H  s               175      0.177939  11 C  px        
    16      0.171908   2 C  pz        

 Vector   46  Occ=2.000000D+00  E=-5.796197D-01
              MO Center=  4.5D-01,  8.4D-01,  2.7D-01, r^2= 8.2D+00
   Bfn.  Coefficient  Atom+Function         Bfn.  Coefficient  Atom+Function  
  ----- ------------  ---------------      ----- ------------  ---------------
   491      0.265727  30 O  py              254     -0.201316  16 O  pz        
   466     -0.201182  29 C  py              488      0.168932  30 O  s         
   464     -0.167562  29 C  s               227      0.162713  15 C  px        
   279     -0.159788  17 N  pz        

 Vector   47  Occ=2.000000D+00  E=-5.678507D-01
              MO Center= -2.4D-02,  1.4D+00, -6.8D-01, r^2= 7.2D+00
   Bfn.  Coefficient  Atom+Function         Bfn.  Coefficient  Atom+Function  
  ----- ------------  ---------------      ----- ------------  ---------------
   432     -0.265501  27 O  py              343      0.258920  21 C  s         
   435     -0.191698  27 O  py              380      0.190587  23 C  py        
   400     -0.183124  24 H  s               433     -0.183349  27 O  pz        
   467     -0.157132  29 C  pz        

 Vector   48  Occ=2.000000D+00  E=-5.603156D-01
              MO Center= -9.5D-02, -2.3D+00, -4.5D-01, r^2= 7.4D+00
   Bfn.  Coefficient  Atom+Function         Bfn.  Coefficient  Atom+Function  
  ----- ------------  ---------------      ----- ------------  ---------------
   196      0.230445  12 H  s                15      0.209525   2 C  py        
   177     -0.200275  11 C  pz               35     -0.198184   3 H  s         
   197      0.198727  12 H  s               108     -0.188516   7 N  py        
   111     -0.173310   7 N  py                2      0.169258   1 H  s         
     1      0.160042   1 H  s               176      0.152594  11 C  py        

 Vector   49  Occ=2.000000D+00  E=-5.567040D-01
              MO Center=  7.6D-01, -8.1D-01,  8.4D-03, r^2= 1.1D+01
   Bfn.  Coefficient  Atom+Function         Bfn.  Coefficient  Atom+Function  
  ----- ------------  ---------------      ----- ------------  ---------------
   205      0.224298  13 H  s               206      0.219402  13 H  s         
   215     -0.209781  14 H  s               175      0.177656  11 C  px        
   214     -0.175773  14 H  s               176      0.153648  11 C  py        
    55     -0.150064   5 C  s         

 Vector   50  Occ=2.000000D+00  E=-5.531520D-01
              MO Center=  5.8D-01,  2.5D-01, -9.6D-01, r^2= 1.1D+01
   Bfn.  Coefficient  Atom+Function         Bfn.  Coefficient  Atom+Function  
  ----- ------------  ---------------      ----- ------------  ---------------
   418      0.239902  26 H  s               419      0.226667  26 H  s         
   379      0.208908  23 C  px              175     -0.202617  11 C  px        
    12     -0.187286   2 C  s               464      0.182694  29 C  s         
   141      0.161538   9 C  px              380      0.159152  23 C  py        
   205     -0.156884  13 H  s               400     -0.156375  24 H  s         

 Vector   51  Occ=2.000000D+00  E=-5.450056D-01
              MO Center=  5.8D-01, -2.2D-01, -7.2D-01, r^2= 9.9D+00
   Bfn.  Coefficient  Atom+Function         Bfn.  Coefficient  Atom+Function  
  ----- ------------  ---------------      ----- ------------  ---------------
   380      0.202447  23 C  py              401     -0.174044  24 H  s         
   400     -0.170917  24 H  s               333      0.164518  20 H  s         

 Vector   52  Occ=2.000000D+00  E=-5.362508D-01
              MO Center=  6.5D-01,  4.7D-01, -5.8D-01, r^2= 9.6D+00
   Bfn.  Coefficient  Atom+Function         Bfn.  Coefficient  Atom+Function  
  ----- ------------  ---------------      ----- ------------  ---------------
   316      0.249759  19 C  pz              409     -0.218952  25 H  s         
   381      0.203411  23 C  pz              350      0.196851  21 C  pz        
   410     -0.194939  25 H  s               343      0.177052  21 C  s         
   344      0.177358  21 C  s               309     -0.163381  19 C  s         
   145      0.161106   9 C  py              332     -0.159596  20 H  s         

 Vector   53  Occ=2.000000D+00  E=-5.317933D-01
              MO Center=  2.9D-01,  1.7D+00, -9.3D-01, r^2= 7.1D+00
   Bfn.  Coefficient  Atom+Function         Bfn.  Coefficient  Atom+Function  
  ----- ------------  ---------------      ----- ------------  ---------------
   379      0.229100  23 C  px              419      0.224597  26 H  s         
   418      0.204659  26 H  s               409     -0.196476  25 H  s         
   410     -0.195306  25 H  s               226     -0.179732  15 C  s         
   432      0.180262  27 O  py              276     -0.160849  17 N  s         
   344      0.151413  21 C  s         

 Vector   54  Occ=2.000000D+00  E=-5.120396D-01
              MO Center=  6.0D-01, -7.1D-01,  4.5D-01, r^2= 7.3D+00
   Bfn.  Coefficient  Atom+Function         Bfn.  Coefficient  Atom+Function  
  ----- ------------  ---------------      ----- ------------  ---------------
   309      0.329970  19 C  s               343     -0.223262  21 C  s         
   143     -0.197043   9 C  pz              162     -0.184473  10 H  s         
   252     -0.183549  16 O  px              276      0.171727  17 N  s         
   177      0.156903  11 C  pz              350     -0.155968  21 C  pz        

 Vector   55  Occ=2.000000D+00  E=-4.887433D-01
              MO Center=  1.5D-01,  2.2D+00, -1.4D+00, r^2= 3.1D+00
   Bfn.  Coefficient  Atom+Function         Bfn.  Coefficient  Atom+Function  
  ----- ------------  ---------------      ----- ------------  ---------------
   344      0.485867  21 C  s               367     -0.337166  22 H  s         
   378     -0.281526  23 C  s               377      0.277517  23 C  s         
   310      0.262007  19 C  s               366     -0.261384  22 H  s         
   384      0.252795  23 C  pz              347     -0.249103  21 C  pz        
   346     -0.231794  21 C  py              382     -0.217904  23 C  px        

 Vector   56  Occ=2.000000D+00  E=-4.574700D-01
              MO Center= -3.6D-01,  1.9D+00, -1.0D+00, r^2= 3.6D+00
   Bfn.  Coefficient  Atom+Function         Bfn.  Coefficient  Atom+Function  
  ----- ------------  ---------------      ----- ------------  ---------------
   433     -0.319164  27 O  pz              432      0.305839  27 O  py        
   436     -0.269927  27 O  pz              435      0.250798  27 O  py        
   313     -0.205320  19 C  pz              350      0.201818  21 C  pz        
   378     -0.197922  23 C  s               347      0.173629  21 C  pz        
   346     -0.168931  21 C  py              344      0.165212  21 C  s         

 Vector   57  Occ=2.000000D+00  E=-4.536065D-01
              MO Center=  3.0D-01, -1.2D+00,  6.0D-01, r^2= 5.2D+00
   Bfn.  Coefficient  Atom+Function         Bfn.  Coefficient  Atom+Function  
  ----- ------------  ---------------      ----- ------------  ---------------
   253      0.332131  16 O  py              139      0.281624   9 C  s         
   256      0.265281  16 O  py              108      0.254541   7 N  py        
    83     -0.243900   6 O  py              111      0.230381   7 N  py        
   109     -0.202523   7 N  pz              234     -0.200121  15 C  py        
    86     -0.189555   6 O  py              112     -0.167662   7 N  pz        

 Vector   58  Occ=2.000000D+00  E=-4.505093D-01
              MO Center= -1.2D+00, -1.5D+00,  4.9D-01, r^2= 4.4D+00
   Bfn.  Coefficient  Atom+Function         Bfn.  Coefficient  Atom+Function  
  ----- ------------  ---------------      ----- ------------  ---------------
    82      0.473884   6 O  px               85      0.380848   6 O  px        
    13     -0.350465   2 C  s                56      0.256398   5 C  s         
    63     -0.201221   5 C  px              276     -0.197369  17 N  s         
   140      0.188322   9 C  s               226      0.180575  15 C  s         
   105     -0.169203   7 N  s               284      0.162331  17 N  py        

 Vector   59  Occ=2.000000D+00  E=-4.353378D-01
              MO Center=  2.1D-01,  1.0D+00,  9.6D-01, r^2= 6.7D+00
   Bfn.  Coefficient  Atom+Function         Bfn.  Coefficient  Atom+Function  
  ----- ------------  ---------------      ----- ------------  ---------------
   333      0.350004  20 H  s               492     -0.288571  30 O  pz        
   284     -0.235513  17 N  py              490      0.232657  30 O  px        
   495     -0.232431  30 O  pz              309     -0.211850  19 C  s         
   254      0.205855  16 O  pz              277      0.204313  17 N  px        
   343      0.203270  21 C  s               280      0.185771  17 N  px        

 Vector   60  Occ=2.000000D+00  E=-4.108686D-01
              MO Center=  6.2D-01, -1.0D+00,  6.6D-01, r^2= 5.4D+00
   Bfn.  Coefficient  Atom+Function         Bfn.  Coefficient  Atom+Function  
  ----- ------------  ---------------      ----- ------------  ---------------
   253      0.361636  16 O  py              256      0.284275  16 O  py        
   108     -0.274992   7 N  py              111     -0.249277   7 N  py        
   145      0.232512   9 C  py              139      0.213983   9 C  s         
   344     -0.195450  21 C  s               142      0.193205   9 C  py        
   106      0.189943   7 N  s               163     -0.180748  10 H  s         

 Vector   61  Occ=2.000000D+00  E=-3.948875D-01
              MO Center= -8.3D-01,  2.1D+00,  1.6D+00, r^2= 2.4D+00
   Bfn.  Coefficient  Atom+Function         Bfn.  Coefficient  Atom+Function  
  ----- ------------  ---------------      ----- ------------  ---------------
   490      0.352156  30 O  px              515     -0.306381  31 N  px        
   517     -0.303962  31 N  pz              344     -0.285807  21 C  s         
   493      0.273570  30 O  px              518     -0.271959  31 N  px        
   520     -0.254237  31 N  pz              378      0.205471  23 C  s         
   492      0.197772  30 O  pz              284      0.192476  17 N  py        

 Vector   62  Occ=2.000000D+00  E=-3.856391D-01
              MO Center=  3.8D-01,  1.2D+00,  7.1D-01, r^2= 4.7D+00
   Bfn.  Coefficient  Atom+Function         Bfn.  Coefficient  Atom+Function  
  ----- ------------  ---------------      ----- ------------  ---------------
   492      0.288207  30 O  pz              277      0.255066  17 N  px        
   279     -0.244886  17 N  pz              280      0.238939  17 N  px        
   282     -0.231027  17 N  pz              495      0.228105  30 O  pz        
   252     -0.196226  16 O  px              254      0.174070  16 O  pz        
   490     -0.163520  30 O  px              255     -0.160034  16 O  px        

 Vector   63  Occ=0.000000D+00  E= 1.784486D-02
              MO Center= -2.9D-01, -4.1D+00, -2.3D+00, r^2= 1.8D+01
   Bfn.  Coefficient  Atom+Function         Bfn.  Coefficient  Atom+Function  
  ----- ------------  ---------------      ----- ------------  ---------------
   300      4.226659  18 H  s               234     -2.659667  15 C  py        
    63     -2.430705   5 C  px              226      2.320048  15 C  s         
   106     -1.808427   7 N  s                 3     -1.773477   1 H  s         
   216     -1.690664  14 H  s               402     -1.611881  24 H  s         
   464      1.570266  29 C  s                37     -1.558966   3 H  s         

 Vector   64  Occ=0.000000D+00  E= 3.408919D-02
              MO Center=  3.0D-01, -1.6D+00, -2.3D+00, r^2= 3.4D+01
   Bfn.  Coefficient  Atom+Function         Bfn.  Coefficient  Atom+Function  
  ----- ------------  ---------------      ----- ------------  ---------------
   344     -4.653174  21 C  s               300      4.579464  18 H  s         
   464      3.933598  29 C  s               234      3.727276  15 C  py        
   106      3.661439   7 N  s               216      3.072984  14 H  s         
     3     -2.984871   1 H  s               319     -2.697622  19 C  pz        
   318      2.469336  19 C  py               63     -2.257400   5 C  px        

 Vector   65  Occ=0.000000D+00  E= 3.521973D-02
              MO Center= -7.3D-01, -2.6D+00, -1.5D+00, r^2= 3.4D+01
   Bfn.  Coefficient  Atom+Function         Bfn.  Coefficient  Atom+Function  
  ----- ------------  ---------------      ----- ------------  ---------------
    63      3.533851   5 C  px              147      2.510948   9 C  px        
   106     -2.314622   7 N  s               173      2.302593  11 C  s         
   344     -2.194201  21 C  s               464      2.115347  29 C  s         
    12     -2.058782   2 C  s                46      1.995752   4 H  s         
    56      1.905680   5 C  s               197     -1.614894  12 H  s         

 Vector   66  Occ=0.000000D+00  E= 4.230250D-02
              MO Center=  1.8D-01, -6.3D-01, -3.5D-01, r^2= 3.9D+01
   Bfn.  Coefficient  Atom+Function         Bfn.  Coefficient  Atom+Function  
  ----- ------------  ---------------      ----- ------------  ---------------
   464     -4.684202  29 C  s               344      4.389306  21 C  s         
   378     -3.709791  23 C  s               276     -3.074197  17 N  s         
   130     -2.482014   8 H  s               318     -2.462541  19 C  py        
    46      2.036382   4 H  s               164      1.872591  10 H  s         
   351      1.781838  21 C  px              514      1.714138  31 N  s         

 Vector   67  Occ=0.000000D+00  E= 4.990706D-02
              MO Center= -6.9D-02,  2.8D-01, -1.9D+00, r^2= 4.3D+01
   Bfn.  Coefficient  Atom+Function         Bfn.  Coefficient  Atom+Function  
  ----- ------------  ---------------      ----- ------------  ---------------
    56      6.783606   5 C  s               464      6.566017  29 C  s         
   344     -5.188752  21 C  s               319     -4.100045  19 C  pz        
   411     -3.183085  25 H  s                37     -3.010729   3 H  s         
   234      2.715221  15 C  py              106     -2.366216   7 N  s         
    46      2.252470   4 H  s               113      2.137139   7 N  px        

 Vector   68  Occ=0.000000D+00  E= 5.297498D-02
              MO Center= -1.6D-01, -4.4D-01, -1.3D+00, r^2= 4.1D+01
   Bfn.  Coefficient  Atom+Function         Bfn.  Coefficient  Atom+Function  
  ----- ------------  ---------------      ----- ------------  ---------------
   226      3.449315  15 C  s               106     -2.838621   7 N  s         
   420      2.763047  26 H  s               216     -2.591000  14 H  s         
   130     -2.417838   8 H  s                13     -2.182220   2 C  s         
    37      2.127821   3 H  s               198      1.902439  12 H  s         
   140      1.881532   9 C  s               174     -1.833329  11 C  s         

 Vector   69  Occ=0.000000D+00  E= 5.717408D-02
              MO Center= -4.0D-01, -8.8D-01,  3.1D-01, r^2= 4.0D+01
   Bfn.  Coefficient  Atom+Function         Bfn.  Coefficient  Atom+Function  
  ----- ------------  ---------------      ----- ------------  ---------------
   226      4.851414  15 C  s               378      4.282785  23 C  s         
   344     -3.890289  21 C  s                56      3.735354   5 C  s         
     3      3.319729   1 H  s               140      3.333475   9 C  s         
    13     -3.020015   2 C  s               198     -2.928682  12 H  s         
   284      2.663099  17 N  py              318      2.671030  19 C  py        

 Vector   70  Occ=0.000000D+00  E= 5.832550D-02
              MO Center= -8.4D-02, -1.5D+00,  8.5D-01, r^2= 3.6D+01
   Bfn.  Coefficient  Atom+Function         Bfn.  Coefficient  Atom+Function  
  ----- ------------  ---------------      ----- ------------  ---------------
   164      5.325504  10 H  s               149     -4.206234   9 C  pz        
   402      3.990085  24 H  s               464     -3.890361  29 C  s         
   378      3.579036  23 C  s                63     -3.314192   5 C  px        
   216     -3.239857  14 H  s               226      3.111551  15 C  s         
   351     -2.700716  21 C  px              300     -2.674570  18 H  s         

 Vector   71  Occ=0.000000D+00  E= 6.332112D-02
              MO Center=  5.0D-01,  6.0D-01, -1.4D+00, r^2= 4.0D+01
   Bfn.  Coefficient  Atom+Function         Bfn.  Coefficient  Atom+Function  
  ----- ------------  ---------------      ----- ------------  ---------------
   344     -5.018013  21 C  s               276      4.942966  17 N  s         
    13      4.569098   2 C  s                46      3.454469   4 H  s         
   318      3.414724  19 C  py              300      3.395830  18 H  s         
   334     -3.381549  20 H  s               378      3.376011  23 C  s         
     3     -3.258215   1 H  s               113      3.012687   7 N  px        

 Vector   72  Occ=0.000000D+00  E= 7.256506D-02
              MO Center=  3.7D-02, -8.3D-01,  5.4D-02, r^2= 4.4D+01
   Bfn.  Coefficient  Atom+Function         Bfn.  Coefficient  Atom+Function  
  ----- ------------  ---------------      ----- ------------  ---------------
   378      3.990739  23 C  s               207      3.874329  13 H  s         
    37      3.533365   3 H  s                46     -3.116251   4 H  s         
   411      2.840867  25 H  s               344     -2.786690  21 C  s         
   140      2.751712   9 C  s               164     -2.665519  10 H  s         
   420     -2.656612  26 H  s               514      2.602698  31 N  s         

 Vector   73  Occ=0.000000D+00  E= 7.290183D-02
              MO Center= -1.7D-01, -3.3D-01, -1.0D+00, r^2= 4.2D+01
   Bfn.  Coefficient  Atom+Function         Bfn.  Coefficient  Atom+Function  
  ----- ------------  ---------------      ----- ------------  ---------------
   216      4.927659  14 H  s               198     -3.819166  12 H  s         
   310     -3.513646  19 C  s                56      3.103571   5 C  s         
   344     -3.064485  21 C  s               368     -2.975469  22 H  s         
   378      2.870937  23 C  s               147      2.815786   9 C  px        
    63      2.720949   5 C  px              164     -2.521146  10 H  s         

 Vector   74  Occ=0.000000D+00  E= 7.693163D-02
              MO Center= -4.7D-01,  2.0D+00, -1.4D+00, r^2= 3.7D+01
   Bfn.  Coefficient  Atom+Function         Bfn.  Coefficient  Atom+Function  
  ----- ------------  ---------------      ----- ------------  ---------------
   368      7.548116  22 H  s               174     -6.437223  11 C  s         
   352     -5.920537  21 C  py              344      4.807333  21 C  s         
   464     -3.867371  29 C  s               420     -3.660131  26 H  s         
   454     -3.571132  28 H  s                56      3.362428   5 C  s         
   276     -3.232017  17 N  s               300     -2.624418  18 H  s         

 Vector   75  Occ=0.000000D+00  E= 8.267761D-02
              MO Center=  9.5D-01, -2.0D+00, -1.0D+00, r^2= 3.6D+01
   Bfn.  Coefficient  Atom+Function         Bfn.  Coefficient  Atom+Function  
  ----- ------------  ---------------      ----- ------------  ---------------
   300     -7.019789  18 H  s                56      6.794092   5 C  s         
   207     -5.697729  13 H  s               130     -5.286959   8 H  s         
   344      4.997808  21 C  s               174     -4.920268  11 C  s         
   198      4.316193  12 H  s                 3      4.192497   1 H  s         
   149     -3.751031   9 C  pz              106     -3.388963   7 N  s         

 Vector   76  Occ=0.000000D+00  E= 8.817520D-02
              MO Center=  2.2D+00,  1.4D+00, -3.8D-01, r^2= 3.3D+01
   Bfn.  Coefficient  Atom+Function         Bfn.  Coefficient  Atom+Function  
  ----- ------------  ---------------      ----- ------------  ---------------
   334      8.777927  20 H  s               402      7.202986  24 H  s         
   420     -6.845872  26 H  s               226     -5.221306  15 C  s         
   319     -4.888094  19 C  pz              378     -4.285865  23 C  s         
   140     -4.225181   9 C  s               464      3.897628  29 C  s         
    13      3.673102   2 C  s               317     -3.481639  19 C  px        

 Vector   77  Occ=0.000000D+00  E= 9.412670D-02
              MO Center=  1.3D+00,  9.2D-01, -9.9D-01, r^2= 3.7D+01
   Bfn.  Coefficient  Atom+Function         Bfn.  Coefficient  Atom+Function  
  ----- ------------  ---------------      ----- ------------  ---------------
   402      7.343750  24 H  s               174      6.838302  11 C  s         
   411     -5.674566  25 H  s               368      5.406958  22 H  s         
   334     -5.236976  20 H  s               198     -5.201533  12 H  s         
   234      5.074043  15 C  py              378     -4.762749  23 C  s         
   276     -4.079841  17 N  s               207      3.819750  13 H  s         

 Vector   78  Occ=0.000000D+00  E= 9.870159D-02
              MO Center= -9.1D-01, -1.9D+00, -5.2D-01, r^2= 2.9D+01
   Bfn.  Coefficient  Atom+Function         Bfn.  Coefficient  Atom+Function  
  ----- ------------  ---------------      ----- ------------  ---------------
    56     12.995074   5 C  s               300    -12.267815  18 H  s         
   276     -7.941300  17 N  s               164      5.229232  10 H  s         
   378     -5.198340  23 C  s               538     -5.004639  32 H  s         
   344      4.947106  21 C  s               130      4.047321   8 H  s         
   464      3.928081  29 C  s                64      3.752875   5 C  py        

 Vector   79  Occ=0.000000D+00  E= 1.110612D-01
              MO Center= -7.9D-01, -3.1D-01,  7.3D-01, r^2= 3.4D+01
   Bfn.  Coefficient  Atom+Function         Bfn.  Coefficient  Atom+Function  
  ----- ------------  ---------------      ----- ------------  ---------------
   538    -11.652950  32 H  s               300     11.153226  18 H  s         
   344     -8.654395  21 C  s               402     -8.117043  24 H  s         
   378      6.218217  23 C  s               464      5.664760  29 C  s         
   106     -5.223819   7 N  s                56      4.762696   5 C  s         
   226      4.049466  15 C  s               352      4.043733  21 C  py        

 Vector   80  Occ=0.000000D+00  E= 1.194060D-01
              MO Center= -4.8D-01,  1.4D-01, -4.7D-01, r^2= 3.4D+01
   Bfn.  Coefficient  Atom+Function         Bfn.  Coefficient  Atom+Function  
  ----- ------------  ---------------      ----- ------------  ---------------
   344     28.512382  21 C  s               464    -22.718198  29 C  s         
    56    -12.022171   5 C  s               319     10.864592  19 C  pz        
    13      9.364453   2 C  s               310      8.223565  19 C  s         
   300     -8.087752  18 H  s               318     -7.497512  19 C  py        
   514      6.430459  31 N  s               378     -6.151918  23 C  s         

 Vector   81  Occ=0.000000D+00  E= 1.223872D-01
              MO Center=  1.0D+00, -4.6D-01, -4.8D-01, r^2= 3.1D+01
   Bfn.  Coefficient  Atom+Function         Bfn.  Coefficient  Atom+Function  
  ----- ------------  ---------------      ----- ------------  ---------------
   464     21.264921  29 C  s               174     14.829181  11 C  s         
   140     -9.935776   9 C  s               147     -8.425980   9 C  px        
   300     -8.305136  18 H  s               319     -7.224899  19 C  pz        
   284     -6.964510  17 N  py              226     -6.902819  15 C  s         
   344     -6.661839  21 C  s               473     -4.693157  29 C  pz        

 Vector   82  Occ=0.000000D+00  E= 1.277258D-01
              MO Center= -3.6D-01, -1.7D+00, -1.1D+00, r^2= 3.2D+01
   Bfn.  Coefficient  Atom+Function         Bfn.  Coefficient  Atom+Function  
  ----- ------------  ---------------      ----- ------------  ---------------
   344     19.302200  21 C  s               378    -11.752698  23 C  s         
   310     11.622173  19 C  s               234    -11.532463  15 C  py        
   106    -10.013272   7 N  s               318     -8.668581  19 C  py        
   226      8.397223  15 C  s               276     -7.341021  17 N  s         
   148     -7.218632   9 C  py               13     -6.891728   2 C  s         

 Vector   83  Occ=0.000000D+00  E= 1.343879D-01
              MO Center=  4.2D-01, -8.8D-01,  1.0D-01, r^2= 3.4D+01
   Bfn.  Coefficient  Atom+Function         Bfn.  Coefficient  Atom+Function  
  ----- ------------  ---------------      ----- ------------  ---------------
   226     19.818226  15 C  s                13    -17.936076   2 C  s         
    56     15.949388   5 C  s               140     13.270191   9 C  s         
   344    -12.817198  21 C  s               174    -12.221605  11 C  s         
    63    -11.141824   5 C  px              378      6.640264  23 C  s         
   284      6.577491  17 N  py              234     -6.430965  15 C  py        

 Vector   84  Occ=0.000000D+00  E= 1.391674D-01
              MO Center= -1.0D+00, -2.8D-01, -2.6D-01, r^2= 3.1D+01
   Bfn.  Coefficient  Atom+Function         Bfn.  Coefficient  Atom+Function  
  ----- ------------  ---------------      ----- ------------  ---------------
    56     13.003230   5 C  s               106    -12.956038   7 N  s         
    63      9.643562   5 C  px              300     -7.076137  18 H  s         
   471      6.377360  29 C  px              319     -5.771102  19 C  pz        
   514      5.242619  31 N  s               226      5.212362  15 C  s         
   147      4.813875   9 C  px              378     -4.475682  23 C  s         

 Vector   85  Occ=0.000000D+00  E= 1.413235D-01
              MO Center= -5.5D-01,  1.0D+00,  1.3D-01, r^2= 3.1D+01
   Bfn.  Coefficient  Atom+Function         Bfn.  Coefficient  Atom+Function  
  ----- ------------  ---------------      ----- ------------  ---------------
   464     14.193886  29 C  s               318     -8.658714  19 C  py        
   514     -7.919869  31 N  s               378     -7.750531  23 C  s         
   226     -7.540547  15 C  s               284     -6.947269  17 N  py        
   351      6.795170  21 C  px              140     -6.435459   9 C  s         
   334      5.998736  20 H  s               473     -5.858691  29 C  pz        

 Vector   86  Occ=0.000000D+00  E= 1.458212D-01
              MO Center=  1.4D-01, -6.7D-01, -4.1D-01, r^2= 3.3D+01
   Bfn.  Coefficient  Atom+Function         Bfn.  Coefficient  Atom+Function  
  ----- ------------  ---------------      ----- ------------  ---------------
   378     15.389554  23 C  s                13     10.625345   2 C  s         
   319     10.346551  19 C  pz               63     10.291338   5 C  px        
   276     10.070284  17 N  s               464     -7.729074  29 C  s         
   353      7.498369  21 C  pz              233      7.054188  15 C  px        
   471     -6.583078  29 C  px              234     -5.779242  15 C  py        

 Vector   87  Occ=0.000000D+00  E= 1.473162D-01
              MO Center=  1.0D-01, -3.9D-01, -1.1D+00, r^2= 3.0D+01
   Bfn.  Coefficient  Atom+Function         Bfn.  Coefficient  Atom+Function  
  ----- ------------  ---------------      ----- ------------  ---------------
   344     14.719907  21 C  s               464    -12.457430  29 C  s         
    56     -8.444399   5 C  s               514      7.785306  31 N  s         
   378     -7.449755  23 C  s               318     -7.381225  19 C  py        
   351      7.380034  21 C  px              472      7.108293  29 C  py        
   147      6.151905   9 C  px              276     -6.177955  17 N  s         

 Vector   88  Occ=0.000000D+00  E= 1.502799D-01
              MO Center= -2.8D-01, -1.6D+00, -3.9D-01, r^2= 2.5D+01
   Bfn.  Coefficient  Atom+Function         Bfn.  Coefficient  Atom+Function  
  ----- ------------  ---------------      ----- ------------  ---------------
   464     11.671900  29 C  s               300      7.741765  18 H  s         
   378     -5.646980  23 C  s               226     -5.053142  15 C  s         
   319     -4.939383  19 C  pz              140     -4.761301   9 C  s         
   174      4.299502  11 C  s                65      3.751612   5 C  pz        
   106      3.546376   7 N  s               164     -3.454405  10 H  s         

 Vector   89  Occ=0.000000D+00  E= 1.526567D-01
              MO Center=  1.3D-01, -9.3D-01,  6.7D-01, r^2= 2.9D+01
   Bfn.  Coefficient  Atom+Function         Bfn.  Coefficient  Atom+Function  
  ----- ------------  ---------------      ----- ------------  ---------------
   226     11.454283  15 C  s               318     10.699149  19 C  py        
   344    -10.636555  21 C  s               234     10.137214  15 C  py        
   378      7.890180  23 C  s               140      7.702977   9 C  s         
   310     -5.682248  19 C  s               233     -5.603502  15 C  px        
[...]
   Bfn.  Coefficient  Atom+Function         Bfn.  Coefficient  Atom+Function  
  ----- ------------  ---------------      ----- ------------  ---------------
    56     12.106086   5 C  s               174    -11.022925  11 C  s         
   106     -8.141925   7 N  s               319      7.085340  19 C  pz        
   173     -6.790217  11 C  s               215      6.263412  14 H  s         
   353     -5.876700  21 C  pz              226      5.784259  15 C  s         
   276     -5.610337  17 N  s               317      5.004457  19 C  px        

 Vector  156  Occ=0.000000D+00  E= 4.303152D-01
              MO Center=  3.2D-01, -9.3D-02, -1.9D-01, r^2= 2.0D+01
   Bfn.  Coefficient  Atom+Function         Bfn.  Coefficient  Atom+Function  
  ----- ------------  ---------------      ----- ------------  ---------------
   285      9.948235  17 N  pz              234      7.201819  15 C  py        
   149      6.750306   9 C  pz              317     -6.764334  19 C  px        
   206      5.529353  13 H  s               319     -5.135085  19 C  pz        
   173     -5.084919  11 C  s               284     -5.006670  17 N  py        
   352     -4.620703  21 C  py              309      4.322239  19 C  s         

 Vector  157  Occ=0.000000D+00  E= 4.381407D-01
              MO Center= -1.8D-01, -3.7D-01, -3.0D-01, r^2= 2.2D+01
   Bfn.  Coefficient  Atom+Function         Bfn.  Coefficient  Atom+Function  
  ----- ------------  ---------------      ----- ------------  ---------------
    56     16.975935   5 C  s               276    -10.898229  17 N  s         
   300     -8.244314  18 H  s               234      6.315997  15 C  py        
   318     -6.043659  19 C  py              106     -5.708567   7 N  s         
   464      5.600498  29 C  s               309     -5.501416  19 C  s         
   235     -5.469743  15 C  pz              378     -5.394724  23 C  s         

 Vector  158  Occ=0.000000D+00  E= 4.414384D-01
              MO Center=  9.0D-03, -3.7D-01, -1.6D-01, r^2= 1.9D+01
   Bfn.  Coefficient  Atom+Function         Bfn.  Coefficient  Atom+Function  
  ----- ------------  ---------------      ----- ------------  ---------------
   226     21.896002  15 C  s               140     17.860744   9 C  s         
    13    -17.111530   2 C  s               344    -16.727843  21 C  s         
   284     14.798694  17 N  py               63    -12.330444   5 C  px        
   285    -11.719656  17 N  pz              318     10.241193  19 C  py        
   234      9.118315  15 C  py              310     -8.791854  19 C  s         

 Vector  159  Occ=0.000000D+00  E= 4.433703D-01
              MO Center= -6.5D-01, -8.7D-02, -8.0D-01, r^2= 2.0D+01
   Bfn.  Coefficient  Atom+Function         Bfn.  Coefficient  Atom+Function  
  ----- ------------  ---------------      ----- ------------  ---------------
    13     19.187460   2 C  s                56    -17.047528   5 C  s         
   276     13.046409  17 N  s               464    -12.229671  29 C  s         
   140     -9.956286   9 C  s               226     -9.412406  15 C  s         
   174      9.261518  11 C  s                12      8.354539   2 C  s         
   514      8.129009  31 N  s                 2     -7.955794   1 H  s         

 Vector  160  Occ=0.000000D+00  E= 4.471199D-01
              MO Center=  5.3D-02, -8.1D-01, -7.1D-01, r^2= 2.1D+01
   Bfn.  Coefficient  Atom+Function         Bfn.  Coefficient  Atom+Function  
  ----- ------------  ---------------      ----- ------------  ---------------
   234     18.144616  15 C  py               56     17.227046   5 C  s         
   147     11.033098   9 C  px              344    -10.974640  21 C  s         
   317    -10.286275  19 C  px              113      9.269918   7 N  px        
   310     -9.107403  19 C  s               226      6.728270  15 C  s         
    36      6.666368   3 H  s               514     -6.683437  31 N  s         

 Vector  161  Occ=0.000000D+00  E= 4.536202D-01
              MO Center=  2.0D-01, -8.9D-01, -4.7D-01, r^2= 1.9D+01
   Bfn.  Coefficient  Atom+Function         Bfn.  Coefficient  Atom+Function  
  ----- ------------  ---------------      ----- ------------  ---------------
   464     19.521801  29 C  s               344    -17.044069  21 C  s         
   514    -14.671492  31 N  s               226    -12.725630  15 C  s         
   113     11.493971   7 N  px              276     10.345313  17 N  s         
   140     -9.123877   9 C  s                56      8.899710   5 C  s         
   106      8.143968   7 N  s                13      6.092077   2 C  s         

 Vector  162  Occ=0.000000D+00  E= 4.575920D-01
              MO Center=  4.1D-02, -1.1D-01, -5.4D-01, r^2= 1.8D+01
   Bfn.  Coefficient  Atom+Function         Bfn.  Coefficient  Atom+Function  
  ----- ------------  ---------------      ----- ------------  ---------------
   344     14.616225  21 C  s               464    -12.371115  29 C  s         
   514      7.861182  31 N  s               106     -7.458569   7 N  s         
   378     -7.053545  23 C  s               276     -6.866244  17 N  s         
   318     -6.851764  19 C  py                2     -5.474856   1 H  s         
   149     -5.500450   9 C  pz              284      5.407083  17 N  py        

 Vector  163  Occ=0.000000D+00  E= 4.616482D-01
              MO Center=  7.5D-02,  2.8D-01,  3.1D-01, r^2= 2.1D+01
   Bfn.  Coefficient  Atom+Function         Bfn.  Coefficient  Atom+Function  
  ----- ------------  ---------------      ----- ------------  ---------------
   464     23.912632  29 C  s               174     17.737732  11 C  s         
   514    -15.057654  31 N  s               226    -13.450325  15 C  s         
   140     -9.617311   9 C  s               284     -9.507026  17 N  py        
   276     -9.323112  17 N  s               319     -8.391112  19 C  pz        
   234      8.268293  15 C  py              377      7.994828  23 C  s         

 Vector  164  Occ=0.000000D+00  E= 4.663781D-01
              MO Center=  5.7D-01, -1.5D-01, -2.2D-01, r^2= 2.1D+01
   Bfn.  Coefficient  Atom+Function         Bfn.  Coefficient  Atom+Function  
  ----- ------------  ---------------      ----- ------------  ---------------
   174     22.665073  11 C  s                56    -21.567193   5 C  s         
    13     20.511561   2 C  s               378     19.233572  23 C  s         
   226    -13.545815  15 C  s               377      9.768183  23 C  s         
   206     -8.621709  13 H  s               300     -8.303259  18 H  s         
   464     -7.830225  29 C  s               410     -7.725199  25 H  s         

 Vector  165  Occ=0.000000D+00  E= 4.681261D-01
              MO Center=  9.8D-02, -3.7D-01, -4.0D-01, r^2= 2.0D+01
   Bfn.  Coefficient  Atom+Function         Bfn.  Coefficient  Atom+Function  
  ----- ------------  ---------------      ----- ------------  ---------------
   464     36.065376  29 C  s               174     18.283184  11 C  s         
   378    -17.987686  23 C  s               319    -14.745908  19 C  pz        
   140    -13.973074   9 C  s               226    -11.200008  15 C  s         
    13     -9.318119   2 C  s               284     -8.477375  17 N  py        
   318     -8.255201  19 C  py              514     -8.248578  31 N  s         

 Vector  166  Occ=0.000000D+00  E= 4.716458D-01
              MO Center=  5.4D-01,  1.2D-01, -2.2D-01, r^2= 1.9D+01
   Bfn.  Coefficient  Atom+Function         Bfn.  Coefficient  Atom+Function  
  ----- ------------  ---------------      ----- ------------  ---------------
   276     17.492116  17 N  s               226    -15.162875  15 C  s         
    56    -13.525152   5 C  s               234     13.062959  15 C  py        
   140    -11.376021   9 C  s               106     10.719729   7 N  s         
    13      9.767881   2 C  s               197      9.496990  12 H  s         
   300      8.551368  18 H  s               163      7.169770  10 H  s         

 Vector  167  Occ=0.000000D+00  E= 4.776542D-01
              MO Center=  1.4D-01, -3.5D-01, -4.0D-01, r^2= 1.9D+01
   Bfn.  Coefficient  Atom+Function         Bfn.  Coefficient  Atom+Function  
  ----- ------------  ---------------      ----- ------------  ---------------
   174     23.596532  11 C  s                13     20.768103   2 C  s         
    56    -19.321382   5 C  s               378    -18.429436  23 C  s         
   234     18.242089  15 C  py              344     14.645223  21 C  s         
   226    -11.992346  15 C  s               106     10.851811   7 N  s         
   149     10.368190   9 C  pz              173      9.297514  11 C  s         

 Vector  168  Occ=0.000000D+00  E= 4.794496D-01
              MO Center=  6.3D-01, -6.9D-01, -2.7D-01, r^2= 1.9D+01
   Bfn.  Coefficient  Atom+Function         Bfn.  Coefficient  Atom+Function  
  ----- ------------  ---------------      ----- ------------  ---------------
   234     15.435548  15 C  py              226    -11.919847  15 C  s         
    13     11.682165   2 C  s               106     10.545743   7 N  s         
   149      9.391103   9 C  pz              174      8.834136  11 C  s         
   310     -8.593182  19 C  s                56     -8.386699   5 C  s         
   284     -7.093994  17 N  py              464     -6.931260  29 C  s         

 Vector  169  Occ=0.000000D+00  E= 4.815557D-01
              MO Center=  5.8D-01, -4.9D-01, -4.1D-01, r^2= 2.0D+01
   Bfn.  Coefficient  Atom+Function         Bfn.  Coefficient  Atom+Function  
  ----- ------------  ---------------      ----- ------------  ---------------
   464     22.269994  29 C  s                13    -12.478044   2 C  s         
   344    -10.109937  21 C  s               318     -9.761257  19 C  py        
   319     -9.675191  19 C  pz              113     -9.199898   7 N  px        
   234     -9.128887  15 C  py              140     -8.130080   9 C  s         
   235      7.899593  15 C  pz              148     -7.765372   9 C  py        

 Vector  170  Occ=0.000000D+00  E= 4.946220D-01
              MO Center=  2.1D-01, -1.9D-01, -1.1D-01, r^2= 1.9D+01
   Bfn.  Coefficient  Atom+Function         Bfn.  Coefficient  Atom+Function  
  ----- ------------  ---------------      ----- ------------  ---------------
   464     21.944951  29 C  s               344    -12.385519  21 C  s         
    12     -9.213263   2 C  s               300     -7.404891  18 H  s         
   319     -7.232203  19 C  pz              233      7.074304  15 C  px        
   173      6.887115  11 C  s                56      6.510561   5 C  s         
   234     -6.537291  15 C  py              113      5.483751   7 N  px        

 Vector  171  Occ=0.000000D+00  E= 4.978094D-01
              MO Center=  1.6D-01, -8.9D-01, -5.8D-01, r^2= 1.8D+01
   Bfn.  Coefficient  Atom+Function         Bfn.  Coefficient  Atom+Function  
  ----- ------------  ---------------      ----- ------------  ---------------
   344     16.216216  21 C  s               234     -8.632658  15 C  py        
   378     -8.584558  23 C  s               173     -8.000807  11 C  s         
    12      7.241627   2 C  s               310      7.183195  19 C  s         
   285      7.040725  17 N  pz              283      6.895063  17 N  px        
   464     -6.675343  29 C  s               197      6.246427  12 H  s         

 Vector  172  Occ=0.000000D+00  E= 5.011997D-01
              MO Center=  1.6D-01, -1.3D-01, -2.9D-01, r^2= 1.6D+01
   Bfn.  Coefficient  Atom+Function         Bfn.  Coefficient  Atom+Function  
  ----- ------------  ---------------      ----- ------------  ---------------
   378     18.726745  23 C  s               464    -16.004707  29 C  s         
   344    -15.685026  21 C  s               276     15.220340  17 N  s         
   174    -10.905136  11 C  s               226     10.356125  15 C  s         
   300      8.248070  18 H  s               310     -6.623430  19 C  s         
   353      6.175284  21 C  pz              319      5.941048  19 C  pz        


 center of mass
 --------------
 x =  -0.01436680 y =   0.05842526 z =   0.08929853

 moments of inertia (a.u.)
 ------------------
        4837.955657088549           0.000000000001          -0.000000000000
           0.000000000001        2775.813952459141          -0.000000000000
          -0.000000000000          -0.000000000000        5157.686228767871

  Mulliken analysis of the total density
  --------------------------------------

    Atom       Charge   Shell Charges
 -----------   ------   -------------------------------------------------------
    1 H    1     0.84   0.76  0.10  0.02  0.03 -0.07
    2 C    6     6.44   2.01  0.66  0.32  0.20  2.07  1.03 -0.02  0.06  0.12
    3 H    1     0.81   0.76  0.08  0.01  0.03 -0.07
    4 H    1     0.95   0.76  0.21  0.01  0.03 -0.06
    5 C    6     5.11   2.01  0.68  0.10 -0.05  1.90  0.37 -0.10  0.24 -0.02
    6 O    8     8.80   2.01  0.82  0.99  0.17  2.80  1.85  0.16  0.02 -0.01
    7 N    7     7.47   2.01  0.72  0.80 -0.19  2.45  1.44  0.16  0.05  0.03
    8 H    1     0.96   0.77  0.21 -0.03  0.05 -0.04
    9 C    6     6.44   2.01  0.66  0.13  0.05  1.99  1.32 -0.01  0.14  0.15
   10 H    1     1.14   0.78  0.28  0.02  0.03  0.03
   11 C    6     5.72   2.01  0.66  0.25  0.14  2.04  0.59 -0.04  0.07 -0.00
   12 H    1     0.94   0.77  0.19  0.03  0.03 -0.08
   13 H    1     0.94   0.76  0.23 -0.01  0.03 -0.07
   14 H    1     0.98   0.77  0.25  0.01  0.03 -0.08
   15 C    6     4.63   2.01  0.68  0.03 -0.03  1.89  0.10  0.01  0.24 -0.29
   16 O    8     8.87   2.01  0.82  1.05  0.21  2.79  1.85  0.15  0.01 -0.00
   17 N    7     7.56   2.01  0.72  0.79 -0.10  2.45  1.45  0.16  0.05  0.03
   18 H    1     0.86   0.76  0.24 -0.11  0.05 -0.08
   19 C    6     6.19   2.01  0.67 -0.05 -0.00  2.00  1.26  0.15  0.13  0.02
   20 H    1     1.03   0.77  0.21 -0.01  0.03  0.03
   21 C    6     5.78   2.01  0.67  0.09 -0.12  1.95  0.87 -0.04  0.16  0.18
   22 H    1     1.16   0.79  0.38 -0.00  0.03 -0.03
   23 C    6     5.51   2.01  0.66 -0.03  0.21  2.05  0.60 -0.00  0.07 -0.06
   24 H    1     0.94   0.78  0.16  0.02  0.03 -0.04
   25 H    1     1.02   0.77  0.27  0.01  0.03 -0.07
   26 H    1     0.93   0.77  0.20  0.01  0.03 -0.07
   27 O    8     8.74   2.01  0.80  0.98  0.06  2.83  1.93  0.14  0.01 -0.02
   28 H    1     0.85   0.73  0.02 -0.01  0.08  0.02
   29 C    6     4.46   2.01  0.68  0.06 -0.07  1.89 -0.21 -0.02  0.24 -0.11
   30 O    8     8.87   2.01  0.82  1.04  0.20  2.79  1.85  0.15  0.01 -0.00
   31 N    7     7.18   2.01  0.72  0.83 -0.21  2.46  1.23  0.12  0.04 -0.01
   32 H    1     0.86   0.73  0.23 -0.02  0.06 -0.13
   33 H    1     1.02   0.76  0.24 -0.01  0.05 -0.03

       Multipole analysis of the density wrt the origin
       ------------------------------------------------

     L   x y z        total         open         nuclear
     -   - - -        -----         ----         -------
     0   0 0 0      0.000000      0.000000    124.000000

     1   1 0 0     -0.386844      0.000000     -0.000000
     1   0 1 0     -2.500222      0.000000     -0.000000
     1   0 0 1     -2.117139      0.000000     -0.000000

     2   2 0 0    -72.120677      0.000000    882.466426
     2   1 1 0      0.544355      0.000000      6.127770
     2   1 0 1     -3.677876      0.000000    -11.624557
     2   0 2 0    -69.256596      0.000000   1996.234802
     2   0 1 1     -0.553739      0.000000     -6.869900
     2   0 0 2    -75.900978      0.000000    694.075546


 Task  times  cpu:     4525.3s     wall:     4673.4s


                                NWChem Input Module
                                -------------------


 Summary of allocated global arrays
-----------------------------------
  No active global arrays


MA_summarize_allocated_blocks: starting scan ...
MA_summarize_allocated_blocks: scan completed: 0 heap blocks, 0 stack blocks
MA usage statistics:

	allocation statistics:
					      heap	     stack
					      ----	     -----
	current number of blocks	         0	         0
	maximum number of blocks	        16	        14
	current total bytes		         0	         0
	maximum total bytes		    116904	  26223288
	maximum total K-bytes		       117	     26224
	maximum total M-bytes		         1	        27


                                     CITATION
                                     --------
                Please cite the following reference when publishing
                           results obtained with NWChem:

          E. Apra, E. J. Bylaska, W. A. de Jong, N. Govind, K. Kowalski,
       T. P. Straatsma, M. Valiev, H. J. J. van Dam, Y. Alexeev, J. Anchell,
       V. Anisimov, F. W. Aquino, R. Atta-Fynn, J. Autschbach, N. P. Bauman,
     J. C. Becca, D. E. Bernholdt, K. Bhaskaran-Nair, S. Bogatko, P. Borowski,
         J. Boschen, J. Brabec, A. Bruner, E. Cauet, Y. Chen, G. N. Chuev,
      C. J. Cramer, J. Daily, M. J. O. Deegan, T. H. Dunning Jr., M. Dupuis,
   K. G. Dyall, G. I. Fann, S. A. Fischer, A. Fonari, H. Fruchtl, L. Gagliardi,
      J. Garza, N. Gawande, S. Ghosh, K. Glaesemann, A. W. Gotz, J. Hammond,
       V. Helms, E. D. Hermes, K. Hirao, S. Hirata, M. Jacquelin, L. Jensen,
   B. G. Johnson, H. Jonsson, R. A. Kendall, M. Klemm, R. Kobayashi, V. Konkov,
      S. Krishnamoorthy, M. Krishnan, Z. Lin, R. D. Lins, R. J. Littlefield,
      A. J. Logsdail, K. Lopata, W. Ma, A. V. Marenich, J. Martin del Campo,
   D. Mejia-Rodriguez, J. E. Moore, J. M. Mullin, T. Nakajima, D. R. Nascimento,
    J. A. Nichols, P. J. Nichols, J. Nieplocha, A. Otero-de-la-Roza, B. Palmer,
    A. Panyala, T. Pirojsirikul, B. Peng, R. Peverati, J. Pittner, L. Pollack,
   R. M. Richard, P. Sadayappan, G. C. Schatz, W. A. Shelton, D. W. Silverstein,
   D. M. A. Smith, T. A. Soares, D. Song, M. Swart, H. L. Taylor, G. S. Thomas,
            V. Tipparaju, D. G. Truhlar, K. Tsemekhman, T. Van Voorhis,
      A. Vazquez-Mayagoitia, P. Verma, O. Villa, A. Vishnu, K. D. Vogiatzis,
        D. Wang, J. H. Weare, M. J. Williamson, T. L. Windus, K. Wolinski,
        A. T. Wong, Q. Wu, C. Yang, Q. Yu, M. Zacharias, Z. Zhang, Y. Zhao,
                                and R. J. Harrison
                        "NWChem: Past, present, and future
                         J. Chem. Phys. 152, 184102 (2020)
                               doi:10.1063/5.0004997

                                      AUTHORS
                                      -------
  E. Apra, E. J. Bylaska, N. Govind, K. Kowalski, M. Valiev, D. Mejia-Rodriguez,
       A. Kunitsa, N. P. Bauman, A. Panyala, W. A. de Jong, T. P. Straatsma,
   H. J. J. van Dam, D. Wang, T. L. Windus, J. Hammond, J. Autschbach, A. Woods,
    K. Bhaskaran-Nair, J. Brabec, K. Lopata, S. A. Fischer, S. Krishnamoorthy,
     M. Jacquelin, W. Ma, M. Klemm, O. Villa, Y. Chen, V. Anisimov, F. Aquino,
     S. Hirata, M. T. Hackler, E. Hermes, L. Jensen, J. E. Moore, J. C. Becca,
      V. Konjkov, T. Risthaus, M. Malagoli, A. Marenich, A. Otero-de-la-Roza,
        J. Mullin, P. Nichols, R. Peverati, J. Pittner, Y. Zhao, P.-D. Fan,
        A. Fonari, M. J. Williamson, R. J. Harrison, J. R. Rehr, M. Dupuis,
     D. Silverstein, D. M. A. Smith, J. Nieplocha, V. Tipparaju, M. Krishnan,
     B. E. Van Kuiken, A. Vazquez-Mayagoitia, M. Swart, Q. Wu, T. Van Voorhis,
     A. A. Auer, M. Nooijen, L. D. Crosby, E. Brown, G. Cisneros, G. I. Fann,
   H. Fruchtl, J. Garza, K. Hirao, R. A. Kendall, J. A. Nichols, K. Tsemekhman,
    K. Wolinski, J. Anchell, D. E. Bernholdt, P. Borowski, T. Clark, D. Clerc,
   H. Dachsel, M. J. O. Deegan, K. Dyall, D. Elwood, E. Glendening, M. Gutowski,
   A. C. Hess, J. Jaffe, B. G. Johnson, J. Ju, R. Kobayashi, R. Kutteh, Z. Lin,
   R. Littlefield, X. Long, B. Meng, T. Nakajima, S. Niu, L. Pollack, M. Rosing,
   K. Glaesemann, G. Sandrone, M. Stave, H. Taylor, G. Thomas, J. H. van Lenthe,
                               A. T. Wong, Z. Zhang.

 Total times  cpu:     4525.3s     wall:     4673.9s
