export TMOUT=5400
export TMPDIR=/tmp
export PTMPDIR=/tmp/ptmp
 argument  1 = ALA_THR_2.nw
                                         
                                         


             Northwest Computational Chemistry Package (NWChem) 7.2.0
             --------------------------------------------------------


                    Environmental Molecular Sciences Laboratory
                       Pacific Northwest National Laboratory
                                Richland, WA 99352

                              Copyright (c) 1994-2022
                       Pacific Northwest National Laboratory
                            Battelle Memorial Institute

             NWChem is an open-source computational chemistry package
                        distributed under the terms of the
                      Educational Community License (ECL) 2.0
             A copy of the license is included with this distribution
                              in the LICENSE.TXT file

                                  ACKNOWLEDGMENT
                                  --------------

            This software and its documentation were developed at the
            EMSL at Pacific Northwest National Laboratory, a multiprogram
            national laboratory, operated for the U.S. Department of Energy
            by Battelle under Contract Number DE-AC05-76RL01830. Support
            for this work was provided by the Department of Energy Office
            of Biological and Environmental Research, Office of Basic
            Energy Sciences, and the Office of Advanced Scientific Computing.


           Job information
           ---------------

    hostname        = nova18-41
    program         = /opt/rit/el9/20230413/app/linux-rhel9-x86_64_v3/gcc-11.2.1/nwchem-7.2.0-oxtctbuhfuzyfaoziquq6bki22grib3g/bin/nwchem
    date            = Mon Jun 30 12:05:10 2025

    compiled        = Wed_May_17_23:46:39_2023
    source          = /tmp/root/spack-stage/spack-stage-nwchem-7.2.0-oxtctbuhfuzyfaoziquq6bki22grib3g/spack-src
    nwchem branch   = 7.2.0
    nwchem revision = d0d141fd
    ga revision     = 5.8.0
    use scalapack   = T
    input           = ALA_THR_2.nw
    prefix          = ALA_THR_2.
    data base       = ./ALA_THR_2.db
    status          = startup
    nproc           =        8
    time left       =     -1s



           Memory information
           ------------------

    heap     =   26214396 doubles =    200.0 Mbytes
    stack    =   26214401 doubles =    200.0 Mbytes
    global   =   52428800 doubles =    400.0 Mbytes (distinct from heap & stack)
    total    =  104857597 doubles =    800.0 Mbytes
    verify   = yes
    hardfail = no 


           Directory information
           ---------------------

  0 permanent = .
  0 scratch   = .




                                NWChem Input Module
                                -------------------



 Scaling coordinates for geometry "geometry" by  1.889725989
 (inverse scale =  0.529177249)

 C1  symmetry detected

          ------
          auto-z
          ------
  no constraints, skipping    0.0000000000000000     
  no constraints, skipping    0.0000000000000000     


                             Geometry "geometry" -> ""
                             -------------------------

 Output coordinates in angstroms (scale by  1.889725989 to convert to a.u.)

  No.       Tag          Charge          X              Y              Z
 ---- ---------------- ---------- -------------- -------------- --------------
    1 H                    1.0000    -2.43030570    -3.27251011    -1.43618141
    2 C                    6.0000    -2.37231484    -3.46735450    -0.36626612
    3 H                    1.0000    -2.16670123    -4.52085372    -0.19086823
    4 H                    1.0000    -3.31809954    -3.19806220     0.10334858
    5 C                    6.0000    -1.26867176    -2.63305161     0.23874349
    6 O                    8.0000    -1.52391361    -1.80758151     1.10587653
    7 N                    7.0000    -0.03858107    -2.83090158    -0.23118340
    8 H                    1.0000     0.07984360    -3.51964050    -0.95594495
    9 C                    6.0000     1.16990068    -2.14688829     0.24640605
   10 H                    1.0000     1.13120300    -2.12658944     1.33618880
   11 C                    6.0000     2.38527248    -2.99568188    -0.15813916
   12 H                    1.0000     2.28084140    -4.00888524     0.23272922
   13 H                    1.0000     2.47345529    -3.03167004    -1.24459516
   14 H                    1.0000     3.29445668    -2.55482253     0.25357811
   15 C                    6.0000     1.27346582    -0.66863361    -0.21444465
   16 O                    8.0000     2.28969403    -0.24392309    -0.75875081
   17 N                    7.0000     0.21451633     0.11947616    -0.01360151
   18 H                    1.0000    -0.57263052    -0.30050765     0.47270132
   19 C                    6.0000     0.05445263     1.51201880    -0.48318603
   20 H                    1.0000     0.42689497     1.54482331    -1.50751242
   21 C                    6.0000    -1.44492362     1.86349506    -0.56126484
   22 H                    1.0000    -1.93952714     1.11160816    -1.17720188
   23 C                    6.0000    -2.15766011     1.90913776     0.79229692
   24 H                    1.0000    -2.10708851     0.93481712     1.27626365
   25 H                    1.0000    -1.70692651     2.65781104     1.44324972
   26 H                    1.0000    -3.20687974     2.16367261     0.63576193
   27 O                    8.0000    -1.62467520     3.11115607    -1.17839156
   28 H                    1.0000    -1.11101027     3.74572797    -0.65529229
   29 C                    6.0000     0.88960016     2.56050278     0.28741825
   30 O                    8.0000     0.48860325     3.70939026     0.44872861
   31 N                    7.0000     2.05777262     2.20324837     0.80105954
   32 H                    1.0000     2.42812010     1.28664617     0.59228174
   33 H                    1.0000     2.59600264     2.89207358     1.29848519

      Atomic Mass 
      ----------- 

      H                  1.007825
      C                 12.000000
      O                 15.994910
      N                 14.003070


 Effective nuclear repulsion energy (a.u.)    1211.8132834890

            Nuclear Dipole moment (a.u.) 
            ----------------------------
        X                 Y               Z
 ---------------- ---------------- ----------------
     0.0000000000    -0.0000000000     0.0000000000



                                Z-matrix (autoz)
                                -------- 

 Units are Angstrom for bonds and degrees for angles

      Type          Name      I     J     K     L     M      Value
      ----------- --------  ----- ----- ----- ----- ----- ----------
    1 Stretch                  1     2                       1.08906
    2 Stretch                  2     3                       1.08761
    3 Stretch                  2     4                       1.08975
    4 Stretch                  2     5                       1.51001
    5 Stretch                  5     6                       1.22412
    6 Stretch                  5     7                       1.33158
    7 Stretch                  7     8                       1.00681
    8 Stretch                  7     9                       1.46847
    9 Stretch                  9    10                       1.09066
   10 Stretch                  9    11                       1.53663
   11 Stretch                  9    15                       1.55188
   12 Stretch                 11    12                       1.09099
   13 Stretch                 11    13                       1.09062
   14 Stretch                 11    14                       1.09109
   15 Stretch                 15    16                       1.22856
   16 Stretch                 15    17                       1.33523
   17 Stretch                 17    18                       1.01611
   18 Stretch                 17    19                       1.47828
   19 Stretch                 19    20                       1.09043
   20 Stretch                 19    21                       1.54200
   21 Stretch                 19    29                       1.54616
   22 Stretch                 21    22                       1.09057
   23 Stretch                 21    23                       1.53043
   24 Stretch                 21    27                       1.40350
   25 Stretch                 23    24                       1.08907
   26 Stretch                 23    25                       1.08968
   27 Stretch                 23    26                       1.09094
   28 Stretch                 27    28                       0.96962
   29 Stretch                 29    30                       1.22750
   30 Stretch                 29    31                       1.32517
   31 Stretch                 31    32                       1.01040
   32 Stretch                 31    33                       1.00579
   33 Bend                     1     2     3               109.98659
   34 Bend                     1     2     4               109.44712
   35 Bend                     1     2     5               109.49299
   36 Bend                     2     5     6               120.26537
   37 Bend                     2     5     7               116.85197
   38 Bend                     3     2     4               109.50809
   39 Bend                     3     2     5               109.41428
   40 Bend                     4     2     5               108.97352
   41 Bend                     5     7     8               117.66800
   42 Bend                     5     7     9               125.18693
   43 Bend                     6     5     7               122.87484
   44 Bend                     7     9    10               107.72441
   45 Bend                     7     9    11               107.93774
   46 Bend                     7     9    15               113.70576
   47 Bend                     8     7     9               117.12714
   48 Bend                     9    11    12               110.05722
   49 Bend                     9    11    13               110.14762
   50 Bend                     9    11    14               109.66601
   51 Bend                     9    15    16               121.06854
   52 Bend                     9    15    17               117.68722
   53 Bend                    10     9    11               107.54170
   54 Bend                    10     9    15               106.34156
   55 Bend                    11     9    15               113.27857
   56 Bend                    12    11    13               109.51140
   57 Bend                    12    11    14               108.65176
   58 Bend                    13    11    14               108.77545
   59 Bend                    15    17    18               116.25741
   60 Bend                    15    17    19               126.44877
   61 Bend                    16    15    17               121.23918
   62 Bend                    17    19    20               106.84339
   63 Bend                    17    19    21               109.63851
   64 Bend                    17    19    29               114.96009
   65 Bend                    18    17    19               117.22614
   66 Bend                    19    21    22               108.20635
   67 Bend                    19    21    23               114.51005
   68 Bend                    19    21    27               110.45211
   69 Bend                    19    29    30               121.58306
   70 Bend                    19    29    31               119.11170
   71 Bend                    20    19    21               106.12253
   72 Bend                    20    19    29               105.26569
   73 Bend                    21    19    29               113.32089
   74 Bend                    21    23    24               110.16480
   75 Bend                    21    23    25               110.86677
   76 Bend                    21    23    26               109.14468
   77 Bend                    21    27    28               106.06461
   78 Bend                    22    21    23               107.99075
   79 Bend                    22    21    27               107.84642
   80 Bend                    23    21    27               107.62183
   81 Bend                    24    23    25               109.26814
   82 Bend                    24    23    26               108.49097
   83 Bend                    25    23    26               108.85848
   84 Bend                    29    31    32               119.18195
   85 Bend                    29    31    33               118.60677
   86 Bend                    30    29    31               119.29868
   87 Bend                    32    31    33               121.82537
   88 Torsion                  1     2     5     6         119.10147
   89 Torsion                  1     2     5     7         -59.91044
   90 Torsion                  2     5     7     8           0.00103
   91 Torsion                  2     5     7     9        -178.40950
   92 Torsion                  3     2     5     6        -120.28814
   93 Torsion                  3     2     5     7          60.69994
   94 Torsion                  4     2     5     6          -0.57974
   95 Torsion                  4     2     5     7        -179.59165
   96 Torsion                  5     7     9    10          43.61646
   97 Torsion                  5     7     9    11         159.46859
   98 Torsion                  5     7     9    15         -73.96067
   99 Torsion                  6     5     7     8        -178.98283
  100 Torsion                  6     5     7     9           2.60665
  101 Torsion                  7     9    11    12         -55.94403
  102 Torsion                  7     9    11    13          64.89892
  103 Torsion                  7     9    11    14        -175.41843
  104 Torsion                  7     9    15    16        -128.68276
  105 Torsion                  7     9    15    17          50.50892
  106 Torsion                  8     7     9    10        -134.80182
  107 Torsion                  8     7     9    11         -18.94970
  108 Torsion                  8     7     9    15         107.62105
  109 Torsion                  9    15    17    18           2.91847
  110 Torsion                  9    15    17    19        -173.98977
  111 Torsion                 10     9    11    12          60.02763
  112 Torsion                 10     9    11    13        -179.12942
  113 Torsion                 10     9    11    14         -59.44677
  114 Torsion                 10     9    15    16         112.94250
  115 Torsion                 10     9    15    17         -67.86582
  116 Torsion                 11     9    15    16          -4.96648
  117 Torsion                 11     9    15    17         174.22520
  118 Torsion                 12    11     9    15         177.23607
  119 Torsion                 13    11     9    15         -61.92098
  120 Torsion                 14    11     9    15          57.76167
  121 Torsion                 15    17    19    20          42.61477
  122 Torsion                 15    17    19    21         157.20276
  123 Torsion                 15    17    19    29         -73.76717
  124 Torsion                 16    15    17    18        -177.89130
  125 Torsion                 16    15    17    19           5.20045
  126 Torsion                 17    19    21    22         -53.99446
  127 Torsion                 17    19    21    23          66.48983
  128 Torsion                 17    19    21    27        -171.83302
  129 Torsion                 17    19    29    30        -147.90619
  130 Torsion                 17    19    29    31          31.15530
  131 Torsion                 18    17    19    20        -134.26700
  132 Torsion                 18    17    19    21         -19.67901
  133 Torsion                 18    17    19    29         109.35106
  134 Torsion                 19    21    23    24         -60.96193
  135 Torsion                 19    21    23    25          60.11578
  136 Torsion                 19    21    23    26        -179.98296
  137 Torsion                 19    21    27    28         -57.03249
  138 Torsion                 19    29    31    32           6.81829
  139 Torsion                 19    29    31    33         179.81987
  140 Torsion                 20    19    21    22          61.05476
  141 Torsion                 20    19    21    23        -178.46095
  142 Torsion                 20    19    21    27         -56.78380
  143 Torsion                 20    19    29    30          94.81421
  144 Torsion                 20    19    29    31         -86.12429
  145 Torsion                 21    19    29    30         -20.72421
  146 Torsion                 21    19    29    31         158.33729
  147 Torsion                 22    21    19    29         176.08349
  148 Torsion                 22    21    23    24          59.64177
  149 Torsion                 22    21    23    25        -179.28051
  150 Torsion                 22    21    23    26         -59.37925
  151 Torsion                 22    21    27    28        -175.09182
  152 Torsion                 23    21    19    29         -63.43222
  153 Torsion                 23    21    27    28          68.63071
  154 Torsion                 24    23    21    27         175.82453
  155 Torsion                 25    23    21    27         -63.09775
  156 Torsion                 26    23    21    27          56.80351
  157 Torsion                 27    21    19    29          58.24492
  158 Torsion                 30    29    31    32        -174.09847
  159 Torsion                 30    29    31    33          -1.09689


            XYZ format geometry
            -------------------
    33
 geometry
 H                    -2.43030570    -3.27251011    -1.43618141
 C                    -2.37231484    -3.46735450    -0.36626612
 H                    -2.16670123    -4.52085372    -0.19086823
 H                    -3.31809954    -3.19806220     0.10334858
 C                    -1.26867176    -2.63305161     0.23874349
 O                    -1.52391361    -1.80758151     1.10587653
 N                    -0.03858107    -2.83090158    -0.23118340
 H                     0.07984360    -3.51964050    -0.95594495
 C                     1.16990068    -2.14688829     0.24640605
 H                     1.13120300    -2.12658944     1.33618880
 C                     2.38527248    -2.99568188    -0.15813916
 H                     2.28084140    -4.00888524     0.23272922
 H                     2.47345529    -3.03167004    -1.24459516
 H                     3.29445668    -2.55482253     0.25357811
 C                     1.27346582    -0.66863361    -0.21444465
 O                     2.28969403    -0.24392309    -0.75875081
 N                     0.21451633     0.11947616    -0.01360151
 H                    -0.57263052    -0.30050765     0.47270132
 C                     0.05445263     1.51201880    -0.48318603
 H                     0.42689497     1.54482331    -1.50751242
 C                    -1.44492362     1.86349506    -0.56126484
 H                    -1.93952714     1.11160816    -1.17720188
 C                    -2.15766011     1.90913776     0.79229692
 H                    -2.10708851     0.93481712     1.27626365
 H                    -1.70692651     2.65781104     1.44324972
 H                    -3.20687974     2.16367261     0.63576193
 O                    -1.62467520     3.11115607    -1.17839156
 H                    -1.11101027     3.74572797    -0.65529229
 C                     0.88960016     2.56050278     0.28741825
 O                     0.48860325     3.70939026     0.44872861
 N                     2.05777262     2.20324837     0.80105954
 H                     2.42812010     1.28664617     0.59228174
 H                     2.59600264     2.89207358     1.29848519

 ==============================================================================
                                internuclear distances
 ------------------------------------------------------------------------------
       center one      |      center two      | atomic units |  angstroms
 ------------------------------------------------------------------------------
    2 C                |   1 H                |     2.05802  |     1.08906
    3 H                |   2 C                |     2.05529  |     1.08761
    4 H                |   2 C                |     2.05934  |     1.08975
    5 C                |   2 C                |     2.85350  |     1.51001
    6 O                |   5 C                |     2.31325  |     1.22412
    7 N                |   5 C                |     2.51632  |     1.33158
    8 H                |   7 N                |     1.90259  |     1.00681
    9 C                |   7 N                |     2.77500  |     1.46847
   10 H                |   9 C                |     2.06105  |     1.09066
   11 C                |   9 C                |     2.90381  |     1.53663
   12 H                |  11 C                |     2.06168  |     1.09099
   13 H                |  11 C                |     2.06098  |     1.09062
   14 H                |  11 C                |     2.06187  |     1.09109
   15 C                |   9 C                |     2.93264  |     1.55188
   16 O                |  15 C                |     2.32165  |     1.22856
   17 N                |  15 C                |     2.52321  |     1.33523
   18 H                |  17 N                |     1.92017  |     1.01611
   19 C                |  17 N                |     2.79354  |     1.47828
   20 H                |  19 C                |     2.06061  |     1.09043
   21 C                |  19 C                |     2.91396  |     1.54200
   22 H                |  21 C                |     2.06088  |     1.09057
   23 C                |  21 C                |     2.89209  |     1.53043
   24 H                |  23 C                |     2.05805  |     1.08907
   25 H                |  23 C                |     2.05920  |     1.08968
   26 H                |  23 C                |     2.06158  |     1.09094
   27 O                |  21 C                |     2.65223  |     1.40350
   28 H                |  27 O                |     1.83232  |     0.96962
   29 C                |  19 C                |     2.92183  |     1.54616
   30 O                |  29 C                |     2.31964  |     1.22750
   31 N                |  29 C                |     2.50421  |     1.32517
   32 H                |  31 N                |     1.90938  |     1.01040
   33 H                |  31 N                |     1.90066  |     1.00579
 ------------------------------------------------------------------------------
                         number of included internuclear distances:         32
 ==============================================================================



 ==============================================================================
                                 internuclear angles
 ------------------------------------------------------------------------------
        center 1       |       center 2       |       center 3       |  degrees
 ------------------------------------------------------------------------------
    1 H                |   2 C                |   3 H                |   109.99
    1 H                |   2 C                |   4 H                |   109.45
    1 H                |   2 C                |   5 C                |   109.49
    3 H                |   2 C                |   4 H                |   109.51
    3 H                |   2 C                |   5 C                |   109.41
    4 H                |   2 C                |   5 C                |   108.97
    2 C                |   5 C                |   6 O                |   120.27
    2 C                |   5 C                |   7 N                |   116.85
    6 O                |   5 C                |   7 N                |   122.87
    5 C                |   7 N                |   8 H                |   117.67
    5 C                |   7 N                |   9 C                |   125.19
    8 H                |   7 N                |   9 C                |   117.13
    7 N                |   9 C                |  10 H                |   107.72
    7 N                |   9 C                |  11 C                |   107.94
    7 N                |   9 C                |  15 C                |   113.71
   10 H                |   9 C                |  11 C                |   107.54
   10 H                |   9 C                |  15 C                |   106.34
   11 C                |   9 C                |  15 C                |   113.28
    9 C                |  11 C                |  12 H                |   110.06
    9 C                |  11 C                |  13 H                |   110.15
    9 C                |  11 C                |  14 H                |   109.67
   12 H                |  11 C                |  13 H                |   109.51
   12 H                |  11 C                |  14 H                |   108.65
   13 H                |  11 C                |  14 H                |   108.78
    9 C                |  15 C                |  16 O                |   121.07
    9 C                |  15 C                |  17 N                |   117.69
   16 O                |  15 C                |  17 N                |   121.24
   15 C                |  17 N                |  18 H                |   116.26
   15 C                |  17 N                |  19 C                |   126.45
   18 H                |  17 N                |  19 C                |   117.23
   17 N                |  19 C                |  20 H                |   106.84
   17 N                |  19 C                |  21 C                |   109.64
   17 N                |  19 C                |  29 C                |   114.96
   20 H                |  19 C                |  21 C                |   106.12
   20 H                |  19 C                |  29 C                |   105.27
   21 C                |  19 C                |  29 C                |   113.32
   19 C                |  21 C                |  22 H                |   108.21
   19 C                |  21 C                |  23 C                |   114.51
   19 C                |  21 C                |  27 O                |   110.45
   22 H                |  21 C                |  23 C                |   107.99
   22 H                |  21 C                |  27 O                |   107.85
   23 C                |  21 C                |  27 O                |   107.62
   21 C                |  23 C                |  24 H                |   110.16
   21 C                |  23 C                |  25 H                |   110.87
   21 C                |  23 C                |  26 H                |   109.14
   24 H                |  23 C                |  25 H                |   109.27
   24 H                |  23 C                |  26 H                |   108.49
   25 H                |  23 C                |  26 H                |   108.86
   21 C                |  27 O                |  28 H                |   106.06
   19 C                |  29 C                |  30 O                |   121.58
   19 C                |  29 C                |  31 N                |   119.11
   30 O                |  29 C                |  31 N                |   119.30
   29 C                |  31 N                |  32 H                |   119.18
   29 C                |  31 N                |  33 H                |   118.61
   32 H                |  31 N                |  33 H                |   121.83
 ------------------------------------------------------------------------------
                            number of included internuclear angles:         55
 ==============================================================================



  library name resolved from: environment
  library file name is: </opt/rit/el9/20230413/app/linux-rhel9-x86_64_v3/gcc-11.2.1/nwchem-7.2.0-oxtctbuhfuzyfaoziquq6bki22grib3g/share/nwchem/libraries/>
  


 Summary of "ao basis" -> "" (cartesian)
 ------------------------------------------------------------------------------
       Tag                 Description            Shells   Functions and Types
 ---------------- ------------------------------  ------  ---------------------
 *                        aug-cc-pvdz                 on all atoms 


                      Basis "ao basis" -> "ao basis" (cartesian)
                      -----
  H (Hydrogen)
  ------------
            Exponent  Coefficients 
       -------------- ---------------------------------------------------------
  1 S  1.30100000E+01  0.019685
  1 S  1.96200000E+00  0.137977
  1 S  4.44600000E-01  0.478148

  2 S  1.22000000E-01  1.000000

  3 S  2.97400000E-02  1.000000

  4 P  7.27000000E-01  1.000000

  5 P  1.41000000E-01  1.000000

  C (Carbon)
  ----------
            Exponent  Coefficients 
       -------------- ---------------------------------------------------------
  1 S  6.66500000E+03  0.000692
  1 S  1.00000000E+03  0.005329
  1 S  2.28000000E+02  0.027077
  1 S  6.47100000E+01  0.101718
  1 S  2.10600000E+01  0.274740
  1 S  7.49500000E+00  0.448564
  1 S  2.79700000E+00  0.285074
  1 S  5.21500000E-01  0.015204

  2 S  6.66500000E+03 -0.000146
  2 S  1.00000000E+03 -0.001154
  2 S  2.28000000E+02 -0.005725
  2 S  6.47100000E+01 -0.023312
  2 S  2.10600000E+01 -0.063955
  2 S  7.49500000E+00 -0.149981
  2 S  2.79700000E+00 -0.127262
  2 S  5.21500000E-01  0.544529

  3 S  1.59600000E-01  1.000000

  4 S  4.69000000E-02  1.000000

  5 P  9.43900000E+00  0.038109
  5 P  2.00200000E+00  0.209480
  5 P  5.45600000E-01  0.508557

  6 P  1.51700000E-01  1.000000

  7 P  4.04100000E-02  1.000000

  8 D  5.50000000E-01  1.000000

  9 D  1.51000000E-01  1.000000

  O (Oxygen)
  ----------
            Exponent  Coefficients 
       -------------- ---------------------------------------------------------
  1 S  1.17200000E+04  0.000710
  1 S  1.75900000E+03  0.005470
  1 S  4.00800000E+02  0.027837
  1 S  1.13700000E+02  0.104800
  1 S  3.70300000E+01  0.283062
  1 S  1.32700000E+01  0.448719
  1 S  5.02500000E+00  0.270952
  1 S  1.01300000E+00  0.015458

  2 S  1.17200000E+04 -0.000160
  2 S  1.75900000E+03 -0.001263
  2 S  4.00800000E+02 -0.006267
  2 S  1.13700000E+02 -0.025716
  2 S  3.70300000E+01 -0.070924
  2 S  1.32700000E+01 -0.165411
  2 S  5.02500000E+00 -0.116955
  2 S  1.01300000E+00  0.557368

  3 S  3.02300000E-01  1.000000

  4 S  7.89600000E-02  1.000000

  5 P  1.77000000E+01  0.043018
  5 P  3.85400000E+00  0.228913
  5 P  1.04600000E+00  0.508728

  6 P  2.75300000E-01  1.000000

  7 P  6.85600000E-02  1.000000

  8 D  1.18500000E+00  1.000000

  9 D  3.32000000E-01  1.000000

  N (Nitrogen)
  ------------
            Exponent  Coefficients 
       -------------- ---------------------------------------------------------
  1 S  9.04600000E+03  0.000700
  1 S  1.35700000E+03  0.005389
  1 S  3.09300000E+02  0.027406
  1 S  8.77300000E+01  0.103207
  1 S  2.85600000E+01  0.278723
  1 S  1.02100000E+01  0.448540
  1 S  3.83800000E+00  0.278238
  1 S  7.46600000E-01  0.015440

  2 S  9.04600000E+03 -0.000153
  2 S  1.35700000E+03 -0.001208
  2 S  3.09300000E+02 -0.005992
  2 S  8.77300000E+01 -0.024544
  2 S  2.85600000E+01 -0.067459
  2 S  1.02100000E+01 -0.158078
  2 S  3.83800000E+00 -0.121831
  2 S  7.46600000E-01  0.549003

  3 S  2.24800000E-01  1.000000

  4 S  6.12400000E-02  1.000000

  5 P  1.35500000E+01  0.039919
  5 P  2.91700000E+00  0.217169
  5 P  7.97300000E-01  0.510319

  6 P  2.18500000E-01  1.000000

  7 P  5.61100000E-02  1.000000

  8 D  8.17000000E-01  1.000000

  9 D  2.30000000E-01  1.000000



 Summary of "ao basis" -> "ao basis" (cartesian)
 ------------------------------------------------------------------------------
       Tag                 Description            Shells   Functions and Types
 ---------------- ------------------------------  ------  ---------------------
 H                        aug-cc-pvdz                5        9   3s2p
 C                        aug-cc-pvdz                9       25   4s3p2d
 O                        aug-cc-pvdz                9       25   4s3p2d
 N                        aug-cc-pvdz                9       25   4s3p2d


                                 NWChem SCF Module
                                 -----------------



  ao basis        = "ao basis"
  functions       =   553
  atoms           =    33
  closed shells   =    62
  open shells     =     0
  charge          =   0.00
  wavefunction    = RHF 
  input vectors   = atomic
  output vectors  = ./ALA_THR_2.movecs
  use symmetry    = F
  symmetry adapt  = F


 Summary of "ao basis" -> "ao basis" (cartesian)
 ------------------------------------------------------------------------------
       Tag                 Description            Shells   Functions and Types
 ---------------- ------------------------------  ------  ---------------------
 H                        aug-cc-pvdz                5        9   3s2p
 C                        aug-cc-pvdz                9       25   4s3p2d
 O                        aug-cc-pvdz                9       25   4s3p2d
 N                        aug-cc-pvdz                9       25   4s3p2d



 Forming initial guess at       1.3s


 !! The overlap matrix has   4 vectors deemed linearly dependent with
    eigenvalues:
 3.09D-06 3.98D-06 6.90D-06 9.35D-06


      Superposition of Atomic Density Guess
      -------------------------------------

 Sum of atomic energies:        -809.46727949

      Non-variational initial energy
      ------------------------------

 Total energy =    -819.683076
 1-e energy   =   -3508.895479
 2-e energy   =    1477.399119
 HOMO         =      -0.308138
 LUMO         =       0.006098


 Starting SCF solution at     228.6s



 ----------------------------------------------
         Quadratically convergent ROHF

 Convergence threshold     :          1.000E-04
 Maximum no. of iterations :           30
 Final Fock-matrix accuracy:          1.000E-10
 ----------------------------------------------


              iter       energy          gnorm     gmax       time
             ----- ------------------- --------- --------- --------
                 1     -813.3177949127  2.45D+00  1.34D-01    473.7
                 2     -813.6332769177  8.14D-01  4.62D-02    963.9
                 3     -813.6911418360  6.35D-02  4.87D-03   1695.4
                 4     -813.6917336218  3.95D-03  4.17D-04   2652.0
                 5     -813.6917367215  8.69D-06  6.32D-07   4373.5


       Final RHF  results 
       ------------------ 

         Total SCF energy =   -813.691736721508
      One-electron energy =  -3520.323246034396
      Two-electron energy =   1494.818225823855
 Nuclear repulsion energy =   1211.813283489033

        Time for solution =   4152.6s


             Final eigenvalues
             -----------------

              1      
    1  -20.5545
    2  -20.5461
    3  -20.5417
    4  -20.5272
    5  -15.6284
    6  -15.6031
    7  -15.5863
    8  -11.3841
    9  -11.3755
   10  -11.3610
   11  -11.3199
   12  -11.2971
   13  -11.2903
   14  -11.2645
   15  -11.2558
   16  -11.2109
   17   -1.4213
   18   -1.4066
   19   -1.3924
   20   -1.3518
   21   -1.2761
   22   -1.2497
   23   -1.2141
   24   -1.0828
   25   -1.0431
   26   -1.0142
   27   -0.9693
   28   -0.9059
   29   -0.8463
   30   -0.8366
   31   -0.8063
   32   -0.7886
   33   -0.7462
   34   -0.7361
   35   -0.7116
   36   -0.6962
   37   -0.6872
   38   -0.6687
   39   -0.6490
   40   -0.6382
   41   -0.6249
   42   -0.6131
   43   -0.6089
   44   -0.5962
   45   -0.5905
   46   -0.5880
   47   -0.5721
   48   -0.5607
   49   -0.5590
   50   -0.5501
   51   -0.5438
   52   -0.5318
   53   -0.5210
   54   -0.5128
   55   -0.4870
   56   -0.4655
   57   -0.4506
   58   -0.4385
   59   -0.4259
   60   -0.4162
   61   -0.4087
   62   -0.3936
   63    0.0186
   64    0.0329
   65    0.0385
   66    0.0392
   67    0.0496
   68    0.0550
   69    0.0569
   70    0.0622
   71    0.0637
   72    0.0700

                       ROHF Final Molecular Orbital Analysis
                       -------------------------------------

 Vector   17  Occ=2.000000D+00  E=-1.421307D+00
              MO Center= -1.0D+00, -2.0D+00,  5.9D-01, r^2= 2.0D+00
   Bfn.  Coefficient  Atom+Function         Bfn.  Coefficient  Atom+Function  
  ----- ------------  ---------------      ----- ------------  ---------------
    80      0.337892   6 O  s                79      0.332435   6 O  s         
    54      0.232986   5 C  s                12      0.193124   2 C  s         

 Vector   18  Occ=2.000000D+00  E=-1.406596D+00
              MO Center=  1.4D+00, -2.4D-01, -3.5D-01, r^2= 3.1D+00
   Bfn.  Coefficient  Atom+Function         Bfn.  Coefficient  Atom+Function  
  ----- ------------  ---------------      ----- ------------  ---------------
   250      0.341757  16 O  s               249      0.325769  16 O  s         
   224      0.220767  15 C  s         

 Vector   19  Occ=2.000000D+00  E=-1.392418D+00
              MO Center=  6.8D-01,  2.9D+00,  2.6D-01, r^2= 2.3D+00
   Bfn.  Coefficient  Atom+Function         Bfn.  Coefficient  Atom+Function  
  ----- ------------  ---------------      ----- ------------  ---------------
   488      0.363208  30 O  s               487      0.332380  30 O  s         
   462      0.225595  29 C  s         

 Vector   20  Occ=2.000000D+00  E=-1.351769D+00
              MO Center= -1.3D+00,  3.0D+00, -8.9D-01, r^2= 1.2D+00
   Bfn.  Coefficient  Atom+Function         Bfn.  Coefficient  Atom+Function  
  ----- ------------  ---------------      ----- ------------  ---------------
   429      0.450666  27 O  s               428      0.388615  27 O  s         
   343     -0.241107  21 C  s               452      0.179258  28 H  s         
   314     -0.154914  19 C  px        

 Vector   21  Occ=2.000000D+00  E=-1.276149D+00
              MO Center= -1.6D-01, -2.5D+00, -4.6D-03, r^2= 1.9D+00
   Bfn.  Coefficient  Atom+Function         Bfn.  Coefficient  Atom+Function  
  ----- ------------  ---------------      ----- ------------  ---------------
   105      0.400283   7 N  s               104      0.339975   7 N  s         
    80     -0.216424   6 O  s                79     -0.181443   6 O  s         
   128      0.156480   8 H  s         

 Vector   22  Occ=2.000000D+00  E=-1.249666D+00
              MO Center=  5.2D-01,  2.3D-01, -1.1D-01, r^2= 2.4D+00
   Bfn.  Coefficient  Atom+Function         Bfn.  Coefficient  Atom+Function  
  ----- ------------  ---------------      ----- ------------  ---------------
   275      0.381092  17 N  s               274      0.332307  17 N  s         
   250     -0.203204  16 O  s               309     -0.195391  19 C  s         
   227     -0.170038  15 C  px              249     -0.161457  16 O  s         

 Vector   23  Occ=2.000000D+00  E=-1.214134D+00
              MO Center=  1.6D+00,  2.2D+00,  6.2D-01, r^2= 1.9D+00
   Bfn.  Coefficient  Atom+Function         Bfn.  Coefficient  Atom+Function  
  ----- ------------  ---------------      ----- ------------  ---------------
   513      0.427043  31 N  s               512      0.364019  31 N  s         
   488     -0.198349  30 O  s               275     -0.172875  17 N  s         
   487     -0.167439  30 O  s               536      0.162256  32 H  s         
   465      0.159585  29 C  px              545      0.155973  33 H  s         

 Vector   24  Occ=2.000000D+00  E=-1.082800D+00
              MO Center=  4.5D-01, -2.2D+00, -3.7D-02, r^2= 5.3D+00
   Bfn.  Coefficient  Atom+Function         Bfn.  Coefficient  Atom+Function  
  ----- ------------  ---------------      ----- ------------  ---------------
   138      0.240290   9 C  s               172      0.187327  11 C  s         
   144      0.175783   9 C  px              225      0.153492  15 C  s         

 Vector   25  Occ=2.000000D+00  E=-1.043091D+00
              MO Center= -5.6D-01,  9.8D-01, -2.0D-01, r^2= 5.8D+00
   Bfn.  Coefficient  Atom+Function         Bfn.  Coefficient  Atom+Function  
  ----- ------------  ---------------      ----- ------------  ---------------
   308      0.219635  19 C  s               342      0.198937  21 C  s         
   139     -0.165705   9 C  s               376      0.157588  23 C  s         
   343      0.150765  21 C  s         

 Vector   26  Occ=2.000000D+00  E=-1.014165D+00
              MO Center= -1.0D+00, -3.1D+00, -2.2D-01, r^2= 5.1D+00
   Bfn.  Coefficient  Atom+Function         Bfn.  Coefficient  Atom+Function  
  ----- ------------  ---------------      ----- ------------  ---------------
    11      0.311180   2 C  s               144      0.177060   9 C  px        
   172      0.172714  11 C  s                55      0.159501   5 C  s         

 Vector   27  Occ=2.000000D+00  E=-9.692559D-01
              MO Center= -9.3D-01,  1.4D+00,  2.2D-01, r^2= 5.1D+00
   Bfn.  Coefficient  Atom+Function         Bfn.  Coefficient  Atom+Function  
  ----- ------------  ---------------      ----- ------------  ---------------
   376     -0.277794  23 C  s               348      0.267901  21 C  px        
   350     -0.198865  21 C  pz              308      0.190313  19 C  s         
   309     -0.170242  19 C  s               314      0.169862  19 C  px        

 Vector   28  Occ=2.000000D+00  E=-9.059247D-01
              MO Center=  1.3D+00, -1.9D+00, -5.5D-02, r^2= 6.1D+00
   Bfn.  Coefficient  Atom+Function         Bfn.  Coefficient  Atom+Function  
  ----- ------------  ---------------      ----- ------------  ---------------
   139      0.309094   9 C  s               145      0.247681   9 C  py        
   172     -0.242794  11 C  s               173     -0.203978  11 C  s         
   138      0.189884   9 C  s               225     -0.179030  15 C  s         
   174     -0.156779  11 C  s         

 Vector   29  Occ=2.000000D+00  E=-8.463194D-01
              MO Center= -3.6D-01,  1.9D+00,  1.0D-01, r^2= 5.2D+00
   Bfn.  Coefficient  Atom+Function         Bfn.  Coefficient  Atom+Function  
  ----- ------------  ---------------      ----- ------------  ---------------
   309      0.523676  19 C  s               342     -0.184787  21 C  s         
   468      0.177062  29 C  px              139      0.175817   9 C  s         
   462      0.172302  29 C  s               376      0.168152  23 C  s         
   316      0.160740  19 C  pz              348     -0.160179  21 C  px        
   515     -0.158483  31 N  px              311      0.156435  19 C  px        

 Vector   30  Occ=2.000000D+00  E=-8.366150D-01
              MO Center= -3.2D-01, -2.3D+00, -1.1D-01, r^2= 4.7D+00
   Bfn.  Coefficient  Atom+Function         Bfn.  Coefficient  Atom+Function  
  ----- ------------  ---------------      ----- ------------  ---------------
   107      0.280227   7 N  px              128      0.228791   8 H  s         
    54     -0.211803   5 C  s               139     -0.187455   9 C  s         
   105      0.184097   7 N  s                60     -0.177725   5 C  px        
    80      0.168745   6 O  s               109     -0.160447   7 N  pz        
    57     -0.154168   5 C  px        

 Vector   31  Occ=2.000000D+00  E=-8.063138D-01
              MO Center=  1.5D-01, -2.0D-01, -1.5D-01, r^2= 6.5D+00
   Bfn.  Coefficient  Atom+Function         Bfn.  Coefficient  Atom+Function  
  ----- ------------  ---------------      ----- ------------  ---------------
   277      0.233277  17 N  px              225      0.202863  15 C  s         
   224      0.176157  15 C  s               250     -0.173941  16 O  s         
   128      0.170019   8 H  s               298     -0.167720  18 H  s         
   377     -0.150605  23 C  s         

 Vector   32  Occ=2.000000D+00  E=-7.886215D-01
              MO Center=  8.8D-01,  1.6D+00,  2.8D-01, r^2= 4.6D+00
   Bfn.  Coefficient  Atom+Function         Bfn.  Coefficient  Atom+Function  
  ----- ------------  ---------------      ----- ------------  ---------------
   515      0.259246  31 N  px              314     -0.213145  19 C  px        
   536      0.194975  32 H  s               298     -0.189464  18 H  s         
   225      0.180238  15 C  s               462     -0.175439  29 C  s         
   277      0.174369  17 N  px              299     -0.172095  18 H  s         
   275     -0.159825  17 N  s               343     -0.154736  21 C  s         

 Vector   33  Occ=2.000000D+00  E=-7.461928D-01
              MO Center=  4.4D-01, -8.5D-01, -1.0D-01, r^2= 6.5D+00
   Bfn.  Coefficient  Atom+Function         Bfn.  Coefficient  Atom+Function  
  ----- ------------  ---------------      ----- ------------  ---------------
   145      0.420204   9 C  py              225     -0.400970  15 C  s         
   139      0.299038   9 C  s               228     -0.211557  15 C  py        
   142      0.187160   9 C  py              109     -0.183385   7 N  pz        
   231      0.175583  15 C  py              253     -0.150114  16 O  py        

 Vector   34  Occ=2.000000D+00  E=-7.361355D-01
              MO Center=  1.2D+00,  1.5D+00,  3.6D-01, r^2= 5.0D+00
   Bfn.  Coefficient  Atom+Function         Bfn.  Coefficient  Atom+Function  
  ----- ------------  ---------------      ----- ------------  ---------------
   516      0.321736  31 N  py              536     -0.265380  32 H  s         
   545      0.219020  33 H  s               315     -0.209348  19 C  py        
   537     -0.187877  32 H  s               546      0.156175  33 H  s         

 Vector   35  Occ=2.000000D+00  E=-7.115625D-01
              MO Center= -5.3D-01, -1.6D+00,  9.0D-02, r^2= 8.5D+00
   Bfn.  Coefficient  Atom+Function         Bfn.  Coefficient  Atom+Function  
  ----- ------------  ---------------      ----- ------------  ---------------
    57      0.210074   5 C  px               55      0.161778   5 C  s         
    83      0.160994   6 O  py               17     -0.150160   2 C  px        

 Vector   36  Occ=2.000000D+00  E=-6.962345D-01
              MO Center= -9.0D-02, -2.0D+00,  4.0D-01, r^2= 4.6D+00
   Bfn.  Coefficient  Atom+Function         Bfn.  Coefficient  Atom+Function  
  ----- ------------  ---------------      ----- ------------  ---------------
    84      0.224988   6 O  pz              143      0.211537   9 C  pz        
    80      0.210049   6 O  s               144      0.203465   9 C  px        
   162      0.185032  10 H  s               108     -0.179698   7 N  py        
    12     -0.166181   2 C  s                83      0.154377   6 O  py        

 Vector   37  Occ=2.000000D+00  E=-6.872254D-01
              MO Center=  4.0D-01,  8.4D-01,  8.7D-02, r^2= 8.7D+00
   Bfn.  Coefficient  Atom+Function         Bfn.  Coefficient  Atom+Function  
  ----- ------------  ---------------      ----- ------------  ---------------
   139      0.228536   9 C  s               315     -0.199833  19 C  py        
   145      0.194394   9 C  py              491      0.182594  30 O  py        
   488      0.181525  30 O  s               545     -0.169634  33 H  s         
   225     -0.166827  15 C  s               465      0.153669  29 C  px        
   312     -0.150480  19 C  py        

 Vector   38  Occ=2.000000D+00  E=-6.686645D-01
              MO Center=  2.1D-01,  7.3D-01, -4.1D-01, r^2= 7.1D+00
   Bfn.  Coefficient  Atom+Function         Bfn.  Coefficient  Atom+Function  
  ----- ------------  ---------------      ----- ------------  ---------------
   343      0.243839  21 C  s               252     -0.202727  16 O  px        
   332     -0.200307  20 H  s               313      0.196751  19 C  pz        
   250     -0.193733  16 O  s               225      0.186151  15 C  s         
   139     -0.179635   9 C  s               348      0.177160  21 C  px        
   227      0.158416  15 C  px        

 Vector   39  Occ=2.000000D+00  E=-6.489573D-01
              MO Center= -1.3D-01,  2.1D+00, -2.7D-01, r^2= 5.8D+00
   Bfn.  Coefficient  Atom+Function         Bfn.  Coefficient  Atom+Function  
  ----- ------------  ---------------      ----- ------------  ---------------
   452      0.210711  28 H  s               465      0.211187  29 C  px        
   432      0.196625  27 O  py              431      0.195202  27 O  px        
   491      0.189992  30 O  py              314     -0.175034  19 C  px        
   515     -0.158622  31 N  px        

 Vector   40  Occ=2.000000D+00  E=-6.382492D-01
              MO Center= -1.4D+00, -2.7D+00, -1.7D-01, r^2= 5.4D+00
   Bfn.  Coefficient  Atom+Function         Bfn.  Coefficient  Atom+Function  
  ----- ------------  ---------------      ----- ------------  ---------------
   139      0.226479   9 C  s                35     -0.223968   3 H  s         
    15      0.220611   2 C  py                1      0.218433   1 H  s         
    16     -0.213447   2 C  pz               59     -0.166005   5 C  pz        

 Vector   41  Occ=2.000000D+00  E=-6.248627D-01
              MO Center=  3.2D-02,  1.2D+00, -1.8D-01, r^2= 8.6D+00
   Bfn.  Coefficient  Atom+Function         Bfn.  Coefficient  Atom+Function  
  ----- ------------  ---------------      ----- ------------  ---------------
   252      0.203603  16 O  px              346      0.193417  21 C  py        
   491      0.172220  30 O  py              432     -0.156079  27 O  py        

 Vector   42  Occ=2.000000D+00  E=-6.130588D-01
              MO Center= -2.9D-01,  1.2D-01, -2.3D-02, r^2= 9.7D+00
   Bfn.  Coefficient  Atom+Function         Bfn.  Coefficient  Atom+Function  
  ----- ------------  ---------------      ----- ------------  ---------------
   491     -0.176797  30 O  py              432      0.168971  27 O  py        
    84      0.163885   6 O  pz        

 Vector   43  Occ=2.000000D+00  E=-6.088728D-01
              MO Center= -3.6D-01, -1.4D+00,  1.5D-02, r^2= 8.7D+00
   Bfn.  Coefficient  Atom+Function         Bfn.  Coefficient  Atom+Function  
  ----- ------------  ---------------      ----- ------------  ---------------
    58      0.188749   5 C  py               59      0.176649   5 C  pz        
   252      0.177205  16 O  px               83     -0.162200   6 O  py        
   309      0.158062  19 C  s                84     -0.155989   6 O  pz        
   145      0.154288   9 C  py              139      0.153442   9 C  s         

 Vector   44  Occ=2.000000D+00  E=-5.962294D-01
              MO Center= -1.0D+00, -1.4D+00, -4.0D-02, r^2= 1.1D+01
   Bfn.  Coefficient  Atom+Function         Bfn.  Coefficient  Atom+Function  
  ----- ------------  ---------------      ----- ------------  ---------------
    44      0.239322   4 H  s                45      0.234293   4 H  s         
    16      0.187373   2 C  pz               14     -0.169438   2 C  px        

 Vector   45  Occ=2.000000D+00  E=-5.904645D-01
              MO Center= -7.8D-01,  1.8D+00,  3.9D-02, r^2= 7.4D+00
   Bfn.  Coefficient  Atom+Function         Bfn.  Coefficient  Atom+Function  
  ----- ------------  ---------------      ----- ------------  ---------------
   314      0.245920  19 C  px              381     -0.211258  23 C  pz        
   343      0.193057  21 C  s               345     -0.191881  21 C  px        
   433      0.183783  27 O  pz              467     -0.177997  29 C  pz        
   463     -0.170834  29 C  s               492     -0.160970  30 O  pz        
   311      0.156441  19 C  px        

 Vector   46  Occ=2.000000D+00  E=-5.880208D-01
              MO Center= -2.3D-02,  3.0D-01,  4.3D-02, r^2= 1.3D+01
   Bfn.  Coefficient  Atom+Function         Bfn.  Coefficient  Atom+Function  
  ----- ------------  ---------------      ----- ------------  ---------------
   466      0.209110  29 C  py              463      0.199584  29 C  s         
   491     -0.198178  30 O  py               44      0.172643   4 H  s         
   215      0.164073  14 H  s               315     -0.164581  19 C  py        

 Vector   47  Occ=2.000000D+00  E=-5.721131D-01
              MO Center=  1.2D+00, -7.5D-01, -2.1D-01, r^2= 9.7D+00
   Bfn.  Coefficient  Atom+Function         Bfn.  Coefficient  Atom+Function  
  ----- ------------  ---------------      ----- ------------  ---------------
   177      0.243809  11 C  pz              205     -0.217168  13 H  s         
   174     -0.190997  11 C  s               225     -0.190983  15 C  s         
   254     -0.183127  16 O  pz              206     -0.159700  13 H  s         
   197      0.158742  12 H  s               215      0.157091  14 H  s         
   490     -0.154846  30 O  px               56      0.153500   5 C  s         

 Vector   48  Occ=2.000000D+00  E=-5.607486D-01
              MO Center=  1.1D+00, -1.5D+00, -3.1D-02, r^2= 8.8D+00
   Bfn.  Coefficient  Atom+Function         Bfn.  Coefficient  Atom+Function  
  ----- ------------  ---------------      ----- ------------  ---------------
   176      0.292958  11 C  py              196     -0.248490  12 H  s         
   141      0.170508   9 C  px              142     -0.162931   9 C  py        
   197     -0.163214  12 H  s               144      0.155234   9 C  px        

 Vector   49  Occ=2.000000D+00  E=-5.589561D-01
              MO Center=  3.8D-01, -1.9D+00, -1.9D-02, r^2= 1.0D+01
   Bfn.  Coefficient  Atom+Function         Bfn.  Coefficient  Atom+Function  
  ----- ------------  ---------------      ----- ------------  ---------------
   215      0.284744  14 H  s               214      0.220803  14 H  s         
   139      0.202257   9 C  s               176      0.161687  11 C  py        
    35      0.158172   3 H  s                14      0.156912   2 C  px        
   108      0.157205   7 N  py              175      0.152370  11 C  px        

 Vector   50  Occ=2.000000D+00  E=-5.501367D-01
              MO Center= -3.3D-01, -2.5D+00,  5.2D-03, r^2= 6.8D+00
   Bfn.  Coefficient  Atom+Function         Bfn.  Coefficient  Atom+Function  
  ----- ------------  ---------------      ----- ------------  ---------------
   175      0.222813  11 C  px                1      0.201722   1 H  s         
    16     -0.192682   2 C  pz               83     -0.190495   6 O  py        
   141     -0.175296   9 C  px              214      0.175418  14 H  s         
    84      0.161662   6 O  pz               36     -0.152232   3 H  s         
    86     -0.151156   6 O  py        

 Vector   51  Occ=2.000000D+00  E=-5.437881D-01
              MO Center= -1.8D-01,  1.2D+00,  1.8D-01, r^2= 9.5D+00
   Bfn.  Coefficient  Atom+Function         Bfn.  Coefficient  Atom+Function  
  ----- ------------  ---------------      ----- ------------  ---------------
   343      0.255406  21 C  s               418     -0.210383  26 H  s         
   379      0.206039  23 C  px              401      0.197194  24 H  s         
   419     -0.179664  26 H  s               276      0.163824  17 N  s         
   197      0.154432  12 H  s               467     -0.152114  29 C  pz        
   492     -0.151176  30 O  pz        

 Vector   52  Occ=2.000000D+00  E=-5.317757D-01
              MO Center=  8.7D-01, -1.3D+00, -4.1D-02, r^2= 8.7D+00
   Bfn.  Coefficient  Atom+Function         Bfn.  Coefficient  Atom+Function  
  ----- ------------  ---------------      ----- ------------  ---------------
   178      0.240700  11 C  px              143      0.238300   9 C  pz        
   162      0.235063  10 H  s               173     -0.232645  11 C  s         
   177     -0.225602  11 C  pz              205      0.226476  13 H  s         
   197     -0.193038  12 H  s               174      0.183731  11 C  s         
   206      0.179527  13 H  s               309     -0.178569  19 C  s         

 Vector   53  Occ=2.000000D+00  E=-5.210190D-01
              MO Center= -9.6D-01,  1.4D+00, -1.2D-01, r^2= 7.7D+00
   Bfn.  Coefficient  Atom+Function         Bfn.  Coefficient  Atom+Function  
  ----- ------------  ---------------      ----- ------------  ---------------
   431      0.266351  27 O  px              379     -0.217316  23 C  px        
   434      0.214662  27 O  px              410     -0.198919  25 H  s         
   409     -0.177671  25 H  s               418      0.165461  26 H  s         
   174      0.162853  11 C  s               432     -0.157345  27 O  py        
   173     -0.152459  11 C  s         

 Vector   54  Occ=2.000000D+00  E=-5.127881D-01
              MO Center= -1.2D+00,  1.9D+00,  2.8D-01, r^2= 4.5D+00
   Bfn.  Coefficient  Atom+Function         Bfn.  Coefficient  Atom+Function  
  ----- ------------  ---------------      ----- ------------  ---------------
   380      0.294137  23 C  py              367      0.242622  22 H  s         
   401     -0.241322  24 H  s               409      0.233624  25 H  s         
   400     -0.219661  24 H  s               384      0.167578  23 C  pz        
   433     -0.163143  27 O  pz              410      0.162196  25 H  s         
   366      0.158349  22 H  s               492     -0.158212  30 O  pz        

 Vector   55  Occ=2.000000D+00  E=-4.870053D-01
              MO Center= -9.5D-01,  2.0D+00, -1.9D-01, r^2= 5.1D+00
   Bfn.  Coefficient  Atom+Function         Bfn.  Coefficient  Atom+Function  
  ----- ------------  ---------------      ----- ------------  ---------------
   419      0.281181  26 H  s               433     -0.196857  27 O  pz        
   311     -0.188461  19 C  px              345      0.185275  21 C  px        
   490      0.185439  30 O  px              418      0.181843  26 H  s         
   366     -0.177765  22 H  s               347      0.167968  21 C  pz        

 Vector   56  Occ=2.000000D+00  E=-4.654540D-01
              MO Center=  2.8D-01, -1.1D+00,  4.4D-04, r^2= 6.3D+00
   Bfn.  Coefficient  Atom+Function         Bfn.  Coefficient  Atom+Function  
  ----- ------------  ---------------      ----- ------------  ---------------
   253      0.338971  16 O  py              256      0.277338  16 O  py        
    82      0.225192   6 O  px               84      0.206562   6 O  pz        
   139      0.197455   9 C  s               109     -0.195650   7 N  pz        
    85      0.179225   6 O  px              112     -0.170408   7 N  pz        
   275     -0.168212  17 N  s               252     -0.166603  16 O  px        

 Vector   57  Occ=2.000000D+00  E=-4.505914D-01
              MO Center= -1.0D+00, -1.7D+00,  5.1D-01, r^2= 4.9D+00
   Bfn.  Coefficient  Atom+Function         Bfn.  Coefficient  Atom+Function  
  ----- ------------  ---------------      ----- ------------  ---------------
    82      0.446111   6 O  px               85      0.366952   6 O  px        
    83      0.211088   6 O  py              105     -0.179672   7 N  s         
   226      0.178539  15 C  s                86      0.168882   6 O  py        
   144     -0.165701   9 C  px              253     -0.157476  16 O  py        
   107      0.155606   7 N  px              225      0.153709  15 C  s         

 Vector   58  Occ=2.000000D+00  E=-4.384632D-01
              MO Center=  3.9D-01,  1.4D+00, -6.5D-02, r^2= 6.4D+00
   Bfn.  Coefficient  Atom+Function         Bfn.  Coefficient  Atom+Function  
  ----- ------------  ---------------      ----- ------------  ---------------
   490      0.311676  30 O  px              343     -0.272794  21 C  s         
   279      0.264097  17 N  pz              493      0.247790  30 O  px        
   254     -0.239053  16 O  pz              282      0.231791  17 N  pz        
   348     -0.223847  21 C  px              257     -0.187693  16 O  pz        
   463      0.177522  29 C  s               367      0.166565  22 H  s         

 Vector   59  Occ=2.000000D+00  E=-4.258858D-01
              MO Center= -1.1D+00,  1.9D+00, -4.2D-01, r^2= 5.8D+00
   Bfn.  Coefficient  Atom+Function         Bfn.  Coefficient  Atom+Function  
  ----- ------------  ---------------      ----- ------------  ---------------
   433      0.321883  27 O  pz              431     -0.266827  27 O  px        
   436      0.259481  27 O  pz              434     -0.231953  27 O  px        
   348      0.229282  21 C  px              381      0.227677  23 C  pz        
   347     -0.200099  21 C  pz              350     -0.156602  21 C  pz        
   333     -0.155341  20 H  s         

 Vector   60  Occ=2.000000D+00  E=-4.162029D-01
              MO Center=  2.8D-01, -7.5D-02, -2.8D-02, r^2= 9.1D+00
   Bfn.  Coefficient  Atom+Function         Bfn.  Coefficient  Atom+Function  
  ----- ------------  ---------------      ----- ------------  ---------------
   253     -0.235694  16 O  py              108      0.217368   7 N  py        
   145     -0.204476   9 C  py              109     -0.201329   7 N  pz        
   111      0.199219   7 N  py              256     -0.188024  16 O  py        
   431     -0.181798  27 O  px              112     -0.180828   7 N  pz        
   348      0.163389  21 C  px              434     -0.155870  27 O  px        

 Vector   61  Occ=2.000000D+00  E=-4.086938D-01
              MO Center=  1.1D+00,  1.8D+00,  4.1D-01, r^2= 6.4D+00
   Bfn.  Coefficient  Atom+Function         Bfn.  Coefficient  Atom+Function  
  ----- ------------  ---------------      ----- ------------  ---------------
   492      0.352925  30 O  pz              517     -0.298491  31 N  pz        
   495      0.280270  30 O  pz              520     -0.255572  31 N  pz        
   515      0.201641  31 N  px              518      0.182546  31 N  px        
   253     -0.177599  16 O  py              343     -0.155468  21 C  s         

 Vector   62  Occ=2.000000D+00  E=-3.935603D-01
              MO Center=  6.3D-01,  1.4D+00, -4.5D-02, r^2= 4.7D+00
   Bfn.  Coefficient  Atom+Function         Bfn.  Coefficient  Atom+Function  
  ----- ------------  ---------------      ----- ------------  ---------------
   279      0.301643  17 N  pz              490     -0.285879  30 O  px        
   282      0.274299  17 N  pz              493     -0.236877  30 O  px        
   254     -0.207383  16 O  pz              463     -0.189924  29 C  s         
   257     -0.165174  16 O  pz              517     -0.158433  31 N  pz        
   367     -0.152008  22 H  s         

 Vector   63  Occ=0.000000D+00  E= 1.861325D-02
              MO Center= -3.3D-01, -5.0D+00, -1.0D+00, r^2= 1.9D+01
   Bfn.  Coefficient  Atom+Function         Bfn.  Coefficient  Atom+Function  
  ----- ------------  ---------------      ----- ------------  ---------------
   234      3.445735  15 C  py              300     -3.349693  18 H  s         
   148      2.423023   9 C  py              226     -2.215002  15 C  s         
   198      1.951823  12 H  s               464     -1.939437  29 C  s         
   233     -1.862718  15 C  px              106      1.753229   7 N  s         
    12     -1.704087   2 C  s                63      1.680431   5 C  px        

 Vector   64  Occ=0.000000D+00  E= 3.290058D-02
              MO Center=  1.3D+00, -2.6D+00,  5.0D-01, r^2= 3.2D+01
   Bfn.  Coefficient  Atom+Function         Bfn.  Coefficient  Atom+Function  
  ----- ------------  ---------------      ----- ------------  ---------------
    63      3.174746   5 C  px              464      2.447068  29 C  s         
   147      2.004241   9 C  px              198     -1.993506  12 H  s         
     3      1.978466   1 H  s               276      1.910002  17 N  s         
    64      1.878895   5 C  py              216     -1.709874  14 H  s         
   164     -1.692438  10 H  s                12     -1.662347   2 C  s         

 Vector   65  Occ=0.000000D+00  E= 3.846456D-02
              MO Center= -8.1D-01, -3.7D+00, -8.2D-01, r^2= 2.9D+01
   Bfn.  Coefficient  Atom+Function         Bfn.  Coefficient  Atom+Function  
  ----- ------------  ---------------      ----- ------------  ---------------
   147      2.770806   9 C  px               63      2.528100   5 C  px        
   207     -2.334965  13 H  s               164      2.156734  10 H  s         
    37      2.136381   3 H  s                46      2.116305   4 H  s         
   130     -1.967751   8 H  s               106     -1.531661   7 N  s         
   149     -1.405747   9 C  pz              317      1.355953  19 C  px        

 Vector   66  Occ=0.000000D+00  E= 3.922701D-02
              MO Center=  6.6D-01, -9.4D-01,  2.9D-01, r^2= 3.9D+01
   Bfn.  Coefficient  Atom+Function         Bfn.  Coefficient  Atom+Function  
  ----- ------------  ---------------      ----- ------------  ---------------
   300      3.065543  18 H  s               198      2.513635  12 H  s         
   106      2.301050   7 N  s               164     -2.062611  10 H  s         
     3     -1.957368   1 H  s               547     -1.887362  33 H  s         
    37      1.874463   3 H  s               318      1.747441  19 C  py        
   471      1.642494  29 C  px              514     -1.611013  31 N  s         

 Vector   67  Occ=0.000000D+00  E= 4.955815D-02
              MO Center=  5.3D-01, -9.1D-01,  6.6D-01, r^2= 4.5D+01
   Bfn.  Coefficient  Atom+Function         Bfn.  Coefficient  Atom+Function  
  ----- ------------  ---------------      ----- ------------  ---------------
   234      3.450732  15 C  py              318      3.119655  19 C  py        
   300     -2.956874  18 H  s               471      2.669839  29 C  px        
    56      2.568322   5 C  s               368      2.522946  22 H  s         
    37     -2.483350   3 H  s               148      2.366836   9 C  py        
   547     -2.335085  33 H  s               464     -2.305052  29 C  s         

 Vector   68  Occ=0.000000D+00  E= 5.501025D-02
              MO Center=  4.9D-01, -2.6D+00,  5.3D-01, r^2= 3.4D+01
   Bfn.  Coefficient  Atom+Function         Bfn.  Coefficient  Atom+Function  
  ----- ------------  ---------------      ----- ------------  ---------------
   164      5.812211  10 H  s               464      3.537699  29 C  s         
    63     -3.378543   5 C  px              149     -3.220439   9 C  pz        
    46     -2.828367   4 H  s               310      2.577513  19 C  s         
    56     -2.563462   5 C  s               207     -2.279860  13 H  s         
   378     -2.203469  23 C  s               148     -2.192001   9 C  py        

 Vector   69  Occ=0.000000D+00  E= 5.689918D-02
              MO Center= -1.6D+00,  4.1D-01,  8.9D-01, r^2= 4.0D+01
   Bfn.  Coefficient  Atom+Function         Bfn.  Coefficient  Atom+Function  
  ----- ------------  ---------------      ----- ------------  ---------------
   226      3.072489  15 C  s               216      3.054080  14 H  s         
   464      2.886765  29 C  s                13     -2.636020   2 C  s         
   420     -2.433858  26 H  s               377      2.138711  23 C  s         
   174     -2.099230  11 C  s               130     -2.063787   8 H  s         
     3      1.891559   1 H  s               148     -1.851172   9 C  py        

 Vector   70  Occ=0.000000D+00  E= 6.218412D-02
              MO Center=  1.5D-01, -4.0D-01, -7.0D-01, r^2= 3.7D+01
   Bfn.  Coefficient  Atom+Function         Bfn.  Coefficient  Atom+Function  
  ----- ------------  ---------------      ----- ------------  ---------------
   174      4.762726  11 C  s               198      4.093129  12 H  s         
   368      3.911767  22 H  s               164     -3.386842  10 H  s         
   353      3.323440  21 C  pz              402     -3.232484  24 H  s         
   378     -2.996329  23 C  s               226     -2.538328  15 C  s         
   334      2.330865  20 H  s               317     -2.296550  19 C  px        

 Vector   71  Occ=0.000000D+00  E= 6.373145D-02
              MO Center=  1.4D-01, -1.2D+00, -1.7D+00, r^2= 3.5D+01
   Bfn.  Coefficient  Atom+Function         Bfn.  Coefficient  Atom+Function  
  ----- ------------  ---------------      ----- ------------  ---------------
   464      5.632697  29 C  s               334      5.089205  20 H  s         
   207      3.805142  13 H  s               378     -3.739731  23 C  s         
   140     -3.142358   9 C  s               318     -3.039553  19 C  py        
     3     -2.913720   1 H  s               198     -2.709194  12 H  s         
   147     -2.633640   9 C  px              310      2.615614  19 C  s         

 Vector   72  Occ=0.000000D+00  E= 7.001892D-02
              MO Center= -5.5D-01, -5.3D-01,  6.4D-01, r^2= 5.0D+01
   Bfn.  Coefficient  Atom+Function         Bfn.  Coefficient  Atom+Function  
  ----- ------------  ---------------      ----- ------------  ---------------
   216     -4.113486  14 H  s               234      4.027984  15 C  py        
    46      3.957839   4 H  s               113      3.906522   7 N  px        
    63      3.803506   5 C  px               13      3.778176   2 C  s         
    56      3.403670   5 C  s                37     -3.377621   3 H  s         
   198      3.372645  12 H  s               147      3.059762   9 C  px        

 Vector   73  Occ=0.000000D+00  E= 7.544665D-02
              MO Center= -8.7D-01,  1.8D-01,  2.1D-01, r^2= 4.1D+01
   Bfn.  Coefficient  Atom+Function         Bfn.  Coefficient  Atom+Function  
  ----- ------------  ---------------      ----- ------------  ---------------
   411      4.307930  25 H  s               130     -3.672009   8 H  s         
   174     -3.610958  11 C  s                 3      3.522115   1 H  s         
   368     -3.201185  22 H  s               420     -3.212618  26 H  s         
   538     -3.172211  32 H  s               334      2.943257  20 H  s         
   514     -2.419855  31 N  s               319      2.328878  19 C  pz        

 Vector   74  Occ=0.000000D+00  E= 8.363775D-02
              MO Center= -1.5D+00,  2.1D+00,  2.0D-01, r^2= 3.6D+01
   Bfn.  Coefficient  Atom+Function         Bfn.  Coefficient  Atom+Function  
  ----- ------------  ---------------      ----- ------------  ---------------
   378      5.318616  23 C  s               174     -4.720419  11 C  s         
   402     -4.501947  24 H  s               454      3.986566  28 H  s         
   164      3.244008  10 H  s               147      2.982003   9 C  px        
   368     -2.859503  22 H  s               420      2.752291  26 H  s         
    46      2.561638   4 H  s               411     -2.528482  25 H  s         

 Vector   75  Occ=0.000000D+00  E= 8.381653D-02
              MO Center=  1.9D-01, -9.1D-01, -1.2D+00, r^2= 3.8D+01
   Bfn.  Coefficient  Atom+Function         Bfn.  Coefficient  Atom+Function  
  ----- ------------  ---------------      ----- ------------  ---------------
   207      5.182249  13 H  s               368      5.096738  22 H  s         
   334     -4.863195  20 H  s               402     -4.545824  24 H  s         
   300      3.786997  18 H  s               174     -3.760504  11 C  s         
   319     -3.569594  19 C  pz              130     -3.337951   8 H  s         
    37      2.883411   3 H  s               344     -2.555443  21 C  s         

 Vector   76  Occ=0.000000D+00  E= 8.952694D-02
              MO Center= -8.4D-01, -2.9D-01, -3.0D-01, r^2= 4.3D+01
   Bfn.  Coefficient  Atom+Function         Bfn.  Coefficient  Atom+Function  
  ----- ------------  ---------------      ----- ------------  ---------------
   300      8.546630  18 H  s               420     -4.906988  26 H  s         
   216      4.609967  14 H  s               174     -4.018199  11 C  s         
   368      3.944294  22 H  s                 3     -3.737730   1 H  s         
   344     -3.717384  21 C  s               130      3.662394   8 H  s         
   207     -3.569350  13 H  s               411      3.116509  25 H  s         

 Vector   77  Occ=0.000000D+00  E= 9.920108D-02
              MO Center=  2.4D-01,  1.7D-01,  1.7D+00, r^2= 3.8D+01
   Bfn.  Coefficient  Atom+Function         Bfn.  Coefficient  Atom+Function  
  ----- ------------  ---------------      ----- ------------  ---------------
   402      8.705114  24 H  s               226      7.655019  15 C  s         
   147     -6.711768   9 C  px               63     -5.928414   5 C  px        
   411     -5.894785  25 H  s               140      5.793550   9 C  s         
   538     -5.401177  32 H  s                13     -5.238840   2 C  s         
   300     -5.252511  18 H  s                56     -3.656962   5 C  s         

 Vector   78  Occ=0.000000D+00  E= 1.006160D-01
              MO Center= -2.8D-01,  6.0D-02,  8.5D-01, r^2= 3.5D+01
   Bfn.  Coefficient  Atom+Function         Bfn.  Coefficient  Atom+Function  
  ----- ------------  ---------------      ----- ------------  ---------------
   402      6.536786  24 H  s               174     -5.883643  11 C  s         
   464     -5.538776  29 C  s               318      4.536610  19 C  py        
   147      4.464296   9 C  px              411     -4.351544  25 H  s         
   538      4.343839  32 H  s               276      3.423538  17 N  s         
   140      3.314510   9 C  s               233     -3.111857  15 C  px        

 Vector   79  Occ=0.000000D+00  E= 1.048211D-01
              MO Center=  4.6D-01, -8.0D-01,  3.9D-02, r^2= 3.6D+01
   Bfn.  Coefficient  Atom+Function         Bfn.  Coefficient  Atom+Function  
  ----- ------------  ---------------      ----- ------------  ---------------
    56      5.546610   5 C  s               300     -5.265108  18 H  s         
   538     -5.263378  32 H  s               174     -4.697596  11 C  s         
   147      4.521267   9 C  px              164      4.514683  10 H  s         
   378      3.424055  23 C  s                64      3.289284   5 C  py        
   334      2.986392  20 H  s               149     -2.923423   9 C  pz        

 Vector   80  Occ=0.000000D+00  E= 1.179123D-01
              MO Center= -1.5D-01, -6.0D-01,  5.0D-01, r^2= 3.4D+01
   Bfn.  Coefficient  Atom+Function         Bfn.  Coefficient  Atom+Function  
  ----- ------------  ---------------      ----- ------------  ---------------
   300     25.024346  18 H  s               174    -16.186871  11 C  s         
   234    -10.395661  15 C  py              344     -8.417350  21 C  s         
   148     -7.935142   9 C  py              378      7.428283  23 C  s         
   368     -7.132960  22 H  s               402     -7.146292  24 H  s         
   276      7.031364  17 N  s               226      5.866006  15 C  s         

 Vector   81  Occ=0.000000D+00  E= 1.246899D-01
              MO Center= -3.0D-01, -1.2D+00, -6.7D-01, r^2= 3.1D+01
   Bfn.  Coefficient  Atom+Function         Bfn.  Coefficient  Atom+Function  
  ----- ------------  ---------------      ----- ------------  ---------------
   226     13.939236  15 C  s               148    -10.250075   9 C  py        
   174    -10.098389  11 C  s               140      7.195058   9 C  s         
    63     -6.338840   5 C  px              402     -6.156767  24 H  s         
    13     -5.892308   2 C  s               344     -4.165024  21 C  s         
   411      3.675315  25 H  s               317     -3.609500  19 C  px        

 Vector   82  Occ=0.000000D+00  E= 1.252307D-01
              MO Center=  3.5D-02,  1.1D+00, -4.0D-01, r^2= 3.2D+01
   Bfn.  Coefficient  Atom+Function         Bfn.  Coefficient  Atom+Function  
  ----- ------------  ---------------      ----- ------------  ---------------
   464     20.847319  29 C  s               234    -14.478345  15 C  py        
   174    -13.617134  11 C  s               318    -12.729751  19 C  py        
   471     -5.600114  29 C  px              472     -4.906370  29 C  py        
   233      4.808653  15 C  px              148     -4.749768   9 C  py        
   344     -4.494992  21 C  s               147      4.434177   9 C  px        

 Vector   83  Occ=0.000000D+00  E= 1.315221D-01
              MO Center= -1.2D+00, -2.4D+00, -3.0D-02, r^2= 2.9D+01
   Bfn.  Coefficient  Atom+Function         Bfn.  Coefficient  Atom+Function  
  ----- ------------  ---------------      ----- ------------  ---------------
   226     11.065267  15 C  s               106     -6.919296   7 N  s         
   148     -6.612452   9 C  py              300     -6.155657  18 H  s         
   140      5.861443   9 C  s                56      4.882383   5 C  s         
   402      4.758649  24 H  s               318     -4.468087  19 C  py        
   276     -3.978437  17 N  s               113     -3.951666   7 N  px        

 Vector   84  Occ=0.000000D+00  E= 1.379704D-01
              MO Center= -7.7D-02, -5.8D-01,  2.4D-01, r^2= 2.6D+01
   Bfn.  Coefficient  Atom+Function         Bfn.  Coefficient  Atom+Function  
  ----- ------------  ---------------      ----- ------------  ---------------
   174     11.926065  11 C  s                63      5.226553   5 C  px        
   164     -5.229593  10 H  s               226     -4.714040  15 C  s         
   471      4.530970  29 C  px              148      4.379314   9 C  py        
    56     -4.232881   5 C  s               140     -4.103127   9 C  s         
    13      4.047215   2 C  s               473      3.906735  29 C  pz        

 Vector   85  Occ=0.000000D+00  E= 1.421238D-01
              MO Center=  1.3D+00, -1.9D+00,  1.9D-01, r^2= 3.2D+01
   Bfn.  Coefficient  Atom+Function         Bfn.  Coefficient  Atom+Function  
  ----- ------------  ---------------      ----- ------------  ---------------
   147     13.495059   9 C  px               56     12.354375   5 C  s         
    63     10.595570   5 C  px              174     -9.474256  11 C  s         
   300     -7.498837  18 H  s                13      5.240967   2 C  s         
   113      5.128147   7 N  px              182     -4.794217  11 C  py        
   464      4.493563  29 C  s               198     -4.344547  12 H  s         

 Vector   86  Occ=0.000000D+00  E= 1.442874D-01
              MO Center=  7.7D-01,  8.6D-04, -3.7D-01, r^2= 2.8D+01
   Bfn.  Coefficient  Atom+Function         Bfn.  Coefficient  Atom+Function  
  ----- ------------  ---------------      ----- ------------  ---------------
   464      8.445371  29 C  s               234     -7.086021  15 C  py        
   140     -6.560990   9 C  s               284     -6.308255  17 N  py        
   233      5.621007  15 C  px               13      5.265152   2 C  s         
   226     -5.218356  15 C  s                63      4.620913   5 C  px        
   334      4.528223  20 H  s               106     -4.382589   7 N  s         

 Vector   87  Occ=0.000000D+00  E= 1.481012D-01
              MO Center= -2.1D-01, -2.1D+00, -2.5D-01, r^2= 1.8D+01
   Bfn.  Coefficient  Atom+Function         Bfn.  Coefficient  Atom+Function  
  ----- ------------  ---------------      ----- ------------  ---------------
   233      5.793778  15 C  px              174      5.207070  11 C  s         
   378     -4.604266  23 C  s               464      4.281557  29 C  s         
   310      4.089364  19 C  s               140     -4.046437   9 C  s         
    13      3.429885   2 C  s                56     -3.263905   5 C  s         
    64      3.194084   5 C  py              284     -3.109071  17 N  py        

 Vector   88  Occ=0.000000D+00  E= 1.529336D-01
              MO Center= -9.0D-01, -2.2D+00,  5.9D-01, r^2= 2.9D+01
   Bfn.  Coefficient  Atom+Function         Bfn.  Coefficient  Atom+Function  
  ----- ------------  ---------------      ----- ------------  ---------------
    63     10.584094   5 C  px              464     -8.462344  29 C  s         
   310     -6.665897  19 C  s               147      6.622410   9 C  px        
   234      6.251949  15 C  py              226     -5.484968  15 C  s         
   140     -5.019946   9 C  s               514      4.823004  31 N  s         
    12     -4.236711   2 C  s               318      4.211575  19 C  py        

 Vector   89  Occ=0.000000D+00  E= 1.551303D-01
[...]
   Bfn.  Coefficient  Atom+Function         Bfn.  Coefficient  Atom+Function  
  ----- ------------  ---------------      ----- ------------  ---------------
    56     11.145259   5 C  s               464      9.828268  29 C  s         
   300     -9.216995  18 H  s               514     -9.233209  31 N  s         
    13      8.691782   2 C  s                12      7.000808   2 C  s         
   226     -6.898904  15 C  s               106      6.120378   7 N  s         
   113      6.007843   7 N  px              344      5.819861  21 C  s         

 Vector  156  Occ=0.000000D+00  E= 4.292737D-01
              MO Center= -8.1D-01, -1.6D+00, -1.6D-01, r^2= 2.2D+01
   Bfn.  Coefficient  Atom+Function         Bfn.  Coefficient  Atom+Function  
  ----- ------------  ---------------      ----- ------------  ---------------
   276     15.484908  17 N  s               318     14.426642  19 C  py        
   464    -12.756144  29 C  s                13     11.251462   2 C  s         
   226     -8.297378  15 C  s               113      8.000550   7 N  px        
   148      7.319707   9 C  py              173      6.971382  11 C  s         
   140     -6.529162   9 C  s               352     -6.438409  21 C  py        

 Vector  157  Occ=0.000000D+00  E= 4.361049D-01
              MO Center= -7.9D-01, -1.9D+00, -1.2D-01, r^2= 2.0D+01
   Bfn.  Coefficient  Atom+Function         Bfn.  Coefficient  Atom+Function  
  ----- ------------  ---------------      ----- ------------  ---------------
   234     12.050479  15 C  py              464    -10.397424  29 C  s         
   226     -7.906649  15 C  s                56      7.833189   5 C  s         
    63      6.656311   5 C  px              149      6.154514   9 C  pz        
   402      5.409642  24 H  s               148      5.334794   9 C  py        
   235     -5.347176  15 C  pz              113      5.217025   7 N  px        

 Vector  158  Occ=0.000000D+00  E= 4.394844D-01
              MO Center= -3.7D-01, -5.1D-01,  4.9D-02, r^2= 2.0D+01
   Bfn.  Coefficient  Atom+Function         Bfn.  Coefficient  Atom+Function  
  ----- ------------  ---------------      ----- ------------  ---------------
   464     26.779773  29 C  s               276    -17.882922  17 N  s         
   318    -13.335354  19 C  py              514    -10.763990  31 N  s         
   310      9.812076  19 C  s               378     -9.861015  23 C  s         
   284     -7.847551  17 N  py              352      6.459323  21 C  py        
   344      5.990182  21 C  s               148     -5.744678   9 C  py        

 Vector  159  Occ=0.000000D+00  E= 4.508471D-01
              MO Center= -3.8D-01, -3.8D-01, -3.4D-02, r^2= 1.9D+01
   Bfn.  Coefficient  Atom+Function         Bfn.  Coefficient  Atom+Function  
  ----- ------------  ---------------      ----- ------------  ---------------
   378     15.879463  23 C  s               234    -12.887074  15 C  py        
    13    -11.569930   2 C  s               113    -10.052426   7 N  px        
   344    -10.017996  21 C  s               317      9.807696  19 C  px        
   174     -8.912026  11 C  s               276      8.730500  17 N  s         
   300      8.747039  18 H  s                56     -8.133116   5 C  s         

 Vector  160  Occ=0.000000D+00  E= 4.523582D-01
              MO Center= -3.2D-01, -8.2D-01, -1.7D-01, r^2= 2.2D+01
   Bfn.  Coefficient  Atom+Function         Bfn.  Coefficient  Atom+Function  
  ----- ------------  ---------------      ----- ------------  ---------------
   174     21.195215  11 C  s               148      9.050046   9 C  py        
   147     -8.446722   9 C  px              234      7.816456  15 C  py        
   344      7.710284  21 C  s               197     -7.468454  12 H  s         
    12      7.156368   2 C  s               226     -7.074181  15 C  s         
   173      6.762587  11 C  s                 2     -5.396514   1 H  s         

 Vector  161  Occ=0.000000D+00  E= 4.534779D-01
              MO Center= -3.8D-01,  1.9D-01,  2.4D-01, r^2= 2.0D+01
   Bfn.  Coefficient  Atom+Function         Bfn.  Coefficient  Atom+Function  
  ----- ------------  ---------------      ----- ------------  ---------------
   276     15.661999  17 N  s               174    -12.966619  11 C  s         
   514    -12.377505  31 N  s                13      9.762585   2 C  s         
    63      9.432432   5 C  px              471      8.709703  29 C  px        
   234     -6.828295  15 C  py              464      6.593310  29 C  s         
   106     -6.291773   7 N  s               215      6.107932  14 H  s         

 Vector  162  Occ=0.000000D+00  E= 4.586863D-01
              MO Center=  1.3D-01,  3.1D-01,  1.9D-01, r^2= 2.0D+01
   Bfn.  Coefficient  Atom+Function         Bfn.  Coefficient  Atom+Function  
  ----- ------------  ---------------      ----- ------------  ---------------
    12      8.263911   2 C  s               284      8.015632  17 N  py        
   514     -7.751666  31 N  s               174      5.844891  11 C  s         
   310      5.608241  19 C  s               464      5.414995  29 C  s         
   234     -5.330761  15 C  py              226     -5.213515  15 C  s         
   300     -4.541228  18 H  s                 2     -4.146176   1 H  s         

 Vector  163  Occ=0.000000D+00  E= 4.621778D-01
              MO Center=  7.0D-01,  1.4D-01,  3.4D-01, r^2= 2.0D+01
   Bfn.  Coefficient  Atom+Function         Bfn.  Coefficient  Atom+Function  
  ----- ------------  ---------------      ----- ------------  ---------------
   226     11.974866  15 C  s               276    -10.097357  17 N  s         
   140      9.548760   9 C  s               234      8.450164  15 C  py        
   233     -8.133674  15 C  px              464     -7.108535  29 C  s         
    13     -6.701544   2 C  s               378     -6.400232  23 C  s         
    56      6.361332   5 C  s               377     -5.469984  23 C  s         

 Vector  164  Occ=0.000000D+00  E= 4.686927D-01
              MO Center=  1.2D-01, -1.7D-01,  4.2D-01, r^2= 2.0D+01
   Bfn.  Coefficient  Atom+Function         Bfn.  Coefficient  Atom+Function  
  ----- ------------  ---------------      ----- ------------  ---------------
   464     25.018446  29 C  s               174    -15.315604  11 C  s         
   234    -15.206271  15 C  py              283     11.597506  17 N  px        
   318     -9.872232  19 C  py              276      9.643386  17 N  s         
   140     -7.609575   9 C  s               148     -7.388514   9 C  py        
   514     -6.882403  31 N  s               226     -6.737531  15 C  s         

 Vector  165  Occ=0.000000D+00  E= 4.709976D-01
              MO Center= -9.8D-01,  2.9D-02,  2.2D-02, r^2= 1.9D+01
   Bfn.  Coefficient  Atom+Function         Bfn.  Coefficient  Atom+Function  
  ----- ------------  ---------------      ----- ------------  ---------------
   226     25.206226  15 C  s               378    -16.814206  23 C  s         
   140     15.046305   9 C  s               318     14.706186  19 C  py        
   464    -12.787678  29 C  s                13    -12.131549   2 C  s         
   283     -9.954564  17 N  px              317     -9.132822  19 C  px        
    12     -8.239610   2 C  s               276     -8.258761  17 N  s         

 Vector  166  Occ=0.000000D+00  E= 4.740121D-01
              MO Center=  7.4D-01, -9.7D-01,  2.2D-02, r^2= 2.1D+01
   Bfn.  Coefficient  Atom+Function         Bfn.  Coefficient  Atom+Function  
  ----- ------------  ---------------      ----- ------------  ---------------
   464     15.459034  29 C  s               514    -10.323790  31 N  s         
   300     -9.541543  18 H  s               226     -8.015628  15 C  s         
   344      7.231407  21 C  s                13      6.616091   2 C  s         
   140     -6.135834   9 C  s               284     -5.669998  17 N  py        
   318     -5.587645  19 C  py              206     -5.450890  13 H  s         

 Vector  167  Occ=0.000000D+00  E= 4.776998D-01
              MO Center= -1.2D-01, -1.1D+00, -1.9D-01, r^2= 2.0D+01
   Bfn.  Coefficient  Atom+Function         Bfn.  Coefficient  Atom+Function  
  ----- ------------  ---------------      ----- ------------  ---------------
   174     15.797301  11 C  s               300    -14.791179  18 H  s         
   206     -8.789269  13 H  s               318     -8.333756  19 C  py        
   276     -7.923451  17 N  s               163     -7.798862  10 H  s         
   344      7.471840  21 C  s               147     -6.681068   9 C  px        
   367     -6.477839  22 H  s               106     -6.339459   7 N  s         

 Vector  168  Occ=0.000000D+00  E= 4.848570D-01
              MO Center= -4.2D-02, -2.4D-01,  1.2D-01, r^2= 1.8D+01
   Bfn.  Coefficient  Atom+Function         Bfn.  Coefficient  Atom+Function  
  ----- ------------  ---------------      ----- ------------  ---------------
   464     12.414777  29 C  s               276      8.963779  17 N  s         
   174     -8.606045  11 C  s               226     -8.300571  15 C  s         
   284     -7.362066  17 N  py              147      7.279178   9 C  px        
   140     -6.477243   9 C  s               106      5.856992   7 N  s         
   235     -5.214541  15 C  pz               12      5.170951   2 C  s         

 Vector  169  Occ=0.000000D+00  E= 4.900601D-01
              MO Center= -2.3D-01, -1.0D+00,  6.0D-02, r^2= 1.8D+01
   Bfn.  Coefficient  Atom+Function         Bfn.  Coefficient  Atom+Function  
  ----- ------------  ---------------      ----- ------------  ---------------
   174     23.381959  11 C  s               226    -22.754285  15 C  s         
   140    -14.991774   9 C  s                12     10.609229   2 C  s         
    13      9.514505   2 C  s               148      8.974628   9 C  py        
   106      6.838154   7 N  s                63      6.413005   5 C  px        
   181     -5.730467  11 C  px              234      5.588948  15 C  py        

 Vector  170  Occ=0.000000D+00  E= 4.919789D-01
              MO Center= -1.0D-01, -6.6D-01,  6.6D-04, r^2= 2.0D+01
   Bfn.  Coefficient  Atom+Function         Bfn.  Coefficient  Atom+Function  
  ----- ------------  ---------------      ----- ------------  ---------------
    56     13.978772   5 C  s               174    -11.820753  11 C  s         
   147     11.219029   9 C  px              378     10.812139  23 C  s         
   353     -8.299451  21 C  pz              310     -7.832722  19 C  s         
   319      6.983021  19 C  pz              215      5.399061  14 H  s         
   419     -4.934471  26 H  s               235     -4.558846  15 C  pz        

 Vector  171  Occ=0.000000D+00  E= 4.982417D-01
              MO Center= -3.9D-01,  6.8D-01,  1.9D-01, r^2= 1.8D+01
   Bfn.  Coefficient  Atom+Function         Bfn.  Coefficient  Atom+Function  
  ----- ------------  ---------------      ----- ------------  ---------------
   378     21.662898  23 C  s               317     12.819557  19 C  px        
   174    -11.702520  11 C  s               234     -9.723817  15 C  py        
   310     -9.569439  19 C  s               318     -9.495736  19 C  py        
   471     -8.726159  29 C  px              377      8.414309  23 C  s         
   353     -8.186795  21 C  pz               56      8.114023   5 C  s         

 Vector  172  Occ=0.000000D+00  E= 5.061508D-01
              MO Center= -1.6D-01, -5.0D-01, -2.7D-02, r^2= 1.7D+01
   Bfn.  Coefficient  Atom+Function         Bfn.  Coefficient  Atom+Function  
  ----- ------------  ---------------      ----- ------------  ---------------
   173      9.480214  11 C  s               317      8.774979  19 C  px        
   197     -7.788083  12 H  s               464     -7.079077  29 C  s         
   226     -6.883355  15 C  s               343     -6.105100  21 C  s         
   174      6.005444  11 C  s               367      5.894684  22 H  s         
   401      5.657247  24 H  s               430      5.087974  27 O  s         


 center of mass
 --------------
 x =   0.03129061 y =   0.08250510 z =  -0.00383964

 moments of inertia (a.u.)
 ------------------
        5095.497995286832           0.000000000000           0.000000000001
           0.000000000000        2463.563557672011          -0.000000000000
           0.000000000001          -0.000000000000        6844.920110125104

  Mulliken analysis of the total density
  --------------------------------------

    Atom       Charge   Shell Charges
 -----------   ------   -------------------------------------------------------
    1 H    1     0.87   0.76  0.13  0.00  0.03 -0.06
    2 C    6     6.21   2.01  0.66  0.21  0.08  2.07  1.02  0.00  0.06  0.10
    3 H    1     0.87   0.76  0.13  0.00  0.03 -0.06
    4 H    1     0.97   0.76  0.22  0.01  0.03 -0.05
    5 C    6     5.16   2.01  0.68  0.06 -0.05  1.89  0.35 -0.04  0.24  0.01
    6 O    8     8.78   2.01  0.82  1.00  0.16  2.80  1.87  0.13  0.02 -0.01
    7 N    7     7.52   2.01  0.72  0.80 -0.10  2.45  1.45  0.10  0.05  0.04
    8 H    1     0.97   0.77  0.21 -0.02  0.05 -0.04
    9 C    6     6.82   2.01  0.66  0.12  0.03  1.99  1.72 -0.08  0.14  0.23
   10 H    1     1.01   0.78  0.16  0.02  0.03  0.02
   11 C    6     5.76   2.01  0.66  0.22  0.29  2.04  0.49 -0.04  0.07  0.00
   12 H    1     0.94   0.77  0.21  0.01  0.03 -0.08
   13 H    1     0.90   0.77  0.15  0.02  0.03 -0.07
   14 H    1     0.95   0.77  0.23  0.01  0.03 -0.08
   15 C    6     4.51   2.01  0.68 -0.08  0.06  1.89  0.16  0.01  0.24 -0.45
   16 O    8     8.83   2.01  0.82  1.03  0.17  2.79  1.86  0.15  0.01 -0.01
   17 N    7     7.53   2.01  0.72  0.86 -0.10  2.45  1.44  0.07  0.05  0.03
   18 H    1     0.88   0.73  0.33 -0.08  0.06 -0.16
   19 C    6     6.12   2.01  0.67 -0.10 -0.04  2.00  1.32  0.12  0.13  0.02
   20 H    1     1.00   0.78  0.19 -0.01  0.03  0.01
   21 C    6     5.72   2.01  0.66  0.08  0.01  1.95  0.80 -0.06  0.17  0.10
   22 H    1     1.12   0.80  0.33  0.02  0.03 -0.06
   23 C    6     5.34   2.01  0.67 -0.02  0.05  2.05  0.57 -0.03  0.07 -0.03
   24 H    1     1.02   0.77  0.22  0.03  0.03 -0.04
   25 H    1     0.98   0.77  0.22  0.00  0.03 -0.04
   26 H    1     1.02   0.77  0.31 -0.01  0.03 -0.08
   27 O    8     8.76   2.01  0.80  1.00  0.07  2.83  1.94  0.13  0.01 -0.02
   28 H    1     0.84   0.70  0.04 -0.00  0.08  0.02
   29 C    6     4.53   2.01  0.68  0.05  0.06  1.88 -0.15 -0.08  0.23 -0.16
   30 O    8     8.81   2.01  0.82  1.02  0.15  2.80  1.86  0.14  0.02 -0.00
   31 N    7     7.35   2.01  0.72  0.90 -0.14  2.46  1.27  0.09  0.04 -0.00
   32 H    1     0.92   0.74  0.19 -0.02  0.06 -0.04
   33 H    1     1.01   0.76  0.23 -0.00  0.05 -0.03

       Multipole analysis of the density wrt the origin
       ------------------------------------------------

     L   x y z        total         open         nuclear
     -   - - -        -----         ----         -------
     0   0 0 0      0.000000      0.000000    124.000000

     1   1 0 0      0.351125      0.000000      0.000000
     1   0 1 0     -3.228091      0.000000     -0.000000
     1   0 0 1      0.054435      0.000000      0.000000

     2   2 0 0    -72.272444      0.000000   1196.660194
     2   1 1 0      4.910483      0.000000    -13.350791
     2   1 0 1      5.695047      0.000000      5.277226
     2   0 2 0    -70.902870      0.000000   2601.284300
     2   0 1 1      7.160735      0.000000     22.300197
     2   0 0 2    -74.919853      0.000000    208.575288


 Task  times  cpu:     4380.3s     wall:     4503.5s


                                NWChem Input Module
                                -------------------


 Summary of allocated global arrays
-----------------------------------
  No active global arrays


MA_summarize_allocated_blocks: starting scan ...
MA_summarize_allocated_blocks: scan completed: 0 heap blocks, 0 stack blocks
MA usage statistics:

	allocation statistics:
					      heap	     stack
					      ----	     -----
	current number of blocks	         0	         0
	maximum number of blocks	        16	        14
	current total bytes		         0	         0
	maximum total bytes		    116920	  26223272
	maximum total K-bytes		       117	     26224
	maximum total M-bytes		         1	        27


                                     CITATION
                                     --------
                Please cite the following reference when publishing
                           results obtained with NWChem:

          E. Apra, E. J. Bylaska, W. A. de Jong, N. Govind, K. Kowalski,
       T. P. Straatsma, M. Valiev, H. J. J. van Dam, Y. Alexeev, J. Anchell,
       V. Anisimov, F. W. Aquino, R. Atta-Fynn, J. Autschbach, N. P. Bauman,
     J. C. Becca, D. E. Bernholdt, K. Bhaskaran-Nair, S. Bogatko, P. Borowski,
         J. Boschen, J. Brabec, A. Bruner, E. Cauet, Y. Chen, G. N. Chuev,
      C. J. Cramer, J. Daily, M. J. O. Deegan, T. H. Dunning Jr., M. Dupuis,
   K. G. Dyall, G. I. Fann, S. A. Fischer, A. Fonari, H. Fruchtl, L. Gagliardi,
      J. Garza, N. Gawande, S. Ghosh, K. Glaesemann, A. W. Gotz, J. Hammond,
       V. Helms, E. D. Hermes, K. Hirao, S. Hirata, M. Jacquelin, L. Jensen,
   B. G. Johnson, H. Jonsson, R. A. Kendall, M. Klemm, R. Kobayashi, V. Konkov,
      S. Krishnamoorthy, M. Krishnan, Z. Lin, R. D. Lins, R. J. Littlefield,
      A. J. Logsdail, K. Lopata, W. Ma, A. V. Marenich, J. Martin del Campo,
   D. Mejia-Rodriguez, J. E. Moore, J. M. Mullin, T. Nakajima, D. R. Nascimento,
    J. A. Nichols, P. J. Nichols, J. Nieplocha, A. Otero-de-la-Roza, B. Palmer,
    A. Panyala, T. Pirojsirikul, B. Peng, R. Peverati, J. Pittner, L. Pollack,
   R. M. Richard, P. Sadayappan, G. C. Schatz, W. A. Shelton, D. W. Silverstein,
   D. M. A. Smith, T. A. Soares, D. Song, M. Swart, H. L. Taylor, G. S. Thomas,
            V. Tipparaju, D. G. Truhlar, K. Tsemekhman, T. Van Voorhis,
      A. Vazquez-Mayagoitia, P. Verma, O. Villa, A. Vishnu, K. D. Vogiatzis,
        D. Wang, J. H. Weare, M. J. Williamson, T. L. Windus, K. Wolinski,
        A. T. Wong, Q. Wu, C. Yang, Q. Yu, M. Zacharias, Z. Zhang, Y. Zhao,
                                and R. J. Harrison
                        "NWChem: Past, present, and future
                         J. Chem. Phys. 152, 184102 (2020)
                               doi:10.1063/5.0004997

                                      AUTHORS
                                      -------
  E. Apra, E. J. Bylaska, N. Govind, K. Kowalski, M. Valiev, D. Mejia-Rodriguez,
       A. Kunitsa, N. P. Bauman, A. Panyala, W. A. de Jong, T. P. Straatsma,
   H. J. J. van Dam, D. Wang, T. L. Windus, J. Hammond, J. Autschbach, A. Woods,
    K. Bhaskaran-Nair, J. Brabec, K. Lopata, S. A. Fischer, S. Krishnamoorthy,
     M. Jacquelin, W. Ma, M. Klemm, O. Villa, Y. Chen, V. Anisimov, F. Aquino,
     S. Hirata, M. T. Hackler, E. Hermes, L. Jensen, J. E. Moore, J. C. Becca,
      V. Konjkov, T. Risthaus, M. Malagoli, A. Marenich, A. Otero-de-la-Roza,
        J. Mullin, P. Nichols, R. Peverati, J. Pittner, Y. Zhao, P.-D. Fan,
        A. Fonari, M. J. Williamson, R. J. Harrison, J. R. Rehr, M. Dupuis,
     D. Silverstein, D. M. A. Smith, J. Nieplocha, V. Tipparaju, M. Krishnan,
     B. E. Van Kuiken, A. Vazquez-Mayagoitia, M. Swart, Q. Wu, T. Van Voorhis,
     A. A. Auer, M. Nooijen, L. D. Crosby, E. Brown, G. Cisneros, G. I. Fann,
   H. Fruchtl, J. Garza, K. Hirao, R. A. Kendall, J. A. Nichols, K. Tsemekhman,
    K. Wolinski, J. Anchell, D. E. Bernholdt, P. Borowski, T. Clark, D. Clerc,
   H. Dachsel, M. J. O. Deegan, K. Dyall, D. Elwood, E. Glendening, M. Gutowski,
   A. C. Hess, J. Jaffe, B. G. Johnson, J. Ju, R. Kobayashi, R. Kutteh, Z. Lin,
   R. Littlefield, X. Long, B. Meng, T. Nakajima, S. Niu, L. Pollack, M. Rosing,
   K. Glaesemann, G. Sandrone, M. Stave, H. Taylor, G. Thomas, J. H. van Lenthe,
                               A. T. Wong, Z. Zhang.

 Total times  cpu:     4380.4s     wall:     4504.2s
