export TMOUT=5400
export TMPDIR=/tmp
export PTMPDIR=/tmp/ptmp
 argument  1 = ALA_VAL_1.nw
                                         
                                         


             Northwest Computational Chemistry Package (NWChem) 7.2.0
             --------------------------------------------------------


                    Environmental Molecular Sciences Laboratory
                       Pacific Northwest National Laboratory
                                Richland, WA 99352

                              Copyright (c) 1994-2022
                       Pacific Northwest National Laboratory
                            Battelle Memorial Institute

             NWChem is an open-source computational chemistry package
                        distributed under the terms of the
                      Educational Community License (ECL) 2.0
             A copy of the license is included with this distribution
                              in the LICENSE.TXT file

                                  ACKNOWLEDGMENT
                                  --------------

            This software and its documentation were developed at the
            EMSL at Pacific Northwest National Laboratory, a multiprogram
            national laboratory, operated for the U.S. Department of Energy
            by Battelle under Contract Number DE-AC05-76RL01830. Support
            for this work was provided by the Department of Energy Office
            of Biological and Environmental Research, Office of Basic
            Energy Sciences, and the Office of Advanced Scientific Computing.


           Job information
           ---------------

    hostname        = nova18-wide-39
    program         = /opt/rit/el9/20230413/app/linux-rhel9-x86_64_v3/gcc-11.2.1/nwchem-7.2.0-oxtctbuhfuzyfaoziquq6bki22grib3g/bin/nwchem
    date            = Tue Jul  1 09:11:43 2025

    compiled        = Wed_May_17_23:46:39_2023
    source          = /tmp/root/spack-stage/spack-stage-nwchem-7.2.0-oxtctbuhfuzyfaoziquq6bki22grib3g/spack-src
    nwchem branch   = 7.2.0
    nwchem revision = d0d141fd
    ga revision     = 5.8.0
    use scalapack   = T
    input           = ALA_VAL_1.nw
    prefix          = ALA_VAL_1.
    data base       = ./ALA_VAL_1.db
    status          = startup
    nproc           =        1
    time left       =     -1s



           Memory information
           ------------------

    heap     =   26214394 doubles =    200.0 Mbytes
    stack    =   26214399 doubles =    200.0 Mbytes
    global   =   52428800 doubles =    400.0 Mbytes (distinct from heap & stack)
    total    =  104857593 doubles =    800.0 Mbytes
    verify   = yes
    hardfail = no 


           Directory information
           ---------------------

  0 permanent = .
  0 scratch   = .




                                NWChem Input Module
                                -------------------



 Scaling coordinates for geometry "geometry" by  1.889725989
 (inverse scale =  0.529177249)

 C1  symmetry detected

          ------
          auto-z
          ------
  no constraints, skipping    0.0000000000000000     
  no constraints, skipping    0.0000000000000000     


                             Geometry "geometry" -> ""
                             -------------------------

 Output coordinates in angstroms (scale by  1.889725989 to convert to a.u.)

  No.       Tag          Charge          X              Y              Z
 ---- ---------------- ---------- -------------- -------------- --------------
    1 H                    1.0000    -1.79618624    -4.77027944    -0.27887301
    2 C                    6.0000    -2.16866866    -3.74860885    -0.22836514
    3 H                    1.0000    -3.04981369    -3.71459355     0.41164454
    4 H                    1.0000    -2.43099123    -3.39750827    -1.22505478
    5 C                    6.0000    -1.10308401    -2.85397607     0.35723759
    6 O                    8.0000    -1.31976136    -2.22708927     1.38538781
    7 N                    7.0000     0.04867310    -2.77694099    -0.30812783
    8 H                    1.0000     0.13812649    -3.31540788    -1.15372673
    9 C                    6.0000     1.21512314    -1.98867649     0.11239019
   10 H                    1.0000     1.34055174    -2.12884057     1.18789504
   11 C                    6.0000     2.45516671    -2.57821372    -0.57717981
   12 H                    1.0000     2.38278921    -2.44490295    -1.65764579
   13 H                    1.0000     3.35075534    -2.06726142    -0.21854106
   14 H                    1.0000     2.54343050    -3.64028804    -0.34553648
   15 C                    6.0000     1.05349877    -0.46241479    -0.10959358
   16 O                    8.0000     1.92680983     0.18064812    -0.68788838
   17 N                    7.0000    -0.07808852     0.10679291     0.32863215
   18 H                    1.0000    -0.71179650    -0.51508730     0.82086502
   19 C                    6.0000    -0.52471502     1.51368659     0.18876453
   20 H                    1.0000    -1.50491074     1.56900787     0.66071464
   21 C                    6.0000     0.38192059     2.48742401     0.97945177
   22 H                    1.0000     1.38402562     2.47792792     0.55210023
   23 C                    6.0000    -0.13611832     3.93236143     0.93024252
   24 H                    1.0000    -0.11928495     4.30668844    -0.09278139
   25 H                    1.0000    -1.15723299     3.97803476     1.31094815
   26 H                    1.0000     0.50209031     4.57713633     1.53430550
   27 C                    6.0000     0.48143521     2.08824942     2.45956510
   28 H                    1.0000     0.94739235     1.10769079     2.55623835
   29 H                    1.0000     1.10048908     2.80802966     2.99626121
   30 H                    1.0000    -0.51141580     2.06255176     2.90931670
   31 C                    6.0000    -0.75967010     1.98466574    -1.25695424
   32 O                    8.0000    -1.79772002     2.56335941    -1.55036693
   33 N                    7.0000     0.14177332     1.73113303    -2.19301135
   34 H                    1.0000     0.99740413     1.25452468    -1.93853268
   35 H                    1.0000    -0.03588542     2.04335294    -3.13246178

      Atomic Mass 
      ----------- 

      H                  1.007825
      C                 12.000000
      O                 15.994910
      N                 14.003070


 Effective nuclear repulsion energy (a.u.)    1205.5397989277

            Nuclear Dipole moment (a.u.) 
            ----------------------------
        X                 Y               Z
 ---------------- ---------------- ----------------
     0.0000000000     0.0000000000     0.0000000000



                                Z-matrix (autoz)
                                -------- 

 Units are Angstrom for bonds and degrees for angles

      Type          Name      I     J     K     L     M      Value
      ----------- --------  ----- ----- ----- ----- ----- ----------
    1 Stretch                  1     2                       1.08863
    2 Stretch                  2     3                       1.08958
    3 Stretch                  2     4                       1.08880
    4 Stretch                  2     5                       1.50956
    5 Stretch                  5     6                       1.22353
    6 Stretch                  5     7                       1.33236
    7 Stretch                  7     8                       1.00647
    8 Stretch                  7     9                       1.46929
    9 Stretch                  9    10                       1.09183
   10 Stretch                  9    11                       1.53648
   11 Stretch                  9    15                       1.55077
   12 Stretch                 11    12                       1.09106
   13 Stretch                 11    13                       1.09168
   14 Stretch                 11    14                       1.09062
   15 Stretch                 15    16                       1.22908
   16 Stretch                 15    17                       1.34035
   17 Stretch                 17    18                       1.01519
   18 Stretch                 17    19                       1.48270
   19 Stretch                 19    20                       1.08930
   20 Stretch                 19    21                       1.54769
   21 Stretch                 19    31                       1.53855
   22 Stretch                 21    22                       1.08947
   23 Stretch                 21    23                       1.53578
   24 Stretch                 21    27                       1.53622
   25 Stretch                 23    24                       1.08949
   26 Stretch                 23    25                       1.09073
   27 Stretch                 23    26                       1.08993
   28 Stretch                 27    28                       1.08993
   29 Stretch                 27    29                       1.09058
   30 Stretch                 27    30                       1.09027
   31 Stretch                 31    32                       1.22414
   32 Stretch                 31    33                       1.32404
   33 Stretch                 33    34                       1.01194
   34 Stretch                 33    35                       1.00579
   35 Bend                     1     2     3               109.46647
   36 Bend                     1     2     4               110.03529
   37 Bend                     1     2     5               109.43072
   38 Bend                     2     5     6               120.30625
   39 Bend                     2     5     7               116.79145
   40 Bend                     3     2     4               109.43847
   41 Bend                     3     2     5               108.93450
   42 Bend                     4     2     5               109.51626
   43 Bend                     5     7     8               117.74023
   44 Bend                     5     7     9               125.05530
   45 Bend                     6     5     7               122.89526
   46 Bend                     7     9    10               107.71337
   47 Bend                     7     9    11               107.84386
   48 Bend                     7     9    15               113.84776
   49 Bend                     8     7     9               117.18896
   50 Bend                     9    11    12               110.12201
   51 Bend                     9    11    13               109.57707
   52 Bend                     9    11    14               110.09903
   53 Bend                     9    15    16               120.54654
   54 Bend                     9    15    17               117.33229
   55 Bend                    10     9    11               107.46460
   56 Bend                    10     9    15               106.21990
   57 Bend                    11     9    15               113.42212
   58 Bend                    12    11    13               108.81794
   59 Bend                    12    11    14               109.55359
   60 Bend                    13    11    14               108.64004
   61 Bend                    15    17    18               115.17508
   62 Bend                    15    17    19               128.78711
   63 Bend                    16    15    17               122.10803
   64 Bend                    17    19    20               106.16313
   65 Bend                    17    19    21               111.85996
   66 Bend                    17    19    31               115.15773
   67 Bend                    18    17    19               116.03773
   68 Bend                    19    21    22               109.44762
   69 Bend                    19    21    23               112.20815
   70 Bend                    19    21    27               111.51161
   71 Bend                    19    31    32               119.96275
   72 Bend                    19    31    33               120.11435
   73 Bend                    20    19    21               105.89218
   74 Bend                    20    19    31               104.72353
   75 Bend                    21    19    31               112.14306
   76 Bend                    21    23    24               110.37314
   77 Bend                    21    23    25               110.12053
   78 Bend                    21    23    26               109.95678
   79 Bend                    21    27    28               110.29885
   80 Bend                    21    27    29               109.84174
   81 Bend                    21    27    30               110.15622
   82 Bend                    22    21    23               107.81212
   83 Bend                    22    21    27               108.42615
   84 Bend                    23    21    27               107.28912
   85 Bend                    24    23    25               109.13660
   86 Bend                    24    23    26               107.94551
   87 Bend                    25    23    26               109.26649
   88 Bend                    28    27    29               107.90552
   89 Bend                    28    27    30               109.36086
   90 Bend                    29    27    30               109.23650
   91 Bend                    31    33    34               119.21346
   92 Bend                    31    33    35               118.72728
   93 Bend                    32    31    33               119.89406
   94 Bend                    34    33    35               122.03567
   95 Torsion                  1     2     5     6        -120.44567
   96 Torsion                  1     2     5     7          60.49179
   97 Torsion                  2     5     7     8          -0.01243
   98 Torsion                  2     5     7     9        -178.53528
   99 Torsion                  3     2     5     6          -0.80156
  100 Torsion                  3     2     5     7        -179.86410
  101 Torsion                  4     2     5     6         118.85948
  102 Torsion                  4     2     5     7         -60.20307
  103 Torsion                  5     7     9    10          42.51409
  104 Torsion                  5     7     9    11         158.22253
  105 Torsion                  5     7     9    15         -74.98842
  106 Torsion                  6     5     7     8        -179.04854
  107 Torsion                  6     5     7     9           2.42861
  108 Torsion                  7     9    11    12          65.12574
  109 Torsion                  7     9    11    13        -175.21072
  110 Torsion                  7     9    11    14         -55.78023
  111 Torsion                  7     9    15    16        -129.84129
  112 Torsion                  7     9    15    17          48.86786
  113 Torsion                  8     7     9    10        -136.01613
  114 Torsion                  8     7     9    11         -20.30769
  115 Torsion                  8     7     9    15         106.48136
  116 Torsion                  9    15    17    18           3.40176
  117 Torsion                  9    15    17    19        -176.48592
  118 Torsion                 10     9    11    12        -179.00262
  119 Torsion                 10     9    11    13         -59.33907
  120 Torsion                 10     9    11    14          60.09142
  121 Torsion                 10     9    15    16         111.79676
  122 Torsion                 10     9    15    17         -69.49409
  123 Torsion                 11     9    15    16          -6.01984
  124 Torsion                 11     9    15    17         172.68931
  125 Torsion                 12    11     9    15         -61.91129
  126 Torsion                 13    11     9    15          57.75226
  127 Torsion                 14    11     9    15         177.18275
  128 Torsion                 15    17    19    20         178.88967
  129 Torsion                 15    17    19    21         -66.05710
  130 Torsion                 15    17    19    31          63.51926
  131 Torsion                 16    15    17    18        -177.91069
  132 Torsion                 16    15    17    19           2.20164
  133 Torsion                 17    19    21    22          64.82249
  134 Torsion                 17    19    21    23        -175.53736
  135 Torsion                 17    19    21    27         -55.14265
  136 Torsion                 17    19    31    32         130.98377
  137 Torsion                 17    19    31    33         -47.06076
  138 Torsion                 18    17    19    20          -0.99719
  139 Torsion                 18    17    19    21         114.05603
  140 Torsion                 18    17    19    31        -116.36760
  141 Torsion                 19    21    23    24         -63.58642
  142 Torsion                 19    21    23    25          56.97594
  143 Torsion                 19    21    23    26         177.43269
  144 Torsion                 19    21    27    28          62.90077
  145 Torsion                 19    21    27    29        -178.28524
  146 Torsion                 19    21    27    30         -57.91638
  147 Torsion                 19    31    33    34          -2.12707
  148 Torsion                 19    31    33    35         179.60291
  149 Torsion                 20    19    21    22        -179.95840
  150 Torsion                 20    19    21    23         -60.31825
  151 Torsion                 20    19    21    27          60.07646
  152 Torsion                 20    19    31    32          14.78998
  153 Torsion                 20    19    31    33        -163.25454
  154 Torsion                 21    19    31    32         -99.57860
  155 Torsion                 21    19    31    33          82.37687
  156 Torsion                 22    21    19    31         -66.30797
  157 Torsion                 22    21    23    24          57.00432
  158 Torsion                 22    21    23    25         177.56668
  159 Torsion                 22    21    23    26         -61.97657
  160 Torsion                 22    21    27    28         -57.66496
  161 Torsion                 22    21    27    29          61.14903
  162 Torsion                 22    21    27    30        -178.48211
  163 Torsion                 23    21    19    31          53.33218
  164 Torsion                 23    21    27    28        -173.85716
  165 Torsion                 23    21    27    29         -55.04317
  166 Torsion                 23    21    27    30          65.32569
  167 Torsion                 24    23    21    27         173.60138
  168 Torsion                 25    23    21    27         -65.83627
  169 Torsion                 26    23    21    27          54.62048
  170 Torsion                 27    21    19    31         173.72689
  171 Torsion                 32    31    33    34         179.82705
  172 Torsion                 32    31    33    35           1.55703


            XYZ format geometry
            -------------------
    35
 geometry
 H                    -1.79618624    -4.77027944    -0.27887301
 C                    -2.16866866    -3.74860885    -0.22836514
 H                    -3.04981369    -3.71459355     0.41164454
 H                    -2.43099123    -3.39750827    -1.22505478
 C                    -1.10308401    -2.85397607     0.35723759
 O                    -1.31976136    -2.22708927     1.38538781
 N                     0.04867310    -2.77694099    -0.30812783
 H                     0.13812649    -3.31540788    -1.15372673
 C                     1.21512314    -1.98867649     0.11239019
 H                     1.34055174    -2.12884057     1.18789504
 C                     2.45516671    -2.57821372    -0.57717981
 H                     2.38278921    -2.44490295    -1.65764579
 H                     3.35075534    -2.06726142    -0.21854106
 H                     2.54343050    -3.64028804    -0.34553648
 C                     1.05349877    -0.46241479    -0.10959358
 O                     1.92680983     0.18064812    -0.68788838
 N                    -0.07808852     0.10679291     0.32863215
 H                    -0.71179650    -0.51508730     0.82086502
 C                    -0.52471502     1.51368659     0.18876453
 H                    -1.50491074     1.56900787     0.66071464
 C                     0.38192059     2.48742401     0.97945177
 H                     1.38402562     2.47792792     0.55210023
 C                    -0.13611832     3.93236143     0.93024252
 H                    -0.11928495     4.30668844    -0.09278139
 H                    -1.15723299     3.97803476     1.31094815
 H                     0.50209031     4.57713633     1.53430550
 C                     0.48143521     2.08824942     2.45956510
 H                     0.94739235     1.10769079     2.55623835
 H                     1.10048908     2.80802966     2.99626121
 H                    -0.51141580     2.06255176     2.90931670
 C                    -0.75967010     1.98466574    -1.25695424
 O                    -1.79772002     2.56335941    -1.55036693
 N                     0.14177332     1.73113303    -2.19301135
 H                     0.99740413     1.25452468    -1.93853268
 H                    -0.03588542     2.04335294    -3.13246178

 ==============================================================================
                                internuclear distances
 ------------------------------------------------------------------------------
       center one      |      center two      | atomic units |  angstroms
 ------------------------------------------------------------------------------
    2 C                |   1 H                |     2.05720  |     1.08863
    3 H                |   2 C                |     2.05901  |     1.08958
    4 H                |   2 C                |     2.05752  |     1.08880
    5 C                |   2 C                |     2.85265  |     1.50956
    6 O                |   5 C                |     2.31214  |     1.22353
    7 N                |   5 C                |     2.51780  |     1.33236
    8 H                |   7 N                |     1.90196  |     1.00647
    9 C                |   7 N                |     2.77655  |     1.46929
   10 H                |   9 C                |     2.06326  |     1.09183
   11 C                |   9 C                |     2.90353  |     1.53648
   12 H                |  11 C                |     2.06181  |     1.09106
   13 H                |  11 C                |     2.06298  |     1.09168
   14 H                |  11 C                |     2.06097  |     1.09062
   15 C                |   9 C                |     2.93052  |     1.55077
   16 O                |  15 C                |     2.32262  |     1.22908
   17 N                |  15 C                |     2.53289  |     1.34035
   18 H                |  17 N                |     1.91843  |     1.01519
   19 C                |  17 N                |     2.80189  |     1.48270
   20 H                |  19 C                |     2.05848  |     1.08930
   21 C                |  19 C                |     2.92471  |     1.54769
   22 H                |  21 C                |     2.05879  |     1.08947
   23 C                |  21 C                |     2.90221  |     1.53578
   24 H                |  23 C                |     2.05883  |     1.08949
   25 H                |  23 C                |     2.06119  |     1.09073
   26 H                |  23 C                |     2.05966  |     1.08993
   27 C                |  21 C                |     2.90304  |     1.53622
   28 H                |  27 C                |     2.05968  |     1.08993
   29 H                |  27 C                |     2.06089  |     1.09058
   30 H                |  27 C                |     2.06031  |     1.09027
   31 C                |  19 C                |     2.90743  |     1.53855
   32 O                |  31 C                |     2.31329  |     1.22414
   33 N                |  31 C                |     2.50207  |     1.32404
   34 H                |  33 N                |     1.91229  |     1.01194
   35 H                |  33 N                |     1.90067  |     1.00579
 ------------------------------------------------------------------------------
                         number of included internuclear distances:         34
 ==============================================================================



 ==============================================================================
                                 internuclear angles
 ------------------------------------------------------------------------------
        center 1       |       center 2       |       center 3       |  degrees
 ------------------------------------------------------------------------------
    1 H                |   2 C                |   3 H                |   109.47
    1 H                |   2 C                |   4 H                |   110.04
    1 H                |   2 C                |   5 C                |   109.43
    3 H                |   2 C                |   4 H                |   109.44
    3 H                |   2 C                |   5 C                |   108.93
    4 H                |   2 C                |   5 C                |   109.52
    2 C                |   5 C                |   6 O                |   120.31
    2 C                |   5 C                |   7 N                |   116.79
    6 O                |   5 C                |   7 N                |   122.90
    5 C                |   7 N                |   8 H                |   117.74
    5 C                |   7 N                |   9 C                |   125.06
    8 H                |   7 N                |   9 C                |   117.19
    7 N                |   9 C                |  10 H                |   107.71
    7 N                |   9 C                |  11 C                |   107.84
    7 N                |   9 C                |  15 C                |   113.85
   10 H                |   9 C                |  11 C                |   107.46
   10 H                |   9 C                |  15 C                |   106.22
   11 C                |   9 C                |  15 C                |   113.42
    9 C                |  11 C                |  12 H                |   110.12
    9 C                |  11 C                |  13 H                |   109.58
    9 C                |  11 C                |  14 H                |   110.10
   12 H                |  11 C                |  13 H                |   108.82
   12 H                |  11 C                |  14 H                |   109.55
   13 H                |  11 C                |  14 H                |   108.64
    9 C                |  15 C                |  16 O                |   120.55
    9 C                |  15 C                |  17 N                |   117.33
   16 O                |  15 C                |  17 N                |   122.11
   15 C                |  17 N                |  18 H                |   115.18
   15 C                |  17 N                |  19 C                |   128.79
   18 H                |  17 N                |  19 C                |   116.04
   17 N                |  19 C                |  20 H                |   106.16
   17 N                |  19 C                |  21 C                |   111.86
   17 N                |  19 C                |  31 C                |   115.16
   20 H                |  19 C                |  21 C                |   105.89
   20 H                |  19 C                |  31 C                |   104.72
   21 C                |  19 C                |  31 C                |   112.14
   19 C                |  21 C                |  22 H                |   109.45
   19 C                |  21 C                |  23 C                |   112.21
   19 C                |  21 C                |  27 C                |   111.51
   22 H                |  21 C                |  23 C                |   107.81
   22 H                |  21 C                |  27 C                |   108.43
   23 C                |  21 C                |  27 C                |   107.29
   21 C                |  23 C                |  24 H                |   110.37
   21 C                |  23 C                |  25 H                |   110.12
   21 C                |  23 C                |  26 H                |   109.96
   24 H                |  23 C                |  25 H                |   109.14
   24 H                |  23 C                |  26 H                |   107.95
   25 H                |  23 C                |  26 H                |   109.27
   21 C                |  27 C                |  28 H                |   110.30
   21 C                |  27 C                |  29 H                |   109.84
   21 C                |  27 C                |  30 H                |   110.16
   28 H                |  27 C                |  29 H                |   107.91
   28 H                |  27 C                |  30 H                |   109.36
   29 H                |  27 C                |  30 H                |   109.24
   19 C                |  31 C                |  32 O                |   119.96
   19 C                |  31 C                |  33 N                |   120.11
   32 O                |  31 C                |  33 N                |   119.89
   31 C                |  33 N                |  34 H                |   119.21
   31 C                |  33 N                |  35 H                |   118.73
   34 H                |  33 N                |  35 H                |   122.04
 ------------------------------------------------------------------------------
                            number of included internuclear angles:         60
 ==============================================================================



  library name resolved from: environment
  library file name is: </opt/rit/el9/20230413/app/linux-rhel9-x86_64_v3/gcc-11.2.1/nwchem-7.2.0-oxtctbuhfuzyfaoziquq6bki22grib3g/share/nwchem/libraries/>
  


 Summary of "ao basis" -> "" (cartesian)
 ------------------------------------------------------------------------------
       Tag                 Description            Shells   Functions and Types
 ---------------- ------------------------------  ------  ---------------------
 *                        aug-cc-pvdz                 on all atoms 


                      Basis "ao basis" -> "ao basis" (cartesian)
                      -----
  H (Hydrogen)
  ------------
            Exponent  Coefficients 
       -------------- ---------------------------------------------------------
  1 S  1.30100000E+01  0.019685
  1 S  1.96200000E+00  0.137977
  1 S  4.44600000E-01  0.478148

  2 S  1.22000000E-01  1.000000

  3 S  2.97400000E-02  1.000000

  4 P  7.27000000E-01  1.000000

  5 P  1.41000000E-01  1.000000

  C (Carbon)
  ----------
            Exponent  Coefficients 
       -------------- ---------------------------------------------------------
  1 S  6.66500000E+03  0.000692
  1 S  1.00000000E+03  0.005329
  1 S  2.28000000E+02  0.027077
  1 S  6.47100000E+01  0.101718
  1 S  2.10600000E+01  0.274740
  1 S  7.49500000E+00  0.448564
  1 S  2.79700000E+00  0.285074
  1 S  5.21500000E-01  0.015204

  2 S  6.66500000E+03 -0.000146
  2 S  1.00000000E+03 -0.001154
  2 S  2.28000000E+02 -0.005725
  2 S  6.47100000E+01 -0.023312
  2 S  2.10600000E+01 -0.063955
  2 S  7.49500000E+00 -0.149981
  2 S  2.79700000E+00 -0.127262
  2 S  5.21500000E-01  0.544529

  3 S  1.59600000E-01  1.000000

  4 S  4.69000000E-02  1.000000

  5 P  9.43900000E+00  0.038109
  5 P  2.00200000E+00  0.209480
  5 P  5.45600000E-01  0.508557

  6 P  1.51700000E-01  1.000000

  7 P  4.04100000E-02  1.000000

  8 D  5.50000000E-01  1.000000

  9 D  1.51000000E-01  1.000000

  O (Oxygen)
  ----------
            Exponent  Coefficients 
       -------------- ---------------------------------------------------------
  1 S  1.17200000E+04  0.000710
  1 S  1.75900000E+03  0.005470
  1 S  4.00800000E+02  0.027837
  1 S  1.13700000E+02  0.104800
  1 S  3.70300000E+01  0.283062
  1 S  1.32700000E+01  0.448719
  1 S  5.02500000E+00  0.270952
  1 S  1.01300000E+00  0.015458

  2 S  1.17200000E+04 -0.000160
  2 S  1.75900000E+03 -0.001263
  2 S  4.00800000E+02 -0.006267
  2 S  1.13700000E+02 -0.025716
  2 S  3.70300000E+01 -0.070924
  2 S  1.32700000E+01 -0.165411
  2 S  5.02500000E+00 -0.116955
  2 S  1.01300000E+00  0.557368

  3 S  3.02300000E-01  1.000000

  4 S  7.89600000E-02  1.000000

  5 P  1.77000000E+01  0.043018
  5 P  3.85400000E+00  0.228913
  5 P  1.04600000E+00  0.508728

  6 P  2.75300000E-01  1.000000

  7 P  6.85600000E-02  1.000000

  8 D  1.18500000E+00  1.000000

  9 D  3.32000000E-01  1.000000

  N (Nitrogen)
  ------------
            Exponent  Coefficients 
       -------------- ---------------------------------------------------------
  1 S  9.04600000E+03  0.000700
  1 S  1.35700000E+03  0.005389
  1 S  3.09300000E+02  0.027406
  1 S  8.77300000E+01  0.103207
  1 S  2.85600000E+01  0.278723
  1 S  1.02100000E+01  0.448540
  1 S  3.83800000E+00  0.278238
  1 S  7.46600000E-01  0.015440

  2 S  9.04600000E+03 -0.000153
  2 S  1.35700000E+03 -0.001208
  2 S  3.09300000E+02 -0.005992
  2 S  8.77300000E+01 -0.024544
  2 S  2.85600000E+01 -0.067459
  2 S  1.02100000E+01 -0.158078
  2 S  3.83800000E+00 -0.121831
  2 S  7.46600000E-01  0.549003

  3 S  2.24800000E-01  1.000000

  4 S  6.12400000E-02  1.000000

  5 P  1.35500000E+01  0.039919
  5 P  2.91700000E+00  0.217169
  5 P  7.97300000E-01  0.510319

  6 P  2.18500000E-01  1.000000

  7 P  5.61100000E-02  1.000000

  8 D  8.17000000E-01  1.000000

  9 D  2.30000000E-01  1.000000



 Summary of "ao basis" -> "ao basis" (cartesian)
 ------------------------------------------------------------------------------
       Tag                 Description            Shells   Functions and Types
 ---------------- ------------------------------  ------  ---------------------
 H                        aug-cc-pvdz                5        9   3s2p
 C                        aug-cc-pvdz                9       25   4s3p2d
 O                        aug-cc-pvdz                9       25   4s3p2d
 N                        aug-cc-pvdz                9       25   4s3p2d


                                 NWChem SCF Module
                                 -----------------



  ao basis        = "ao basis"
  functions       =   571
  atoms           =    35
  closed shells   =    62
  open shells     =     0
  charge          =   0.00
  wavefunction    = RHF 
  input vectors   = atomic
  output vectors  = ./ALA_VAL_1.movecs
  use symmetry    = F
  symmetry adapt  = F


 Summary of "ao basis" -> "ao basis" (cartesian)
 ------------------------------------------------------------------------------
       Tag                 Description            Shells   Functions and Types
 ---------------- ------------------------------  ------  ---------------------
 H                        aug-cc-pvdz                5        9   3s2p
 C                        aug-cc-pvdz                9       25   4s3p2d
 O                        aug-cc-pvdz                9       25   4s3p2d
 N                        aug-cc-pvdz                9       25   4s3p2d



 Forming initial guess at       0.5s


 !! The overlap matrix has   5 vectors deemed linearly dependent with
    eigenvalues:
 2.22D-06 2.99D-06 7.87D-06 9.27D-06 9.51D-06


      Superposition of Atomic Density Guess
      -------------------------------------

 Sum of atomic energies:        -773.36615600

      Non-variational initial energy
      ------------------------------

 Total energy =    -784.006706
 1-e energy   =   -3444.326833
 2-e energy   =    1454.780328
 HOMO         =      -0.306328
 LUMO         =       0.003539


 Starting SCF solution at     456.0s



 ----------------------------------------------
         Quadratically convergent ROHF

 Convergence threshold     :          1.000E-04
 Maximum no. of iterations :           30
 Final Fock-matrix accuracy:          1.000E-10
 ----------------------------------------------


              iter       energy          gnorm     gmax       time
             ----- ------------------- --------- --------- --------
                 1     -777.4930106342  2.38D+00  1.85D-01    934.1
                 2     -777.7953386292  8.18D-01  3.47D-02   1896.1
                 3     -777.8537180545  6.14D-02  4.59D-03   3678.1
                 4     -777.8542947003  1.83D-03  1.11D-04   6642.2
                 5     -777.8542951305  4.85D-06  3.87D-07  10779.6


       Final RHF  results 
       ------------------ 

         Total SCF energy =   -777.854295130524
      One-electron energy =  -3456.667773920393
      Two-electron energy =   1473.273679862213
 Nuclear repulsion energy =   1205.539798927656

        Time for solution =  10325.3s


             Final eigenvalues
             -----------------

              1      
    1  -20.5496
    2  -20.5419
    3  -20.5094
    4  -15.6235
    5  -15.5967
    6  -15.5718
    7  -11.3790
    8  -11.3725
    9  -11.3434
   10  -11.3151
   11  -11.2905
   12  -11.2598
   13  -11.2522
   14  -11.2360
   15  -11.2176
   16  -11.2121
   17   -1.4162
   18   -1.4014
   19   -1.3725
   20   -1.2711
   21   -1.2413
   22   -1.2018
   23   -1.0905
   24   -1.0706
   25   -1.0098
   26   -0.9748
   27   -0.9262
   28   -0.8986
   29   -0.8323
   30   -0.8132
   31   -0.8028
   32   -0.7566
   33   -0.7487
   34   -0.7249
   35   -0.7016
   36   -0.6915
   37   -0.6720
   38   -0.6462
   39   -0.6364
   40   -0.6225
   41   -0.6156
   42   -0.6029
   43   -0.5908
   44   -0.5880
   45   -0.5752
   46   -0.5650
   47   -0.5540
   48   -0.5495
   49   -0.5483
   50   -0.5430
   51   -0.5372
   52   -0.5281
   53   -0.5232
   54   -0.4899
   55   -0.4770
   56   -0.4651
   57   -0.4557
   58   -0.4431
   59   -0.4271
   60   -0.4100
   61   -0.3934
   62   -0.3836
   63    0.0213
   64    0.0368
   65    0.0385
   66    0.0414
   67    0.0505
   68    0.0536
   69    0.0569
   70    0.0574
   71    0.0628
   72    0.0705

                       ROHF Final Molecular Orbital Analysis
                       -------------------------------------

 Vector   17  Occ=2.000000D+00  E=-1.416220D+00
              MO Center= -8.8D-01, -2.3D+00,  7.8D-01, r^2= 1.9D+00
   Bfn.  Coefficient  Atom+Function         Bfn.  Coefficient  Atom+Function  
  ----- ------------  ---------------      ----- ------------  ---------------
    80      0.339744   6 O  s                79      0.333469   6 O  s         
    54      0.233801   5 C  s                12      0.187640   2 C  s         

 Vector   18  Occ=2.000000D+00  E=-1.401351D+00
              MO Center=  1.2D+00, -1.8D-01, -3.4D-01, r^2= 2.2D+00
   Bfn.  Coefficient  Atom+Function         Bfn.  Coefficient  Atom+Function  
  ----- ------------  ---------------      ----- ------------  ---------------
   250      0.366710  16 O  s               249      0.342132  16 O  s         
   224      0.227013  15 C  s         

 Vector   19  Occ=2.000000D+00  E=-1.372518D+00
              MO Center= -1.2D+00,  2.3D+00, -1.5D+00, r^2= 1.1D+00
   Bfn.  Coefficient  Atom+Function         Bfn.  Coefficient  Atom+Function  
  ----- ------------  ---------------      ----- ------------  ---------------
   506      0.378089  32 O  s               505      0.349868  32 O  s         
   480      0.246265  31 C  s         

 Vector   20  Occ=2.000000D+00  E=-1.271146D+00
              MO Center= -6.8D-02, -2.5D+00, -1.8D-02, r^2= 1.9D+00
   Bfn.  Coefficient  Atom+Function         Bfn.  Coefficient  Atom+Function  
  ----- ------------  ---------------      ----- ------------  ---------------
   105      0.399012   7 N  s               104      0.339538   7 N  s         
    80     -0.215788   6 O  s                79     -0.180925   6 O  s         
   128      0.156565   8 H  s         

 Vector   21  Occ=2.000000D+00  E=-1.241282D+00
              MO Center=  1.2D-01,  1.6D-01,  1.2D-01, r^2= 2.2D+00
   Bfn.  Coefficient  Atom+Function         Bfn.  Coefficient  Atom+Function  
  ----- ------------  ---------------      ----- ------------  ---------------
   275      0.409032  17 N  s               274      0.341163  17 N  s         
   250     -0.198670  16 O  s               227     -0.166274  15 C  px        
   249     -0.156005  16 O  s               298      0.151298  18 H  s         

 Vector   22  Occ=2.000000D+00  E=-1.201843D+00
              MO Center= -1.7D-01,  1.8D+00, -1.9D+00, r^2= 1.5D+00
   Bfn.  Coefficient  Atom+Function         Bfn.  Coefficient  Atom+Function  
  ----- ------------  ---------------      ----- ------------  ---------------
   531      0.380928  33 N  s               530      0.367703  33 N  s         
   506     -0.214724  32 O  s               483      0.185859  31 C  px        
   505     -0.177644  32 O  s               554      0.163496  34 H  s         
   309     -0.162485  19 C  s               563      0.157757  35 H  s         

 Vector   23  Occ=2.000000D+00  E=-1.090497D+00
              MO Center=  2.2D-01,  1.2D+00,  6.7D-01, r^2= 6.8D+00
   Bfn.  Coefficient  Atom+Function         Bfn.  Coefficient  Atom+Function  
  ----- ------------  ---------------      ----- ------------  ---------------
   309      0.308808  19 C  s               342      0.227029  21 C  s         
   308      0.162008  19 C  s               343     -0.159094  21 C  s         

 Vector   24  Occ=2.000000D+00  E=-1.070561D+00
              MO Center=  5.1D-01, -1.3D+00,  1.7D-01, r^2= 8.7D+00
   Bfn.  Coefficient  Atom+Function         Bfn.  Coefficient  Atom+Function  
  ----- ------------  ---------------      ----- ------------  ---------------
   309      0.248782  19 C  s               138      0.211839   9 C  s         
   172      0.187428  11 C  s               144      0.176225   9 C  px        
    12     -0.153174   2 C  s         

 Vector   25  Occ=2.000000D+00  E=-1.009815D+00
              MO Center= -9.8D-01, -3.3D+00, -2.0D-01, r^2= 4.9D+00
   Bfn.  Coefficient  Atom+Function         Bfn.  Coefficient  Atom+Function  
  ----- ------------  ---------------      ----- ------------  ---------------
    11      0.316255   2 C  s               144      0.176495   9 C  px        
    55      0.162408   5 C  s               172      0.162982  11 C  s         

 Vector   26  Occ=2.000000D+00  E=-9.747819D-01
              MO Center=  1.1D-01,  1.2D+00,  3.9D-01, r^2= 6.0D+00
   Bfn.  Coefficient  Atom+Function         Bfn.  Coefficient  Atom+Function  
  ----- ------------  ---------------      ----- ------------  ---------------
   308      0.252404  19 C  s               316     -0.246020  19 C  pz        
   350     -0.190557  21 C  pz              349     -0.181256  21 C  py        
   333      0.176597  20 H  s               343      0.161326  21 C  s         
   428     -0.156584  27 C  s               309     -0.151134  19 C  s         

 Vector   27  Occ=2.000000D+00  E=-9.261622D-01
              MO Center=  2.2D-01,  2.8D+00,  1.6D+00, r^2= 3.9D+00
   Bfn.  Coefficient  Atom+Function         Bfn.  Coefficient  Atom+Function  
  ----- ------------  ---------------      ----- ------------  ---------------
   349      0.308419  21 C  py              428     -0.270389  27 C  s         
   376      0.267512  23 C  s               350     -0.218395  21 C  pz        
   276     -0.184531  17 N  s               383      0.173925  23 C  py        
   436     -0.159528  27 C  pz        

 Vector   28  Occ=2.000000D+00  E=-8.985940D-01
              MO Center=  1.1D+00, -1.3D+00, -2.2D-01, r^2= 7.7D+00
   Bfn.  Coefficient  Atom+Function         Bfn.  Coefficient  Atom+Function  
  ----- ------------  ---------------      ----- ------------  ---------------
   139      0.296085   9 C  s               172     -0.233683  11 C  s         
   145      0.230828   9 C  py              225     -0.191978  15 C  s         
   138      0.188543   9 C  s               173     -0.177720  11 C  s         

 Vector   29  Occ=2.000000D+00  E=-8.323012D-01
              MO Center= -1.4D-01, -2.1D+00, -1.8D-01, r^2= 5.2D+00
   Bfn.  Coefficient  Atom+Function         Bfn.  Coefficient  Atom+Function  
  ----- ------------  ---------------      ----- ------------  ---------------
   107      0.257434   7 N  px              139     -0.234323   9 C  s         
   128      0.211906   8 H  s                54     -0.206438   5 C  s         
   109     -0.199751   7 N  pz              309     -0.186314  19 C  s         
   105      0.166116   7 N  s                80      0.161012   6 O  s         
    60     -0.153531   5 C  px        

 Vector   30  Occ=2.000000D+00  E=-8.132313D-01
              MO Center=  6.2D-02, -7.6D-02, -5.4D-01, r^2= 6.2D+00
   Bfn.  Coefficient  Atom+Function         Bfn.  Coefficient  Atom+Function  
  ----- ------------  ---------------      ----- ------------  ---------------
   309      0.297205  19 C  s               277      0.196818  17 N  px        
   128      0.176500   8 H  s               535      0.169578  33 N  pz        
   109     -0.168340   7 N  pz              480      0.163952  31 C  s         

 Vector   31  Occ=2.000000D+00  E=-8.027759D-01
              MO Center=  1.2D-01,  2.1D+00,  4.7D-01, r^2= 5.4D+00
   Bfn.  Coefficient  Atom+Function         Bfn.  Coefficient  Atom+Function  
  ----- ------------  ---------------      ----- ------------  ---------------
   429      0.321687  27 C  s               377      0.298444  23 C  s         
   343     -0.273807  21 C  s               342     -0.214243  21 C  s         
   309      0.181602  19 C  s               316     -0.179143  19 C  pz        
   366     -0.164006  22 H  s         

 Vector   32  Occ=2.000000D+00  E=-7.565964D-01
              MO Center=  2.6D-02,  1.2D+00, -4.4D-01, r^2= 6.1D+00
   Bfn.  Coefficient  Atom+Function         Bfn.  Coefficient  Atom+Function  
  ----- ------------  ---------------      ----- ------------  ---------------
   481      0.326261  31 C  s               309     -0.290374  19 C  s         
   533     -0.208005  33 N  px              343      0.199038  21 C  s         
   482     -0.190781  31 C  s               275      0.184094  17 N  s         
   485     -0.177500  31 C  pz              298      0.168022  18 H  s         
   554     -0.166286  34 H  s               145     -0.150354   9 C  py        

 Vector   33  Occ=2.000000D+00  E=-7.486959D-01
              MO Center=  4.9D-01, -6.2D-01, -4.2D-01, r^2= 6.1D+00
   Bfn.  Coefficient  Atom+Function         Bfn.  Coefficient  Atom+Function  
  ----- ------------  ---------------      ----- ------------  ---------------
   145      0.324787   9 C  py              225     -0.242960  15 C  s         
   139      0.195395   9 C  s               142      0.193596   9 C  py        
   253     -0.175786  16 O  py              109     -0.171737   7 N  pz        
   228     -0.167662  15 C  py        

 Vector   34  Occ=2.000000D+00  E=-7.248675D-01
              MO Center=  9.5D-02,  4.7D-01, -7.2D-01, r^2= 6.2D+00
   Bfn.  Coefficient  Atom+Function         Bfn.  Coefficient  Atom+Function  
  ----- ------------  ---------------      ----- ------------  ---------------
   554     -0.224888  34 H  s               533     -0.213673  33 N  px        
   278      0.204474  17 N  py              225      0.169302  15 C  s         
   298     -0.155698  18 H  s               563      0.156440  35 H  s         

 Vector   35  Occ=2.000000D+00  E=-7.016162D-01
              MO Center= -7.6D-01, -1.8D+00, -6.9D-02, r^2= 8.3D+00
   Bfn.  Coefficient  Atom+Function         Bfn.  Coefficient  Atom+Function  
  ----- ------------  ---------------      ----- ------------  ---------------
    57      0.218978   5 C  px              225      0.204645  15 C  s         
    55      0.179262   5 C  s                17     -0.163990   2 C  px        
   481     -0.161772  31 C  s                18     -0.157198   2 C  py        
    83      0.153622   6 O  py               80      0.150961   6 O  s         
   309      0.151586  19 C  s         

 Vector   36  Occ=2.000000D+00  E=-6.915228D-01
              MO Center=  1.8D-01, -2.1D+00,  3.0D-01, r^2= 4.6D+00
   Bfn.  Coefficient  Atom+Function         Bfn.  Coefficient  Atom+Function  
  ----- ------------  ---------------      ----- ------------  ---------------
    84      0.224767   6 O  pz              108     -0.219858   7 N  py        
   144      0.219517   9 C  px              143      0.209279   9 C  pz        
   162      0.201904  10 H  s                80      0.186026   6 O  s         
   139      0.159606   9 C  s               141      0.159896   9 C  px        

 Vector   37  Occ=2.000000D+00  E=-6.720457D-01
              MO Center=  1.6D-02,  3.6D-01, -4.4D-01, r^2= 7.3D+00
   Bfn.  Coefficient  Atom+Function         Bfn.  Coefficient  Atom+Function  
  ----- ------------  ---------------      ----- ------------  ---------------
   309      0.348154  19 C  s               315      0.235460  19 C  py        
   278     -0.218941  17 N  py              481     -0.185154  31 C  s         
   250      0.181834  16 O  s               312      0.174749  19 C  py        
   139     -0.171646   9 C  s               253      0.158673  16 O  py        
   227     -0.155189  15 C  px              506     -0.154213  32 O  s         

 Vector   38  Occ=2.000000D+00  E=-6.461594D-01
              MO Center= -1.3D-01,  2.1D+00,  8.4D-02, r^2= 5.2D+00
   Bfn.  Coefficient  Atom+Function         Bfn.  Coefficient  Atom+Function  
  ----- ------------  ---------------      ----- ------------  ---------------
   309      0.219974  19 C  s               343     -0.219696  21 C  s         
   535      0.206164  33 N  pz              345     -0.204235  21 C  px        
   313      0.189314  19 C  pz              488     -0.164385  31 C  pz        
   563     -0.165004  35 H  s               366     -0.161398  22 H  s         
   483      0.152687  31 C  px        

 Vector   39  Occ=2.000000D+00  E=-6.363688D-01
              MO Center= -1.1D+00, -2.6D+00, -3.4D-02, r^2= 6.4D+00
   Bfn.  Coefficient  Atom+Function         Bfn.  Coefficient  Atom+Function  
  ----- ------------  ---------------      ----- ------------  ---------------
   139      0.363641   9 C  s                15      0.233247   2 C  py        
   225     -0.217891  15 C  s                 1     -0.210992   1 H  s         
    44      0.205930   4 H  s                16     -0.157077   2 C  pz        
    83      0.153154   6 O  py              284      0.153735  17 N  py        
   333     -0.150645  20 H  s         

 Vector   40  Occ=2.000000D+00  E=-6.224656D-01
              MO Center=  8.5D-01, -1.4D-01, -4.6D-02, r^2= 8.8D+00
   Bfn.  Coefficient  Atom+Function         Bfn.  Coefficient  Atom+Function  
  ----- ------------  ---------------      ----- ------------  ---------------
   252      0.250979  16 O  px              145      0.222380   9 C  py        
   333     -0.178456  20 H  s               228     -0.156460  15 C  py        
   309      0.154775  19 C  s               250      0.153602  16 O  s         

 Vector   41  Occ=2.000000D+00  E=-6.156303D-01
              MO Center=  8.2D-02,  6.6D-01,  4.1D-01, r^2= 8.6D+00
   Bfn.  Coefficient  Atom+Function         Bfn.  Coefficient  Atom+Function  
  ----- ------------  ---------------      ----- ------------  ---------------
   254      0.180443  16 O  pz              279      0.167764  17 N  pz        
   227      0.166141  15 C  px               84     -0.160880   6 O  pz        
   364     -0.161069  21 C  dyz             276      0.155206  17 N  s         
   452      0.153378  28 H  s         

 Vector   42  Occ=2.000000D+00  E=-6.029144D-01
              MO Center= -3.5D-01, -1.7D+00,  3.1D-01, r^2= 8.6D+00
   Bfn.  Coefficient  Atom+Function         Bfn.  Coefficient  Atom+Function  
  ----- ------------  ---------------      ----- ------------  ---------------
    84     -0.234500   6 O  pz               59      0.215348   5 C  pz        
    58      0.185313   5 C  py              128      0.164104   8 H  s         
    82      0.160877   6 O  px              139      0.157356   9 C  s         
   145      0.154183   9 C  py               14     -0.150490   2 C  px        

 Vector   43  Occ=2.000000D+00  E=-5.908496D-01
              MO Center= -9.5D-01, -5.6D-01, -5.1D-01, r^2= 1.3D+01
   Bfn.  Coefficient  Atom+Function         Bfn.  Coefficient  Atom+Function  
  ----- ------------  ---------------      ----- ------------  ---------------
   508      0.259619  32 O  px               35     -0.205403   3 H  s         
    16     -0.199742   2 C  pz              506     -0.184501  32 O  s         
    36     -0.178829   3 H  s               483     -0.173583  31 C  px        
   333     -0.164044  20 H  s               276      0.154411  17 N  s         
   175     -0.152869  11 C  px        

 Vector   44  Occ=2.000000D+00  E=-5.879768D-01
              MO Center= -1.1D+00, -5.0D-01, -4.4D-01, r^2= 1.3D+01
   Bfn.  Coefficient  Atom+Function         Bfn.  Coefficient  Atom+Function  
  ----- ------------  ---------------      ----- ------------  ---------------
   508      0.219904  32 O  px               35      0.218005   3 H  s         
    36      0.202434   3 H  s                16      0.187508   2 C  pz        
   483     -0.183265  31 C  px              506     -0.176382  32 O  s         
   509     -0.159868  32 O  py               14     -0.153473   2 C  px        

 Vector   45  Occ=2.000000D+00  E=-5.752473D-01
              MO Center=  5.1D-01,  2.9D-01,  1.3D-01, r^2= 1.0D+01
   Bfn.  Coefficient  Atom+Function         Bfn.  Coefficient  Atom+Function  
  ----- ------------  ---------------      ----- ------------  ---------------
   206      0.195984  13 H  s               482     -0.191514  31 C  s         
   176      0.156000  11 C  py              332     -0.152494  20 H  s         

 Vector   46  Occ=2.000000D+00  E=-5.649805D-01
              MO Center=  8.8D-01, -9.3D-01, -1.1D-01, r^2= 1.1D+01
   Bfn.  Coefficient  Atom+Function         Bfn.  Coefficient  Atom+Function  
  ----- ------------  ---------------      ----- ------------  ---------------
   196     -0.205736  12 H  s               177      0.198195  11 C  pz        
   197     -0.182798  12 H  s               215      0.163434  14 H  s         
   214      0.159290  14 H  s               206      0.152789  13 H  s         

 Vector   47  Occ=2.000000D+00  E=-5.540255D-01
              MO Center= -4.6D-02, -1.0D+00, -2.5D-02, r^2= 1.1D+01
   Bfn.  Coefficient  Atom+Function         Bfn.  Coefficient  Atom+Function  
  ----- ------------  ---------------      ----- ------------  ---------------
   108      0.181439   7 N  py               14      0.179674   2 C  px        
   206      0.180293  13 H  s               482     -0.180242  31 C  s         
   276      0.168518  17 N  s               453     -0.168988  28 H  s         
   139      0.163687   9 C  s               254      0.163826  16 O  pz        
     1      0.158081   1 H  s         

 Vector   48  Occ=2.000000D+00  E=-5.494663D-01
              MO Center=  1.2D+00, -1.2D+00, -9.9D-02, r^2= 9.2D+00
   Bfn.  Coefficient  Atom+Function         Bfn.  Coefficient  Atom+Function  
  ----- ------------  ---------------      ----- ------------  ---------------
   176      0.295955  11 C  py              214     -0.261075  14 H  s         
   206      0.234807  13 H  s               215     -0.211993  14 H  s         
   205      0.205567  13 H  s                12      0.171036   2 C  s         
    55     -0.167619   5 C  s               311     -0.166007  19 C  px        
   332      0.162933  20 H  s               228      0.154445  15 C  py        

 Vector   49  Occ=2.000000D+00  E=-5.483448D-01
              MO Center= -4.4D-01,  7.8D-01, -1.4D-01, r^2= 1.0D+01
   Bfn.  Coefficient  Atom+Function         Bfn.  Coefficient  Atom+Function  
  ----- ------------  ---------------      ----- ------------  ---------------
   482      0.221634  31 C  s               484     -0.191718  31 C  py        
   139      0.186227   9 C  s               508     -0.179651  32 O  px        

 Vector   50  Occ=2.000000D+00  E=-5.429800D-01
              MO Center= -1.0D-01, -1.2D+00,  9.0D-02, r^2= 1.0D+01
   Bfn.  Coefficient  Atom+Function         Bfn.  Coefficient  Atom+Function  
  ----- ------------  ---------------      ----- ------------  ---------------
   175      0.201641  11 C  px              141     -0.186564   9 C  px        
    83     -0.173240   6 O  py               44      0.154764   4 H  s         
   107      0.150510   7 N  px        

 Vector   51  Occ=2.000000D+00  E=-5.372309D-01
              MO Center= -6.4D-02,  2.2D+00,  1.2D+00, r^2= 7.3D+00
   Bfn.  Coefficient  Atom+Function         Bfn.  Coefficient  Atom+Function  
  ----- ------------  ---------------      ----- ------------  ---------------
   471      0.266591  30 H  s               470      0.258694  30 H  s         
   431     -0.247428  27 C  px              409     -0.228883  25 H  s         
   379      0.199790  23 C  px              482      0.194823  31 C  s         
   381     -0.175152  23 C  pz              276     -0.153382  17 N  s         
   284     -0.153414  17 N  py              410     -0.151091  25 H  s         

 Vector   52  Occ=2.000000D+00  E=-5.280559D-01
              MO Center=  7.6D-01,  6.1D-01,  6.4D-01, r^2= 1.2D+01
   Bfn.  Coefficient  Atom+Function         Bfn.  Coefficient  Atom+Function  
  ----- ------------  ---------------      ----- ------------  ---------------
   174      0.242616  11 C  s               143      0.215612   9 C  pz        
   418     -0.214353  26 H  s               178      0.203632  11 C  px        
   419     -0.202708  26 H  s               177     -0.199818  11 C  pz        
   162      0.188939  10 H  s               379     -0.185429  23 C  px        
   196      0.179048  12 H  s               462      0.168499  29 H  s         

 Vector   53  Occ=2.000000D+00  E=-5.232246D-01
              MO Center=  7.8D-01,  8.2D-01,  4.3D-01, r^2= 1.1D+01
   Bfn.  Coefficient  Atom+Function         Bfn.  Coefficient  Atom+Function  
  ----- ------------  ---------------      ----- ------------  ---------------
   462      0.232318  29 H  s               143     -0.192353   9 C  pz        
   418     -0.188460  26 H  s               173      0.182648  11 C  s         
   162     -0.177266  10 H  s               419     -0.177771  26 H  s         
   461      0.175695  29 H  s               284      0.164556  17 N  py        
   197     -0.161218  12 H  s               177      0.156838  11 C  pz        

 Vector   54  Occ=2.000000D+00  E=-4.898705D-01
              MO Center=  7.5D-02,  2.1D+00,  6.9D-01, r^2= 5.6D+00
   Bfn.  Coefficient  Atom+Function         Bfn.  Coefficient  Atom+Function  
  ----- ------------  ---------------      ----- ------------  ---------------
   315      0.225673  19 C  py              347     -0.220372  21 C  pz        
   433      0.200070  27 C  pz              482      0.182882  31 C  s         
   453     -0.181603  28 H  s               312      0.180222  19 C  py        
   311      0.177851  19 C  px              401     -0.177103  24 H  s         
   461      0.170303  29 H  s               309      0.164767  19 C  s         

 Vector   55  Occ=2.000000D+00  E=-4.770453D-01
              MO Center=  4.0D-01,  1.7D+00,  7.4D-01, r^2= 6.5D+00
   Bfn.  Coefficient  Atom+Function         Bfn.  Coefficient  Atom+Function  
  ----- ------------  ---------------      ----- ------------  ---------------
   366      0.264146  22 H  s               345      0.239647  21 C  px        
   367      0.218919  22 H  s               253      0.217153  16 O  py        
   409      0.184955  25 H  s               256      0.178310  16 O  py        
   379     -0.168964  23 C  px              410      0.169633  25 H  s         
   471      0.164653  30 H  s               429     -0.157905  27 C  s         

 Vector   56  Occ=2.000000D+00  E=-4.650693D-01
              MO Center=  1.7D-01,  2.6D+00,  1.2D+00, r^2= 4.1D+00
   Bfn.  Coefficient  Atom+Function         Bfn.  Coefficient  Atom+Function  
  ----- ------------  ---------------      ----- ------------  ---------------
   453      0.268218  28 H  s               346      0.266738  21 C  py        
   380     -0.253678  23 C  py              383     -0.246190  23 C  py        
   452      0.229474  28 H  s               432     -0.225396  27 C  py        
   436      0.221230  27 C  pz              400     -0.216118  24 H  s         
   401     -0.181761  24 H  s               316     -0.180642  19 C  pz        

 Vector   57  Occ=2.000000D+00  E=-4.557261D-01
              MO Center= -5.1D-02, -6.8D-01,  4.9D-01, r^2= 8.1D+00
   Bfn.  Coefficient  Atom+Function         Bfn.  Coefficient  Atom+Function  
  ----- ------------  ---------------      ----- ------------  ---------------
    82      0.315680   6 O  px               85      0.250373   6 O  px        
   253      0.233084  16 O  py              139      0.213587   9 C  s         
   367     -0.212734  22 H  s               256      0.197948  16 O  py        
   109     -0.163599   7 N  pz              366     -0.162871  22 H  s         
   252     -0.155125  16 O  px              108      0.153197   7 N  py        

 Vector   58  Occ=2.000000D+00  E=-4.430520D-01
              MO Center= -8.3D-01, -1.9D+00,  6.7D-01, r^2= 5.1D+00
   Bfn.  Coefficient  Atom+Function         Bfn.  Coefficient  Atom+Function  
  ----- ------------  ---------------      ----- ------------  ---------------
    82      0.377835   6 O  px               85      0.308437   6 O  px        
    83      0.296099   6 O  py               86      0.238458   6 O  py        
   105     -0.192017   7 N  s               226      0.186890  15 C  s         
   107      0.175052   7 N  px              144     -0.170941   9 C  px        
   276     -0.169667  17 N  s                13     -0.168540   2 C  s         

 Vector   59  Occ=2.000000D+00  E=-4.271028D-01
              MO Center= -4.2D-01,  1.3D+00, -6.4D-01, r^2= 5.8D+00
   Bfn.  Coefficient  Atom+Function         Bfn.  Coefficient  Atom+Function  
  ----- ------------  ---------------      ----- ------------  ---------------
   510      0.376826  32 O  pz              513      0.302638  32 O  pz        
   333      0.293216  20 H  s               481     -0.243372  31 C  s         
   254     -0.221631  16 O  pz              279      0.199831  17 N  pz        
   367      0.196180  22 H  s               282      0.185777  17 N  pz        
   276     -0.183384  17 N  s               343     -0.176246  21 C  s         

 Vector   60  Occ=2.000000D+00  E=-4.100414D-01
              MO Center=  4.9D-01, -1.3D+00, -3.7D-02, r^2= 5.2D+00
   Bfn.  Coefficient  Atom+Function         Bfn.  Coefficient  Atom+Function  
  ----- ------------  ---------------      ----- ------------  ---------------
   253     -0.273968  16 O  py              108      0.268263   7 N  py        
   111      0.238558   7 N  py              256     -0.213512  16 O  py        
   145     -0.185117   9 C  py              109     -0.174447   7 N  pz        
    83     -0.170828   6 O  py              142     -0.170652   9 C  py        
   252      0.168693  16 O  px              228      0.163693  15 C  py        

 Vector   61  Occ=2.000000D+00  E=-3.933893D-01
              MO Center= -6.7D-01,  2.1D+00, -1.8D+00, r^2= 2.3D+00
   Bfn.  Coefficient  Atom+Function         Bfn.  Coefficient  Atom+Function  
  ----- ------------  ---------------      ----- ------------  ---------------
   534      0.381152  33 N  py              482      0.372433  31 C  s         
   509     -0.346564  32 O  py              537      0.338178  33 N  py        
   512     -0.276392  32 O  py              533      0.206792  33 N  px        
   430     -0.184529  27 C  s               508     -0.159940  32 O  px        
   536      0.152215  33 N  px        

 Vector   62  Occ=2.000000D+00  E=-3.836121D-01
              MO Center= -3.0D-01,  1.2D+00, -4.0D-01, r^2= 4.8D+00
   Bfn.  Coefficient  Atom+Function         Bfn.  Coefficient  Atom+Function  
  ----- ------------  ---------------      ----- ------------  ---------------
   510      0.324700  32 O  pz              279     -0.293625  17 N  pz        
   282     -0.270803  17 N  pz              513      0.253844  32 O  pz        
   481     -0.196361  31 C  s               254      0.192260  16 O  pz        
   313      0.187819  19 C  pz              488     -0.185040  31 C  pz        
   277     -0.166756  17 N  px              257      0.156368  16 O  pz        

 Vector   63  Occ=0.000000D+00  E= 2.132269D-02
              MO Center=  1.6D-01, -4.8D+00, -1.5D+00, r^2= 1.9D+01
   Bfn.  Coefficient  Atom+Function         Bfn.  Coefficient  Atom+Function  
  ----- ------------  ---------------      ----- ------------  ---------------
   234      2.917380  15 C  py              106      2.647649   7 N  s         
   226     -2.582602  15 C  s               148      2.060685   9 C  py        
   233     -1.927102  15 C  px              216      1.905727  14 H  s         
    12     -1.801953   2 C  s                 3      1.665147   1 H  s         
   140     -1.562785   9 C  s                63      1.524590   5 C  px        

 Vector   64  Occ=0.000000D+00  E= 3.683982D-02
              MO Center=  1.4D+00, -2.9D+00,  8.6D-02, r^2= 3.1D+01
   Bfn.  Coefficient  Atom+Function         Bfn.  Coefficient  Atom+Function  
  ----- ------------  ---------------      ----- ------------  ---------------
    63      3.328642   5 C  px               64      2.449053   5 C  py        
   216     -2.445288  14 H  s                46      2.217402   4 H  s         
   233      2.022376  15 C  px              482      2.017968  31 C  s         
   140     -1.980040   9 C  s               207     -1.829516  13 H  s         
    12     -1.684741   2 C  s               284     -1.678159  17 N  py        

 Vector   65  Occ=0.000000D+00  E= 3.849262D-02
              MO Center=  1.8D-01, -2.3D+00, -2.0D+00, r^2= 3.4D+01
   Bfn.  Coefficient  Atom+Function         Bfn.  Coefficient  Atom+Function  
  ----- ------------  ---------------      ----- ------------  ---------------
   147      2.632437   9 C  px              198     -2.330269  12 H  s         
    63      2.207332   5 C  px                3      2.124122   1 H  s         
   532     -2.124725  33 N  s               491     -1.849423  31 C  pz        
   276      1.783892  17 N  s               565     -1.705207  35 H  s         
    37      1.549629   3 H  s               149     -1.307128   9 C  pz        

 Vector   66  Occ=0.000000D+00  E= 4.143412D-02
              MO Center=  3.4D-01,  4.8D-01,  1.5D+00, r^2= 4.1D+01
   Bfn.  Coefficient  Atom+Function         Bfn.  Coefficient  Atom+Function  
  ----- ------------  ---------------      ----- ------------  ---------------
   482      4.696161  31 C  s               234      3.212528  15 C  py        
   532     -2.596672  33 N  s               353      2.318040  21 C  pz        
   106      2.180092   7 N  s               149      2.042295   9 C  pz        
   216      2.036206  14 H  s               174      2.020297  11 C  s         
    37     -1.774059   3 H  s               300      1.780039  18 H  s         

 Vector   67  Occ=0.000000D+00  E= 5.050947D-02
              MO Center=  3.8D-01,  6.8D-01,  1.2D+00, r^2= 4.7D+01
   Bfn.  Coefficient  Atom+Function         Bfn.  Coefficient  Atom+Function  
  ----- ------------  ---------------      ----- ------------  ---------------
   106      2.894151   7 N  s               482     -2.715916  31 C  s         
   130      2.587920   8 H  s               420      2.530470  26 H  s         
    37     -2.422053   3 H  s                56     -2.406993   5 C  s         
   318     -2.219264  19 C  py              226     -2.115311  15 C  s         
   352     -2.051480  21 C  py                3      1.938277   1 H  s         

 Vector   68  Occ=0.000000D+00  E= 5.361019D-02
              MO Center=  3.5D-01,  5.6D-01, -1.5D+00, r^2= 4.1D+01
   Bfn.  Coefficient  Atom+Function         Bfn.  Coefficient  Atom+Function  
  ----- ------------  ---------------      ----- ------------  ---------------
   174      3.033981  11 C  s               532      2.860517  33 N  s         
   226     -2.784208  15 C  s               491      2.577560  31 C  pz        
     3      2.365182   1 H  s               565      2.170387  35 H  s         
    46     -2.156601   4 H  s               402      2.088366  24 H  s         
   319      2.061488  19 C  pz              454     -2.027618  28 H  s         

 Vector   69  Occ=0.000000D+00  E= 5.694745D-02
              MO Center= -8.9D-01,  2.1D-01,  1.6D+00, r^2= 3.8D+01
   Bfn.  Coefficient  Atom+Function         Bfn.  Coefficient  Atom+Function  
  ----- ------------  ---------------      ----- ------------  ---------------
   300      3.147081  18 H  s               226     -2.866843  15 C  s         
    13      2.849867   2 C  s               472      2.525009  30 H  s         
   113      2.485330   7 N  px               37      2.325869   3 H  s         
   216      2.152088  14 H  s               148      2.102923   9 C  py        
   234      2.010599  15 C  py              454     -1.972931  28 H  s         

 Vector   70  Occ=0.000000D+00  E= 5.735075D-02
              MO Center=  1.3D+00, -1.2D+00,  2.2D-01, r^2= 4.0D+01
   Bfn.  Coefficient  Atom+Function         Bfn.  Coefficient  Atom+Function  
  ----- ------------  ---------------      ----- ------------  ---------------
   164      5.363486  10 H  s                63     -3.472281   5 C  px        
   149     -3.413050   9 C  pz              207     -2.897521  13 H  s         
    56     -2.691879   5 C  s                37     -2.273808   3 H  s         
    13     -2.054642   2 C  s               420     -1.923457  26 H  s         
   148     -1.844249   9 C  py              130      1.815810   8 H  s         

 Vector   71  Occ=0.000000D+00  E= 6.283881D-02
              MO Center= -8.1D-02, -1.2D+00, -6.1D-01, r^2= 4.4D+01
   Bfn.  Coefficient  Atom+Function         Bfn.  Coefficient  Atom+Function  
  ----- ------------  ---------------      ----- ------------  ---------------
    46      3.870748   4 H  s               198     -3.406008  12 H  s         
   216      3.324456  14 H  s                 3     -2.497918   1 H  s         
   352     -2.454011  21 C  py              420      1.978708  26 H  s         
   234     -1.558443  15 C  py               37     -1.488839   3 H  s         
   463     -1.473447  29 H  s               472     -1.364549  30 H  s         

 Vector   72  Occ=0.000000D+00  E= 7.051145D-02
              MO Center= -3.5D-01, -4.8D-01,  1.2D+00, r^2= 4.8D+01
   Bfn.  Coefficient  Atom+Function         Bfn.  Coefficient  Atom+Function  
  ----- ------------  ---------------      ----- ------------  ---------------
   207     -4.554345  13 H  s                13      4.450830   2 C  s         
   140     -4.016060   9 C  s                37      3.827357   3 H  s         
   226     -3.667531  15 C  s               411     -3.491658  25 H  s         
   113      3.157545   7 N  px                3     -3.084743   1 H  s         
    63      3.014891   5 C  px              234      2.401735  15 C  py        

 Vector   73  Occ=0.000000D+00  E= 7.253314D-02
              MO Center=  1.2D+00,  2.7D-01,  3.5D-01, r^2= 4.4D+01
   Bfn.  Coefficient  Atom+Function         Bfn.  Coefficient  Atom+Function  
  ----- ------------  ---------------      ----- ------------  ---------------
   482      4.853821  31 C  s               164      4.603624  10 H  s         
   216     -4.539448  14 H  s               463     -4.293121  29 H  s         
   378     -3.653402  23 C  s               149     -3.180957   9 C  pz        
    63     -3.082510   5 C  px               13     -2.865451   2 C  s         
    64     -2.282712   5 C  py              310      2.246517  19 C  s         

 Vector   74  Occ=0.000000D+00  E= 7.693027D-02
              MO Center=  3.5D-01,  7.7D-01,  3.9D-01, r^2= 3.8D+01
   Bfn.  Coefficient  Atom+Function         Bfn.  Coefficient  Atom+Function  
  ----- ------------  ---------------      ----- ------------  ---------------
   368      5.975743  22 H  s               334      4.711481  20 H  s         
   317      3.958278  19 C  px              198     -3.516736  12 H  s         
   319     -3.440218  19 C  pz              351     -3.439265  21 C  px        
   164     -3.247781  10 H  s               353      3.250240  21 C  pz        
   174      3.216183  11 C  s               130      3.124498   8 H  s         

 Vector   75  Occ=0.000000D+00  E= 8.179645D-02
              MO Center=  5.3D-01,  1.4D+00, -1.0D-01, r^2= 4.1D+01
   Bfn.  Coefficient  Atom+Function         Bfn.  Coefficient  Atom+Function  
  ----- ------------  ---------------      ----- ------------  ---------------
    56      6.758012   5 C  s               147      5.860868   9 C  px        
   402      5.802956  24 H  s               454      5.157048  28 H  s         
   430     -4.606658  27 C  s               234      3.999344  15 C  py        
   235     -3.787191  15 C  pz              164     -3.681718  10 H  s         
   556     -3.534730  34 H  s               149      3.353943   9 C  pz        

 Vector   76  Occ=0.000000D+00  E= 8.485863D-02
              MO Center= -1.3D+00,  1.8D+00,  1.5D+00, r^2= 3.5D+01
   Bfn.  Coefficient  Atom+Function         Bfn.  Coefficient  Atom+Function  
  ----- ------------  ---------------      ----- ------------  ---------------
   472      7.306173  30 H  s               430     -4.752247  27 C  s         
   411     -4.691664  25 H  s               334     -3.990660  20 H  s         
   463     -3.852493  29 H  s               226      3.541437  15 C  s         
   437      3.092110  27 C  px               13     -2.907067   2 C  s         
   402      2.868772  24 H  s               140      2.665823   9 C  s         

 Vector   77  Occ=0.000000D+00  E= 9.019805D-02
              MO Center=  3.6D-01, -5.7D-01, -3.7D-01, r^2= 4.2D+01
   Bfn.  Coefficient  Atom+Function         Bfn.  Coefficient  Atom+Function  
  ----- ------------  ---------------      ----- ------------  ---------------
   334      5.477318  20 H  s               198      4.963591  12 H  s         
   130     -4.706636   8 H  s               207     -4.543762  13 H  s         
   317      3.581977  19 C  px              430     -3.350483  27 C  s         
   378     -3.301071  23 C  s               472     -3.178588  30 H  s         
   420     -2.932568  26 H  s               402      2.908655  24 H  s         

 Vector   78  Occ=0.000000D+00  E= 9.262048D-02
              MO Center= -3.6D-01,  1.1D+00,  2.6D-01, r^2= 4.3D+01
   Bfn.  Coefficient  Atom+Function         Bfn.  Coefficient  Atom+Function  
  ----- ------------  ---------------      ----- ------------  ---------------
   482      8.454379  31 C  s               411      6.280902  25 H  s         
    56      6.180003   5 C  s               420     -4.443333  26 H  s         
   276     -4.276196  17 N  s               226     -4.251258  15 C  s         
   368      4.081700  22 H  s               140     -3.761417   9 C  s         
   318     -3.779363  19 C  py              147      3.612921   9 C  px        

 Vector   79  Occ=0.000000D+00  E= 9.941135D-02
              MO Center=  6.1D-01,  1.6D+00,  3.5D-01, r^2= 4.1D+01
   Bfn.  Coefficient  Atom+Function         Bfn.  Coefficient  Atom+Function  
  ----- ------------  ---------------      ----- ------------  ---------------
   482      9.030819  31 C  s               463     -7.120402  29 H  s         
   402     -6.644464  24 H  s                56      6.415571   5 C  s         
   420      6.255627  26 H  s               454      5.227880  28 H  s         
   556     -4.620916  34 H  s               147      4.501332   9 C  px        
   334      4.333494  20 H  s               318     -4.278644  19 C  py        

 Vector   80  Occ=0.000000D+00  E= 1.057653D-01
              MO Center=  1.4D+00,  7.3D-01,  1.4D-01, r^2= 3.8D+01
   Bfn.  Coefficient  Atom+Function         Bfn.  Coefficient  Atom+Function  
  ----- ------------  ---------------      ----- ------------  ---------------
   454     10.598984  28 H  s               556      7.093584  34 H  s         
   164     -6.809844  10 H  s               368     -6.709372  22 H  s         
   420      4.472981  26 H  s               198     -4.311084  12 H  s         
   463     -3.815664  29 H  s               438      3.504177  27 C  py        
   149      3.437377   9 C  pz              472     -3.362533  30 H  s         

 Vector   81  Occ=0.000000D+00  E= 1.097355D-01
              MO Center= -5.8D-01,  8.1D-02,  5.4D-01, r^2= 3.8D+01
   Bfn.  Coefficient  Atom+Function         Bfn.  Coefficient  Atom+Function  
  ----- ------------  ---------------      ----- ------------  ---------------
   334     11.138649  20 H  s               300    -10.031809  18 H  s         
   276     -8.167065  17 N  s               482      7.600609  31 C  s         
   317      7.128095  19 C  px              430     -6.707262  27 C  s         
    13     -6.628526   2 C  s               164      6.240100  10 H  s         
    56      5.597972   5 C  s                63     -5.056710   5 C  px        

 Vector   82  Occ=0.000000D+00  E= 1.205867D-01
              MO Center= -8.5D-01, -1.3D+00,  5.6D-01, r^2= 3.2D+01
   Bfn.  Coefficient  Atom+Function         Bfn.  Coefficient  Atom+Function  
  ----- ------------  ---------------      ----- ------------  ---------------
   300    -10.240035  18 H  s                13     10.076544   2 C  s         
   226     -9.488481  15 C  s               140     -8.767383   9 C  s         
    63      8.612192   5 C  px              174      7.934591  11 C  s         
   148      7.574017   9 C  py               64      5.577210   5 C  py        
   482     -5.538785  31 C  s               378      5.093682  23 C  s         

 Vector   83  Occ=0.000000D+00  E= 1.297945D-01
              MO Center= -7.5D-01, -2.2D+00, -5.7D-01, r^2= 2.7D+01
   Bfn.  Coefficient  Atom+Function         Bfn.  Coefficient  Atom+Function  
  ----- ------------  ---------------      ----- ------------  ---------------
   482     10.570815  31 C  s               106     -7.976524   7 N  s         
   226      7.801882  15 C  s                56      7.287003   5 C  s         
   532     -6.831740  33 N  s               300      6.606120  18 H  s         
   378     -6.295690  23 C  s               234     -5.749239  15 C  py        
   310      5.516635  19 C  s               148     -5.385168   9 C  py        

 Vector   84  Occ=0.000000D+00  E= 1.341539D-01
              MO Center=  3.0D-01, -1.1D+00, -8.3D-01, r^2= 3.3D+01
   Bfn.  Coefficient  Atom+Function         Bfn.  Coefficient  Atom+Function  
  ----- ------------  ---------------      ----- ------------  ---------------
   226    -15.055574  15 C  s               174     14.970659  11 C  s         
   482     14.419524  31 C  s               140    -10.828090   9 C  s         
   147     -5.952007   9 C  px              148      5.796599   9 C  py        
   491      5.591756  31 C  pz              181     -5.412061  11 C  px        
   149      5.301708   9 C  pz               63      5.180008   5 C  px        

 Vector   85  Occ=0.000000D+00  E= 1.370319D-01
              MO Center= -1.0D-02, -1.7D+00, -4.6D-01, r^2= 3.0D+01
   Bfn.  Coefficient  Atom+Function         Bfn.  Coefficient  Atom+Function  
  ----- ------------  ---------------      ----- ------------  ---------------
   318      9.623895  19 C  py              532     -6.887180  33 N  s         
[...]
    13     13.629737   2 C  s               276      9.258557  17 N  s         
   429     -8.405552  27 C  s               226     -8.295353  15 C  s         
   113      7.931840   7 N  px              234      7.340985  15 C  py        
   352      7.314393  21 C  py               56      7.188329   5 C  s         
   140     -7.047607   9 C  s               377      6.858878  23 C  s         

 Vector  160  Occ=0.000000D+00  E= 4.342916D-01
              MO Center=  2.5D-02,  2.7D-01, -3.2D-01, r^2= 2.0D+01
   Bfn.  Coefficient  Atom+Function         Bfn.  Coefficient  Atom+Function  
  ----- ------------  ---------------      ----- ------------  ---------------
   234     11.285882  15 C  py              106      8.822709   7 N  s         
    56      8.582305   5 C  s               226     -8.426964  15 C  s         
   283      7.069739  17 N  px              149      6.858125   9 C  pz        
   482      6.863256  31 C  s                13      6.538324   2 C  s         
   148      6.231736   9 C  py              140     -6.164240   9 C  s         

 Vector  161  Occ=0.000000D+00  E= 4.356650D-01
              MO Center=  5.9D-01,  4.8D-01,  2.5D-01, r^2= 2.1D+01
   Bfn.  Coefficient  Atom+Function         Bfn.  Coefficient  Atom+Function  
  ----- ------------  ---------------      ----- ------------  ---------------
   226     10.776428  15 C  s               140     10.321112   9 C  s         
   300     -9.076028  18 H  s               532      7.055647  33 N  s         
    13     -7.018682   2 C  s               318     -6.713788  19 C  py        
   276     -6.549731  17 N  s                63     -6.506109   5 C  px        
   377      5.795699  23 C  s               319      5.568196  19 C  pz        

 Vector  162  Occ=0.000000D+00  E= 4.469437D-01
              MO Center= -9.9D-02, -9.5D-01, -1.2D-01, r^2= 2.3D+01
   Bfn.  Coefficient  Atom+Function         Bfn.  Coefficient  Atom+Function  
  ----- ------------  ---------------      ----- ------------  ---------------
   234     12.476134  15 C  py               56     12.130057   5 C  s         
   226     10.393915  15 C  s               140      9.752440   9 C  s         
   174     -9.055446  11 C  s               430     -8.597694  27 C  s         
   276     -8.405699  17 N  s                13     -8.136564   2 C  s         
   147      6.395827   9 C  px              233     -5.931644  15 C  px        

 Vector  163  Occ=0.000000D+00  E= 4.499088D-01
              MO Center=  2.8D-01,  7.2D-02,  2.7D-01, r^2= 2.2D+01
   Bfn.  Coefficient  Atom+Function         Bfn.  Coefficient  Atom+Function  
  ----- ------------  ---------------      ----- ------------  ---------------
   174     14.755970  11 C  s               226    -12.316080  15 C  s         
   318    -11.608454  19 C  py              532      9.689986  33 N  s         
   147     -8.912011   9 C  px              140     -8.576181   9 C  s         
   163      7.216969  10 H  s               300     -7.044242  18 H  s         
    13      6.545562   2 C  s               378      5.673662  23 C  s         

 Vector  164  Occ=0.000000D+00  E= 4.508822D-01
              MO Center= -1.3D+00, -1.5D+00,  3.3D-03, r^2= 2.1D+01
   Bfn.  Coefficient  Atom+Function         Bfn.  Coefficient  Atom+Function  
  ----- ------------  ---------------      ----- ------------  ---------------
   300      9.744408  18 H  s               106      7.780033   7 N  s         
   148     -6.291813   9 C  py              482     -5.792315  31 C  s         
    56     -5.631014   5 C  s               319     -5.433556  19 C  pz        
   234      5.268507  15 C  py               13     -5.175645   2 C  s         
    81      4.969529   6 O  s               285      4.538114  17 N  pz        

 Vector  165  Occ=0.000000D+00  E= 4.544025D-01
              MO Center=  5.8D-01,  1.2D+00,  2.3D-01, r^2= 2.1D+01
   Bfn.  Coefficient  Atom+Function         Bfn.  Coefficient  Atom+Function  
  ----- ------------  ---------------      ----- ------------  ---------------
   174     12.514472  11 C  s                56    -10.480885   5 C  s         
   378      9.847571  23 C  s               482     -8.201686  31 C  s         
   226     -7.088306  15 C  s               430      6.951112  27 C  s         
   377      6.885406  23 C  s               284      6.593486  17 N  py        
   419     -6.549075  26 H  s               429      6.455387  27 C  s         

 Vector  166  Occ=0.000000D+00  E= 4.544818D-01
              MO Center= -1.8D-01,  8.0D-01,  2.8D-01, r^2= 2.1D+01
   Bfn.  Coefficient  Atom+Function         Bfn.  Coefficient  Atom+Function  
  ----- ------------  ---------------      ----- ------------  ---------------
   226     22.119899  15 C  s               140     16.102472   9 C  s         
    13    -13.146071   2 C  s               174    -13.095803  11 C  s         
   276    -11.878458  17 N  s               149    -10.953164   9 C  pz        
   235      9.146459  15 C  pz              106     -9.007728   7 N  s         
    63     -8.805874   5 C  px              377      8.167829  23 C  s         

 Vector  167  Occ=0.000000D+00  E= 4.669652D-01
              MO Center=  2.0D-01,  2.7D-01,  3.9D-01, r^2= 2.3D+01
   Bfn.  Coefficient  Atom+Function         Bfn.  Coefficient  Atom+Function  
  ----- ------------  ---------------      ----- ------------  ---------------
   532      7.860775  33 N  s               429      7.042924  27 C  s         
   377      6.164237  23 C  s               410     -6.086628  25 H  s         
   419     -6.013655  26 H  s               233      5.634000  15 C  px        
    56     -5.601932   5 C  s               462     -5.477138  29 H  s         
   283     -5.260957  17 N  px              352      5.142069  21 C  py        

 Vector  168  Occ=0.000000D+00  E= 4.717134D-01
              MO Center=  6.6D-01,  3.2D-01, -3.0D-01, r^2= 2.2D+01
   Bfn.  Coefficient  Atom+Function         Bfn.  Coefficient  Atom+Function  
  ----- ------------  ---------------      ----- ------------  ---------------
   226      7.875511  15 C  s               532      7.398608  33 N  s         
   430     -7.351536  27 C  s               174     -6.477804  11 C  s         
   401      4.916951  24 H  s               140      4.744589   9 C  s         
   378     -4.632477  23 C  s               410      4.603253  25 H  s         
   233      4.515859  15 C  px              197      4.423604  12 H  s         

 Vector  169  Occ=0.000000D+00  E= 4.746971D-01
              MO Center=  3.0D-01,  7.2D-01,  5.5D-01, r^2= 2.1D+01
   Bfn.  Coefficient  Atom+Function         Bfn.  Coefficient  Atom+Function  
  ----- ------------  ---------------      ----- ------------  ---------------
   429      9.894308  27 C  s               276      9.775970  17 N  s         
   284      8.778025  17 N  py              482     -8.214329  31 C  s         
    13      8.152903   2 C  s               174     -7.835445  11 C  s         
   234     -7.801215  15 C  py              471     -6.920570  30 H  s         
   430      6.545732  27 C  s               309     -6.452900  19 C  s         

 Vector  170  Occ=0.000000D+00  E= 4.780864D-01
              MO Center=  3.6D-01, -4.8D-01, -1.1D-01, r^2= 2.0D+01
   Bfn.  Coefficient  Atom+Function         Bfn.  Coefficient  Atom+Function  
  ----- ------------  ---------------      ----- ------------  ---------------
    12     11.565419   2 C  s               106     10.578465   7 N  s         
   226    -10.426124  15 C  s               482      9.699890  31 C  s         
   234      9.560938  15 C  py              163      7.796065  10 H  s         
    56      6.571151   5 C  s               378     -6.395646  23 C  s         
   430     -6.388055  27 C  s               300      5.307256  18 H  s         

 Vector  171  Occ=0.000000D+00  E= 4.826623D-01
              MO Center=  5.1D-01,  1.0D+00,  8.8D-01, r^2= 1.9D+01
   Bfn.  Coefficient  Atom+Function         Bfn.  Coefficient  Atom+Function  
  ----- ------------  ---------------      ----- ------------  ---------------
   174     13.364482  11 C  s               284     -8.524621  17 N  py        
   378      7.704948  23 C  s               276     -7.229192  17 N  s         
   206     -6.550974  13 H  s               352     -6.067514  21 C  py        
    56     -6.001542   5 C  s                13     -5.753931   2 C  s         
   454      5.479902  28 H  s               173      5.218707  11 C  s         

 Vector  172  Occ=0.000000D+00  E= 4.865320D-01
              MO Center=  4.1D-01,  2.6D-01,  2.1D-02, r^2= 2.1D+01
   Bfn.  Coefficient  Atom+Function         Bfn.  Coefficient  Atom+Function  
  ----- ------------  ---------------      ----- ------------  ---------------
   174     21.998614  11 C  s               482     17.035948  31 C  s         
   226    -14.772892  15 C  s               430    -14.122857  27 C  s         
   173     10.173870  11 C  s               197     -9.204068  12 H  s         
   140     -8.674010   9 C  s               319      8.595378  19 C  pz        
    13      7.068181   2 C  s               148      6.869939   9 C  py        

 Vector  173  Occ=0.000000D+00  E= 4.890808D-01
              MO Center= -2.3D-01,  8.9D-02,  3.8D-01, r^2= 2.1D+01
   Bfn.  Coefficient  Atom+Function         Bfn.  Coefficient  Atom+Function  
  ----- ------------  ---------------      ----- ------------  ---------------
   482     11.817568  31 C  s               430     -8.814865  27 C  s         
    56      8.746654   5 C  s               284      7.159482  17 N  py        
   300     -6.893713  18 H  s               532     -6.540396  33 N  s         
   351      6.057413  21 C  px              462      5.362031  29 H  s         
    12     -5.195763   2 C  s               140      5.130213   9 C  s         

 Vector  174  Occ=0.000000D+00  E= 4.909405D-01
              MO Center= -9.4D-02, -1.0D+00,  1.7D-02, r^2= 2.0D+01
   Bfn.  Coefficient  Atom+Function         Bfn.  Coefficient  Atom+Function  
  ----- ------------  ---------------      ----- ------------  ---------------
   482     16.350297  31 C  s               234     -7.990468  15 C  py        
   284     -7.168984  17 N  py              378     -7.121849  23 C  s         
   174      6.593810  11 C  s               344      6.293803  21 C  s         
   276     -5.761281  17 N  s               319      5.622906  19 C  pz        
    13     -4.512220   2 C  s                63     -4.257493   5 C  px        

 Vector  175  Occ=0.000000D+00  E= 4.972819D-01
              MO Center= -4.4D-01,  3.9D-01,  1.3D-01, r^2= 2.1D+01
   Bfn.  Coefficient  Atom+Function         Bfn.  Coefficient  Atom+Function  
  ----- ------------  ---------------      ----- ------------  ---------------
   482    -20.253194  31 C  s               430     19.279447  27 C  s         
    13     15.833909   2 C  s               226    -11.415381  15 C  s         
   276     11.363505  17 N  s               140    -11.012645   9 C  s         
   317    -10.061612  19 C  px               63      9.169372   5 C  px        
   429      7.499567  27 C  s               113      7.147886   7 N  px        

 Vector  176  Occ=0.000000D+00  E= 5.010510D-01
              MO Center=  8.3D-01, -1.1D-01, -1.8D-01, r^2= 2.1D+01
   Bfn.  Coefficient  Atom+Function         Bfn.  Coefficient  Atom+Function  
  ----- ------------  ---------------      ----- ------------  ---------------
   482     18.894920  31 C  s               234    -15.505635  15 C  py        
   378    -14.240210  23 C  s               430      8.802579  27 C  s         
   344      8.168669  21 C  s               284     -7.953980  17 N  py        
   174     -7.792169  11 C  s                56      5.849073   5 C  s         
   507     -5.780044  32 O  s               318     -5.713877  19 C  py        


 center of mass
 --------------
 x =  -0.02751811 y =  -0.00160648 z =  -0.04008958

 moments of inertia (a.u.)
 ------------------
        5741.731776953183          -0.000000000001           0.000000000000
          -0.000000000001        2500.991745234787           0.000000000002
           0.000000000000           0.000000000002        5971.763124769752

  Mulliken analysis of the total density
  --------------------------------------

    Atom       Charge   Shell Charges
 -----------   ------   -------------------------------------------------------
    1 H    1     0.86   0.76  0.12 -0.00  0.03 -0.06
    2 C    6     6.25   2.01  0.66  0.21  0.11  2.07  1.03  0.02  0.06  0.10
    3 H    1     0.97   0.76  0.22  0.01  0.03 -0.05
    4 H    1     0.86   0.76  0.12 -0.00  0.03 -0.06
    5 C    6     5.09   2.01  0.68  0.07 -0.11  1.89  0.35 -0.05  0.24  0.02
    6 O    8     8.80   2.01  0.82  1.00  0.17  2.80  1.86  0.14  0.02 -0.01
    7 N    7     7.53   2.01  0.72  0.80 -0.08  2.45  1.45  0.09  0.05  0.04
    8 H    1     0.97   0.77  0.21 -0.02  0.05 -0.03
    9 C    6     6.66   2.01  0.66  0.06 -0.01  1.99  1.66 -0.09  0.14  0.23
   10 H    1     0.96   0.78  0.14  0.01  0.03  0.01
   11 C    6     5.62   2.01  0.66  0.19  0.22  2.04  0.47 -0.04  0.07 -0.00
   12 H    1     0.94   0.77  0.19  0.02  0.03 -0.08
   13 H    1     0.97   0.77  0.25  0.01  0.03 -0.08
   14 H    1     0.96   0.77  0.24  0.01  0.03 -0.08
   15 C    6     4.47   2.01  0.68 -0.04  0.03  1.88  0.12  0.06  0.23 -0.49
   16 O    8     8.91   2.01  0.82  1.04  0.18  2.80  1.89  0.17  0.01 -0.00
   17 N    7     7.50   2.01  0.72  0.91 -0.13  2.44  1.45 -0.00  0.05  0.05
   18 H    1     1.06   0.74  0.34  0.02  0.06 -0.09
   19 C    6     5.98   2.01  0.67  0.16 -0.03  1.99  1.12 -0.05  0.13 -0.01
   20 H    1     1.17   0.79  0.40 -0.03  0.03 -0.01
   21 C    6     6.63   2.01  0.66 -0.08  0.12  2.02  1.47 -0.11  0.12  0.43
   22 H    1     1.21   0.79  0.39  0.03  0.03 -0.04
   23 C    6     5.50   2.01  0.66  0.19  0.09  2.04  0.51 -0.04  0.07 -0.03
   24 H    1     0.97   0.78  0.22  0.00  0.03 -0.06
   25 H    1     0.93   0.78  0.18  0.02  0.03 -0.07
   26 H    1     0.98   0.78  0.26 -0.00  0.03 -0.08
   27 C    6     5.67   2.01  0.67  0.33  0.14  2.04  0.52 -0.07  0.07 -0.04
   28 H    1     0.97   0.78  0.21  0.02  0.03 -0.07
   29 H    1     0.95   0.78  0.24 -0.00  0.03 -0.09
   30 H    1     0.93   0.78  0.20  0.01  0.03 -0.09
   31 C    6     4.72   2.01  0.68  0.10  0.08  1.89 -0.22  0.05  0.24 -0.11
   32 O    8     8.82   2.01  0.82  1.04  0.18  2.79  1.84  0.13  0.01 -0.00
   33 N    7     7.27   2.01  0.72  0.82 -0.16  2.47  1.27  0.12  0.04 -0.02
   34 H    1     0.89   0.73  0.20 -0.02  0.06 -0.08
   35 H    1     1.03   0.76  0.25 -0.00  0.05 -0.03

       Multipole analysis of the density wrt the origin
       ------------------------------------------------

     L   x y z        total         open         nuclear
     -   - - -        -----         ----         -------
     0   0 0 0     -0.000000      0.000000    124.000000

     1   1 0 0      0.857989      0.000000      0.000000
     1   0 1 0     -2.329877      0.000000      0.000000
     1   0 0 1     -0.310451      0.000000      0.000000

     2   2 0 0    -79.243764      0.000000    777.321633
     2   1 1 0      5.354364      0.000000     10.111405
     2   1 0 1     -0.612043      0.000000     -1.725022
     2   0 2 0    -65.779824      0.000000   2605.096837
     2   0 1 1      9.353666      0.000000     58.871468
     2   0 0 2    -73.097629      0.000000    657.311771


 Task  times  cpu:    10780.4s     wall:    10829.5s


                                NWChem Input Module
                                -------------------


 Summary of allocated global arrays
-----------------------------------
  No active global arrays


MA_summarize_allocated_blocks: starting scan ...
MA_summarize_allocated_blocks: scan completed: 0 heap blocks, 0 stack blocks
MA usage statistics:

	allocation statistics:
					      heap	     stack
					      ----	     -----
	current number of blocks	         0	         0
	maximum number of blocks	        16	        14
	current total bytes		         0	         0
	maximum total bytes		    121408	  26827992
	maximum total K-bytes		       122	     26828
	maximum total M-bytes		         1	        27


                                     CITATION
                                     --------
                Please cite the following reference when publishing
                           results obtained with NWChem:

          E. Apra, E. J. Bylaska, W. A. de Jong, N. Govind, K. Kowalski,
       T. P. Straatsma, M. Valiev, H. J. J. van Dam, Y. Alexeev, J. Anchell,
       V. Anisimov, F. W. Aquino, R. Atta-Fynn, J. Autschbach, N. P. Bauman,
     J. C. Becca, D. E. Bernholdt, K. Bhaskaran-Nair, S. Bogatko, P. Borowski,
         J. Boschen, J. Brabec, A. Bruner, E. Cauet, Y. Chen, G. N. Chuev,
      C. J. Cramer, J. Daily, M. J. O. Deegan, T. H. Dunning Jr., M. Dupuis,
   K. G. Dyall, G. I. Fann, S. A. Fischer, A. Fonari, H. Fruchtl, L. Gagliardi,
      J. Garza, N. Gawande, S. Ghosh, K. Glaesemann, A. W. Gotz, J. Hammond,
       V. Helms, E. D. Hermes, K. Hirao, S. Hirata, M. Jacquelin, L. Jensen,
   B. G. Johnson, H. Jonsson, R. A. Kendall, M. Klemm, R. Kobayashi, V. Konkov,
      S. Krishnamoorthy, M. Krishnan, Z. Lin, R. D. Lins, R. J. Littlefield,
      A. J. Logsdail, K. Lopata, W. Ma, A. V. Marenich, J. Martin del Campo,
   D. Mejia-Rodriguez, J. E. Moore, J. M. Mullin, T. Nakajima, D. R. Nascimento,
    J. A. Nichols, P. J. Nichols, J. Nieplocha, A. Otero-de-la-Roza, B. Palmer,
    A. Panyala, T. Pirojsirikul, B. Peng, R. Peverati, J. Pittner, L. Pollack,
   R. M. Richard, P. Sadayappan, G. C. Schatz, W. A. Shelton, D. W. Silverstein,
   D. M. A. Smith, T. A. Soares, D. Song, M. Swart, H. L. Taylor, G. S. Thomas,
            V. Tipparaju, D. G. Truhlar, K. Tsemekhman, T. Van Voorhis,
      A. Vazquez-Mayagoitia, P. Verma, O. Villa, A. Vishnu, K. D. Vogiatzis,
        D. Wang, J. H. Weare, M. J. Williamson, T. L. Windus, K. Wolinski,
        A. T. Wong, Q. Wu, C. Yang, Q. Yu, M. Zacharias, Z. Zhang, Y. Zhao,
                                and R. J. Harrison
                        "NWChem: Past, present, and future
                         J. Chem. Phys. 152, 184102 (2020)
                               doi:10.1063/5.0004997

                                      AUTHORS
                                      -------
  E. Apra, E. J. Bylaska, N. Govind, K. Kowalski, M. Valiev, D. Mejia-Rodriguez,
       A. Kunitsa, N. P. Bauman, A. Panyala, W. A. de Jong, T. P. Straatsma,
   H. J. J. van Dam, D. Wang, T. L. Windus, J. Hammond, J. Autschbach, A. Woods,
    K. Bhaskaran-Nair, J. Brabec, K. Lopata, S. A. Fischer, S. Krishnamoorthy,
     M. Jacquelin, W. Ma, M. Klemm, O. Villa, Y. Chen, V. Anisimov, F. Aquino,
     S. Hirata, M. T. Hackler, E. Hermes, L. Jensen, J. E. Moore, J. C. Becca,
      V. Konjkov, T. Risthaus, M. Malagoli, A. Marenich, A. Otero-de-la-Roza,
        J. Mullin, P. Nichols, R. Peverati, J. Pittner, Y. Zhao, P.-D. Fan,
        A. Fonari, M. J. Williamson, R. J. Harrison, J. R. Rehr, M. Dupuis,
     D. Silverstein, D. M. A. Smith, J. Nieplocha, V. Tipparaju, M. Krishnan,
     B. E. Van Kuiken, A. Vazquez-Mayagoitia, M. Swart, Q. Wu, T. Van Voorhis,
     A. A. Auer, M. Nooijen, L. D. Crosby, E. Brown, G. Cisneros, G. I. Fann,
   H. Fruchtl, J. Garza, K. Hirao, R. A. Kendall, J. A. Nichols, K. Tsemekhman,
    K. Wolinski, J. Anchell, D. E. Bernholdt, P. Borowski, T. Clark, D. Clerc,
   H. Dachsel, M. J. O. Deegan, K. Dyall, D. Elwood, E. Glendening, M. Gutowski,
   A. C. Hess, J. Jaffe, B. G. Johnson, J. Ju, R. Kobayashi, R. Kutteh, Z. Lin,
   R. Littlefield, X. Long, B. Meng, T. Nakajima, S. Niu, L. Pollack, M. Rosing,
   K. Glaesemann, G. Sandrone, M. Stave, H. Taylor, G. Thomas, J. H. van Lenthe,
                               A. T. Wong, Z. Zhang.

 Total times  cpu:    10780.4s     wall:    10830.0s
