export TMOUT=5400
export TMPDIR=/tmp
export PTMPDIR=/tmp/ptmp
 argument  1 = ALA_CYS_1.nw
                                         
                                         


             Northwest Computational Chemistry Package (NWChem) 7.2.0
             --------------------------------------------------------


                    Environmental Molecular Sciences Laboratory
                       Pacific Northwest National Laboratory
                                Richland, WA 99352

                              Copyright (c) 1994-2022
                       Pacific Northwest National Laboratory
                            Battelle Memorial Institute

             NWChem is an open-source computational chemistry package
                        distributed under the terms of the
                      Educational Community License (ECL) 2.0
             A copy of the license is included with this distribution
                              in the LICENSE.TXT file

                                  ACKNOWLEDGMENT
                                  --------------

            This software and its documentation were developed at the
            EMSL at Pacific Northwest National Laboratory, a multiprogram
            national laboratory, operated for the U.S. Department of Energy
            by Battelle under Contract Number DE-AC05-76RL01830. Support
            for this work was provided by the Department of Energy Office
            of Biological and Environmental Research, Office of Basic
            Energy Sciences, and the Office of Advanced Scientific Computing.


           Job information
           ---------------

    hostname        = nova18-36
    program         = /opt/rit/el9/20230413/app/linux-rhel9-x86_64_v3/gcc-11.2.1/nwchem-7.2.0-oxtctbuhfuzyfaoziquq6bki22grib3g/bin/nwchem
    date            = Thu Jun 26 09:36:12 2025

    compiled        = Wed_May_17_23:46:39_2023
    source          = /tmp/root/spack-stage/spack-stage-nwchem-7.2.0-oxtctbuhfuzyfaoziquq6bki22grib3g/spack-src
    nwchem branch   = 7.2.0
    nwchem revision = d0d141fd
    ga revision     = 5.8.0
    use scalapack   = T
    input           = ALA_CYS_1.nw
    prefix          = ALA_CYS_1.
    data base       = ./ALA_CYS_1.db
    status          = startup
    nproc           =        8
    time left       =     -1s



           Memory information
           ------------------

    heap     =   26214398 doubles =    200.0 Mbytes
    stack    =   26214395 doubles =    200.0 Mbytes
    global   =   52428800 doubles =    400.0 Mbytes (distinct from heap & stack)
    total    =  104857593 doubles =    800.0 Mbytes
    verify   = yes
    hardfail = no 


           Directory information
           ---------------------

  0 permanent = .
  0 scratch   = .




                                NWChem Input Module
                                -------------------



 Scaling coordinates for geometry "geometry" by  1.889725989
 (inverse scale =  0.529177249)

 C1  symmetry detected

          ------
          auto-z
          ------
  no constraints, skipping    0.0000000000000000     
  no constraints, skipping    0.0000000000000000     


                             Geometry "geometry" -> ""
                             -------------------------

 Output coordinates in angstroms (scale by  1.889725989 to convert to a.u.)

  No.       Tag          Charge          X              Y              Z
 ---- ---------------- ---------- -------------- -------------- --------------
    1 H                    1.0000     1.30339680     6.06800127     0.55072473
    2 C                    6.0000     1.40454011     5.17230535    -0.06202468
    3 H                    1.0000     2.38710884     4.73185007     0.09510849
    4 H                    1.0000     1.27495907     5.43094318    -1.11106053
    5 C                    6.0000     0.34045368     4.18030435     0.34447758
    6 O                    8.0000    -0.45191223     4.45832778     1.23348053
    7 N                    7.0000     0.32939701     3.02044553    -0.30821091
    8 H                    1.0000     1.03940644     2.85014686    -1.00575946
    9 C                    6.0000    -0.60709467     1.92708302    -0.04881210
   10 H                    1.0000    -0.86029387     1.92331814     1.01349294
   11 C                    6.0000    -1.89285521     2.17100621    -0.85241480
   12 H                    1.0000    -2.32969914     3.12956560    -0.56898177
   13 H                    1.0000    -1.66858696     2.18064483    -1.92084348
   14 H                    1.0000    -2.61772004     1.38280587    -0.64659885
   15 C                    6.0000     0.02353980     0.56410484    -0.39038000
   16 O                    8.0000     1.00621839     0.49153374    -1.12770098
   17 N                    7.0000    -0.54849361    -0.52188773     0.13392040
   18 H                    1.0000    -1.38057418    -0.41274376     0.69779495
   19 C                    6.0000    -0.12370985    -1.89759763    -0.13519484
   20 H                    1.0000     0.19957085    -1.96770840    -1.17536458
   21 C                    6.0000     1.06964733    -2.22740607     0.77795850
   22 H                    1.0000     1.78349621    -1.40093006     0.76476036
   23 H                    1.0000     0.71495767    -2.36583604     1.80159827
   24 S                   16.0000     1.91598011    -3.73310341     0.21484718
   25 H                    1.0000     2.59413587    -3.17047787    -0.79353483
   26 C                    6.0000    -1.30746578    -2.86815804     0.06098976
   27 O                    8.0000    -2.31723312    -2.51072226     0.65916580
   28 N                    7.0000    -1.21987821    -4.09438877    -0.43423100
   29 H                    1.0000    -1.99533689    -4.72112073    -0.29354739
   30 H                    1.0000    -0.36659568    -4.40095394    -0.87285241

      Atomic Mass 
      ----------- 

      H                  1.007825
      C                 12.000000
      O                 15.994910
      N                 14.003070
      S                 31.972070


 Effective nuclear repulsion energy (a.u.)    1125.3184266242

            Nuclear Dipole moment (a.u.) 
            ----------------------------
        X                 Y               Z
 ---------------- ---------------- ----------------
     0.0000000000     0.0000000000     0.0000000000



                                Z-matrix (autoz)
                                -------- 

 Units are Angstrom for bonds and degrees for angles

      Type          Name      I     J     K     L     M      Value
      ----------- --------  ----- ----- ----- ----- ----- ----------
    1 Stretch                  1     2                       1.08994
    2 Stretch                  2     3                       1.08818
    3 Stretch                  2     4                       1.08819
    4 Stretch                  2     5                       1.51049
    5 Stretch                  5     6                       1.22289
    6 Stretch                  5     7                       1.33094
    7 Stretch                  7     8                       1.00980
    8 Stretch                  7     9                       1.46279
    9 Stretch                  9    10                       1.09207
   10 Stretch                  9    11                       1.53573
   11 Stretch                  9    15                       1.54016
   12 Stretch                 11    12                       1.09087
   13 Stretch                 11    13                       1.09176
   14 Stretch                 11    14                       1.09044
   15 Stretch                 15    16                       1.23068
   16 Stretch                 15    17                       1.33473
   17 Stretch                 17    18                       1.01105
   18 Stretch                 17    19                       1.46473
   19 Stretch                 19    20                       1.09150
   20 Stretch                 19    21                       1.53842
   21 Stretch                 19    26                       1.54329
   22 Stretch                 21    22                       1.09216
   23 Stretch                 21    23                       1.09216
   24 Stretch                 21    24                       1.81673
   25 Stretch                 24    25                       1.33913
   26 Stretch                 26    27                       1.22687
   27 Stretch                 26    28                       1.32535
   28 Stretch                 28    29                       1.00694
   29 Stretch                 28    30                       1.00721
   30 Bend                     1     2     3               109.58717
   31 Bend                     1     2     4               109.60837
   32 Bend                     1     2     5               108.84641
   33 Bend                     2     5     6               120.18435
   34 Bend                     2     5     7               116.50009
   35 Bend                     3     2     4               110.05546
   36 Bend                     3     2     5               109.35426
   37 Bend                     4     2     5               109.36836
   38 Bend                     5     7     8               118.67787
   39 Bend                     5     7     9               124.73134
   40 Bend                     6     5     7               123.31525
   41 Bend                     7     9    10               108.87533
   42 Bend                     7     9    11               108.93485
   43 Bend                     7     9    15               111.09998
   44 Bend                     8     7     9               116.52499
   45 Bend                     9    11    12               109.80881
   46 Bend                     9    11    13               109.96889
   47 Bend                     9    11    14               110.05818
   48 Bend                     9    15    16               120.79739
   49 Bend                     9    15    17               117.22215
   50 Bend                    10     9    11               108.38756
   51 Bend                    10     9    15               107.91552
   52 Bend                    11     9    15               111.55084
   53 Bend                    12    11    13               109.19440
   54 Bend                    12    11    14               108.65788
   55 Bend                    13    11    14               109.12608
   56 Bend                    15    17    18               118.94413
   57 Bend                    15    17    19               124.59213
   58 Bend                    16    15    17               121.97684
   59 Bend                    17    19    20               108.74233
   60 Bend                    17    19    21               108.49710
   61 Bend                    17    19    26               110.17360
   62 Bend                    18    17    19               116.26543
   63 Bend                    19    21    22               109.73111
   64 Bend                    19    21    23               109.36493
   65 Bend                    19    21    24               110.79736
   66 Bend                    19    26    27               120.66789
   67 Bend                    19    26    28               118.92513
   68 Bend                    20    19    21               108.79200
   69 Bend                    20    19    26               107.93428
   70 Bend                    21    19    26               112.62598
   71 Bend                    21    24    25                96.95597
   72 Bend                    22    21    23               108.63323
   73 Bend                    22    21    24               108.59911
   74 Bend                    23    21    24               109.67937
   75 Bend                    26    28    29               118.21402
   76 Bend                    26    28    30               120.02085
   77 Bend                    27    26    28               120.40589
   78 Bend                    29    28    30               121.58912
   79 Torsion                  1     2     5     6           0.12111
   80 Torsion                  1     2     5     7        -179.68348
   81 Torsion                  2     5     7     8           2.16634
   82 Torsion                  2     5     7     9         179.10762
   83 Torsion                  3     2     5     6         119.81362
   84 Torsion                  3     2     5     7         -59.99097
   85 Torsion                  4     2     5     6        -119.60551
   86 Torsion                  4     2     5     7          60.58990
   87 Torsion                  5     7     9    10         -32.42305
   88 Torsion                  5     7     9    11          85.59377
   89 Torsion                  5     7     9    15        -151.13365
   90 Torsion                  6     5     7     8        -177.63153
   91 Torsion                  6     5     7     9          -0.69025
   92 Torsion                  7     9    11    12         -58.55083
   93 Torsion                  7     9    11    13          61.62694
   94 Torsion                  7     9    11    14        -178.12229
   95 Torsion                  7     9    15    16         -19.00990
   96 Torsion                  7     9    15    17         161.66908
   97 Torsion                  8     7     9    10         144.57780
   98 Torsion                  8     7     9    11         -97.40538
   99 Torsion                  8     7     9    15          25.86719
  100 Torsion                  9    15    17    18           2.22140
  101 Torsion                  9    15    17    19         176.90326
  102 Torsion                 10     9    11    12          59.77307
  103 Torsion                 10     9    11    13         179.95085
  104 Torsion                 10     9    11    14         -59.79839
  105 Torsion                 10     9    15    16        -138.29640
  106 Torsion                 10     9    15    17          42.38258
  107 Torsion                 11     9    15    16         102.74911
  108 Torsion                 11     9    15    17         -76.57190
  109 Torsion                 12    11     9    15         178.44621
  110 Torsion                 13    11     9    15         -61.37601
  111 Torsion                 14    11     9    15          58.87475
  112 Torsion                 15    17    19    20         -35.90560
  113 Torsion                 15    17    19    21          82.27245
  114 Torsion                 15    17    19    26        -154.01023
  115 Torsion                 16    15    17    18        -177.09103
  116 Torsion                 16    15    17    19          -2.40917
  117 Torsion                 17    19    21    22         -45.46370
  118 Torsion                 17    19    21    23          73.60464
  119 Torsion                 17    19    21    24        -165.37644
  120 Torsion                 17    19    26    27         -15.55353
  121 Torsion                 17    19    26    28         164.06706
  122 Torsion                 18    17    19    20         138.90508
  123 Torsion                 18    17    19    21        -102.91687
  124 Torsion                 18    17    19    26          20.80045
  125 Torsion                 19    21    24    25          78.36132
  126 Torsion                 19    26    28    29         179.51177
  127 Torsion                 19    26    28    30           4.25625
  128 Torsion                 20    19    21    22          72.68283
  129 Torsion                 20    19    21    23        -168.24884
  130 Torsion                 20    19    21    24         -47.22991
  131 Torsion                 20    19    26    27        -134.15449
  132 Torsion                 20    19    26    28          45.46609
  133 Torsion                 21    19    26    27         105.73214
  134 Torsion                 21    19    26    28         -74.64727
  135 Torsion                 22    21    19    26        -167.69964
  136 Torsion                 22    21    24    25         -42.22607
  137 Torsion                 23    21    19    26         -48.63131
  138 Torsion                 23    21    24    25        -160.80584
  139 Torsion                 24    21    19    26          72.38762
  140 Torsion                 27    26    28    29          -0.86662
  141 Torsion                 27    26    28    30        -176.12214


            XYZ format geometry
            -------------------
    30
 geometry
 H                     1.30339680     6.06800127     0.55072473
 C                     1.40454011     5.17230535    -0.06202468
 H                     2.38710884     4.73185007     0.09510849
 H                     1.27495907     5.43094318    -1.11106053
 C                     0.34045368     4.18030435     0.34447758
 O                    -0.45191223     4.45832778     1.23348053
 N                     0.32939701     3.02044553    -0.30821091
 H                     1.03940644     2.85014686    -1.00575946
 C                    -0.60709467     1.92708302    -0.04881210
 H                    -0.86029387     1.92331814     1.01349294
 C                    -1.89285521     2.17100621    -0.85241480
 H                    -2.32969914     3.12956560    -0.56898177
 H                    -1.66858696     2.18064483    -1.92084348
 H                    -2.61772004     1.38280587    -0.64659885
 C                     0.02353980     0.56410484    -0.39038000
 O                     1.00621839     0.49153374    -1.12770098
 N                    -0.54849361    -0.52188773     0.13392040
 H                    -1.38057418    -0.41274376     0.69779495
 C                    -0.12370985    -1.89759763    -0.13519484
 H                     0.19957085    -1.96770840    -1.17536458
 C                     1.06964733    -2.22740607     0.77795850
 H                     1.78349621    -1.40093006     0.76476036
 H                     0.71495767    -2.36583604     1.80159827
 S                     1.91598011    -3.73310341     0.21484718
 H                     2.59413587    -3.17047787    -0.79353483
 C                    -1.30746578    -2.86815804     0.06098976
 O                    -2.31723312    -2.51072226     0.65916580
 N                    -1.21987821    -4.09438877    -0.43423100
 H                    -1.99533689    -4.72112073    -0.29354739
 H                    -0.36659568    -4.40095394    -0.87285241

 ==============================================================================
                                internuclear distances
 ------------------------------------------------------------------------------
       center one      |      center two      | atomic units |  angstroms
 ------------------------------------------------------------------------------
    2 C                |   1 H                |     2.05968  |     1.08994
    3 H                |   2 C                |     2.05636  |     1.08818
    4 H                |   2 C                |     2.05638  |     1.08819
    5 C                |   2 C                |     2.85442  |     1.51049
    6 O                |   5 C                |     2.31093  |     1.22289
    7 N                |   5 C                |     2.51511  |     1.33094
    8 H                |   7 N                |     1.90824  |     1.00980
    9 C                |   7 N                |     2.76427  |     1.46279
   10 H                |   9 C                |     2.06371  |     1.09207
   11 C                |   9 C                |     2.90210  |     1.53573
   12 H                |  11 C                |     2.06145  |     1.09087
   13 H                |  11 C                |     2.06312  |     1.09176
   14 H                |  11 C                |     2.06062  |     1.09044
   15 C                |   9 C                |     2.91047  |     1.54016
   16 O                |  15 C                |     2.32564  |     1.23068
   17 N                |  15 C                |     2.52227  |     1.33473
   18 H                |  17 N                |     1.91061  |     1.01105
   19 C                |  17 N                |     2.76794  |     1.46473
   20 H                |  19 C                |     2.06264  |     1.09150
   21 C                |  19 C                |     2.90718  |     1.53842
   22 H                |  21 C                |     2.06389  |     1.09216
   23 H                |  21 C                |     2.06388  |     1.09216
   24 S                |  21 C                |     3.43312  |     1.81673
   25 H                |  24 S                |     2.53059  |     1.33913
   26 C                |  19 C                |     2.91640  |     1.54329
   27 O                |  26 C                |     2.31844  |     1.22687
   28 N                |  26 C                |     2.50455  |     1.32535
   29 H                |  28 N                |     1.90283  |     1.00694
   30 H                |  28 N                |     1.90334  |     1.00721
 ------------------------------------------------------------------------------
                         number of included internuclear distances:         29
 ==============================================================================



 ==============================================================================
                                 internuclear angles
 ------------------------------------------------------------------------------
        center 1       |       center 2       |       center 3       |  degrees
 ------------------------------------------------------------------------------
    1 H                |   2 C                |   3 H                |   109.59
    1 H                |   2 C                |   4 H                |   109.61
    1 H                |   2 C                |   5 C                |   108.85
    3 H                |   2 C                |   4 H                |   110.06
    3 H                |   2 C                |   5 C                |   109.35
    4 H                |   2 C                |   5 C                |   109.37
    2 C                |   5 C                |   6 O                |   120.18
    2 C                |   5 C                |   7 N                |   116.50
    6 O                |   5 C                |   7 N                |   123.32
    5 C                |   7 N                |   8 H                |   118.68
    5 C                |   7 N                |   9 C                |   124.73
    8 H                |   7 N                |   9 C                |   116.52
    7 N                |   9 C                |  10 H                |   108.88
    7 N                |   9 C                |  11 C                |   108.93
    7 N                |   9 C                |  15 C                |   111.10
   10 H                |   9 C                |  11 C                |   108.39
   10 H                |   9 C                |  15 C                |   107.92
   11 C                |   9 C                |  15 C                |   111.55
    9 C                |  11 C                |  12 H                |   109.81
    9 C                |  11 C                |  13 H                |   109.97
    9 C                |  11 C                |  14 H                |   110.06
   12 H                |  11 C                |  13 H                |   109.19
   12 H                |  11 C                |  14 H                |   108.66
   13 H                |  11 C                |  14 H                |   109.13
    9 C                |  15 C                |  16 O                |   120.80
    9 C                |  15 C                |  17 N                |   117.22
   16 O                |  15 C                |  17 N                |   121.98
   15 C                |  17 N                |  18 H                |   118.94
   15 C                |  17 N                |  19 C                |   124.59
   18 H                |  17 N                |  19 C                |   116.27
   17 N                |  19 C                |  20 H                |   108.74
   17 N                |  19 C                |  21 C                |   108.50
   17 N                |  19 C                |  26 C                |   110.17
   20 H                |  19 C                |  21 C                |   108.79
   20 H                |  19 C                |  26 C                |   107.93
   21 C                |  19 C                |  26 C                |   112.63
   19 C                |  21 C                |  22 H                |   109.73
   19 C                |  21 C                |  23 H                |   109.36
   19 C                |  21 C                |  24 S                |   110.80
   22 H                |  21 C                |  23 H                |   108.63
   22 H                |  21 C                |  24 S                |   108.60
   23 H                |  21 C                |  24 S                |   109.68
   21 C                |  24 S                |  25 H                |    96.96
   19 C                |  26 C                |  27 O                |   120.67
   19 C                |  26 C                |  28 N                |   118.93
   27 O                |  26 C                |  28 N                |   120.41
   26 C                |  28 N                |  29 H                |   118.21
   26 C                |  28 N                |  30 H                |   120.02
   29 H                |  28 N                |  30 H                |   121.59
 ------------------------------------------------------------------------------
                            number of included internuclear angles:         49
 ==============================================================================



  library name resolved from: environment
  library file name is: </opt/rit/el9/20230413/app/linux-rhel9-x86_64_v3/gcc-11.2.1/nwchem-7.2.0-oxtctbuhfuzyfaoziquq6bki22grib3g/share/nwchem/libraries/>
  


 Summary of "ao basis" -> "" (cartesian)
 ------------------------------------------------------------------------------
       Tag                 Description            Shells   Functions and Types
 ---------------- ------------------------------  ------  ---------------------
 *                        aug-cc-pvdz                 on all atoms 


                      Basis "ao basis" -> "ao basis" (cartesian)
                      -----
  H (Hydrogen)
  ------------
            Exponent  Coefficients 
       -------------- ---------------------------------------------------------
  1 S  1.30100000E+01  0.019685
  1 S  1.96200000E+00  0.137977
  1 S  4.44600000E-01  0.478148

  2 S  1.22000000E-01  1.000000

  3 S  2.97400000E-02  1.000000

  4 P  7.27000000E-01  1.000000

  5 P  1.41000000E-01  1.000000

  C (Carbon)
  ----------
            Exponent  Coefficients 
       -------------- ---------------------------------------------------------
  1 S  6.66500000E+03  0.000692
  1 S  1.00000000E+03  0.005329
  1 S  2.28000000E+02  0.027077
  1 S  6.47100000E+01  0.101718
  1 S  2.10600000E+01  0.274740
  1 S  7.49500000E+00  0.448564
  1 S  2.79700000E+00  0.285074
  1 S  5.21500000E-01  0.015204

  2 S  6.66500000E+03 -0.000146
  2 S  1.00000000E+03 -0.001154
  2 S  2.28000000E+02 -0.005725
  2 S  6.47100000E+01 -0.023312
  2 S  2.10600000E+01 -0.063955
  2 S  7.49500000E+00 -0.149981
  2 S  2.79700000E+00 -0.127262
  2 S  5.21500000E-01  0.544529

  3 S  1.59600000E-01  1.000000

  4 S  4.69000000E-02  1.000000

  5 P  9.43900000E+00  0.038109
  5 P  2.00200000E+00  0.209480
  5 P  5.45600000E-01  0.508557

  6 P  1.51700000E-01  1.000000

  7 P  4.04100000E-02  1.000000

  8 D  5.50000000E-01  1.000000

  9 D  1.51000000E-01  1.000000

  O (Oxygen)
  ----------
            Exponent  Coefficients 
       -------------- ---------------------------------------------------------
  1 S  1.17200000E+04  0.000710
  1 S  1.75900000E+03  0.005470
  1 S  4.00800000E+02  0.027837
  1 S  1.13700000E+02  0.104800
  1 S  3.70300000E+01  0.283062
  1 S  1.32700000E+01  0.448719
  1 S  5.02500000E+00  0.270952
  1 S  1.01300000E+00  0.015458

  2 S  1.17200000E+04 -0.000160
  2 S  1.75900000E+03 -0.001263
  2 S  4.00800000E+02 -0.006267
  2 S  1.13700000E+02 -0.025716
  2 S  3.70300000E+01 -0.070924
  2 S  1.32700000E+01 -0.165411
  2 S  5.02500000E+00 -0.116955
  2 S  1.01300000E+00  0.557368

  3 S  3.02300000E-01  1.000000

  4 S  7.89600000E-02  1.000000

  5 P  1.77000000E+01  0.043018
  5 P  3.85400000E+00  0.228913
  5 P  1.04600000E+00  0.508728

  6 P  2.75300000E-01  1.000000

  7 P  6.85600000E-02  1.000000

  8 D  1.18500000E+00  1.000000

  9 D  3.32000000E-01  1.000000

  N (Nitrogen)
  ------------
            Exponent  Coefficients 
       -------------- ---------------------------------------------------------
  1 S  9.04600000E+03  0.000700
  1 S  1.35700000E+03  0.005389
  1 S  3.09300000E+02  0.027406
  1 S  8.77300000E+01  0.103207
  1 S  2.85600000E+01  0.278723
  1 S  1.02100000E+01  0.448540
  1 S  3.83800000E+00  0.278238
  1 S  7.46600000E-01  0.015440

  2 S  9.04600000E+03 -0.000153
  2 S  1.35700000E+03 -0.001208
  2 S  3.09300000E+02 -0.005992
  2 S  8.77300000E+01 -0.024544
  2 S  2.85600000E+01 -0.067459
  2 S  1.02100000E+01 -0.158078
  2 S  3.83800000E+00 -0.121831
  2 S  7.46600000E-01  0.549003

  3 S  2.24800000E-01  1.000000

  4 S  6.12400000E-02  1.000000

  5 P  1.35500000E+01  0.039919
  5 P  2.91700000E+00  0.217169
  5 P  7.97300000E-01  0.510319

  6 P  2.18500000E-01  1.000000

  7 P  5.61100000E-02  1.000000

  8 D  8.17000000E-01  1.000000

  9 D  2.30000000E-01  1.000000

  S (Sulphur)
  -----------
            Exponent  Coefficients 
       -------------- ---------------------------------------------------------
  1 S  1.10800000E+05  0.000248
  1 S  1.66100000E+04  0.001920
  1 S  3.78100000E+03  0.009962
  1 S  1.07100000E+03  0.040298
  1 S  3.49800000E+02  0.128604
  1 S  1.26300000E+02  0.303480
  1 S  4.92600000E+01  0.421432
  1 S  2.01600000E+01  0.230781
  1 S  5.72000000E+00  0.017897
  1 S  2.18200000E+00 -0.002975
  1 S  4.32700000E-01  0.000850

  2 S  1.10800000E+05 -0.000069
  2 S  1.66100000E+04 -0.000528
  2 S  3.78100000E+03 -0.002797
  2 S  1.07100000E+03 -0.011265
  2 S  3.49800000E+02 -0.038883
  2 S  1.26300000E+02 -0.099503
  2 S  4.92600000E+01 -0.199740
  2 S  2.01600000E+01 -0.123360
  2 S  5.72000000E+00  0.513194
  2 S  2.18200000E+00  0.607120
  2 S  4.32700000E-01  0.039675

  3 S  1.10800000E+05  0.000020
  3 S  1.66100000E+04  0.000153
  3 S  3.78100000E+03  0.000810
  3 S  1.07100000E+03  0.003290
  3 S  3.49800000E+02  0.011297
  3 S  1.26300000E+02  0.029639
  3 S  4.92600000E+01  0.059985
  3 S  2.01600000E+01  0.041325
  3 S  5.72000000E+00 -0.207474
  3 S  2.18200000E+00 -0.392889
  3 S  4.32700000E-01  0.632840

  4 S  1.57000000E-01  1.000000

  5 S  5.07000000E-02  1.000000

  6 P  3.99700000E+02  0.004475
  6 P  9.41900000E+01  0.034171
  6 P  2.97500000E+01  0.144250
  6 P  1.07700000E+01  0.353928
  6 P  4.11900000E+00  0.459085
  6 P  1.62500000E+00  0.206383
  6 P  4.72600000E-01  0.010214

  7 P  3.99700000E+02 -0.001163
  7 P  9.41900000E+01 -0.008657
  7 P  2.97500000E+01 -0.039089
  7 P  1.07700000E+01 -0.093463
  7 P  4.11900000E+00 -0.147994
  7 P  1.62500000E+00  0.030190
  7 P  4.72600000E-01  0.561573

  8 P  1.40700000E-01  1.000000

  9 P  3.99000000E-02  1.000000

 10 D  4.79000000E-01  1.000000

 11 D  1.52000000E-01  1.000000



 Summary of "ao basis" -> "ao basis" (cartesian)
 ------------------------------------------------------------------------------
       Tag                 Description            Shells   Functions and Types
 ---------------- ------------------------------  ------  ---------------------
 H                        aug-cc-pvdz                5        9   3s2p
 C                        aug-cc-pvdz                9       25   4s3p2d
 O                        aug-cc-pvdz                9       25   4s3p2d
 N                        aug-cc-pvdz                9       25   4s3p2d
 S                        aug-cc-pvdz               11       29   5s4p2d


                                 NWChem SCF Module
                                 -----------------



  ao basis        = "ao basis"
  functions       =   514
  atoms           =    30
  closed shells   =    62
  open shells     =     0
  charge          =   0.00
  wavefunction    = RHF 
  input vectors   = atomic
  output vectors  = ./ALA_CYS_1.movecs
  use symmetry    = F
  symmetry adapt  = F


 Summary of "ao basis" -> "ao basis" (cartesian)
 ------------------------------------------------------------------------------
       Tag                 Description            Shells   Functions and Types
 ---------------- ------------------------------  ------  ---------------------
 H                        aug-cc-pvdz                5        9   3s2p
 C                        aug-cc-pvdz                9       25   4s3p2d
 O                        aug-cc-pvdz                9       25   4s3p2d
 N                        aug-cc-pvdz                9       25   4s3p2d
 S                        aug-cc-pvdz               11       29   5s4p2d



 Forming initial guess at       1.5s


 !! The overlap matrix has   3 vectors deemed linearly dependent with
    eigenvalues:
 2.89D-06 4.02D-06 8.86D-06


      Superposition of Atomic Density Guess
      -------------------------------------

 Sum of atomic energies:       -1093.51360735

      Non-variational initial energy
      ------------------------------

 Total energy =   -1102.793677
 1-e energy   =   -3731.718038
 2-e energy   =    1503.605935
 HOMO         =      -0.286967
 LUMO         =       0.006435


 Starting SCF solution at     184.1s



 ----------------------------------------------
         Quadratically convergent ROHF

 Convergence threshold     :          1.000E-04
 Maximum no. of iterations :           30
 Final Fock-matrix accuracy:          1.000E-10
 ----------------------------------------------


              iter       energy          gnorm     gmax       time
             ----- ------------------- --------- --------- --------
                 1    -1096.9536218349  2.38D+00  1.49D-01    379.5
                 2    -1097.2586196061  7.87D-01  4.48D-02    815.7
                 3    -1097.3141864654  6.27D-02  4.38D-03   1322.2
                 4    -1097.3148117433  3.62D-03  3.34D-04   2015.7
                 5    -1097.3148143194  6.73D-06  3.95D-07   3229.7


       Final RHF  results 
       ------------------ 

         Total SCF energy =  -1097.314814319418
      One-electron energy =  -3741.663255100527
      Two-electron energy =   1519.030014156932
 Nuclear repulsion energy =   1125.318426624177

        Time for solution =   3052.9s


             Final eigenvalues
             -----------------

              1      
    1  -91.9795
    2  -20.5460
    3  -20.5452
    4  -20.5178
    5  -15.6147
    6  -15.6108
    7  -15.5935
    8  -11.3811
    9  -11.3758
   10  -11.3501
   11  -11.3207
   12  -11.3016
   13  -11.2974
   14  -11.2388
   15  -11.2385
   16   -8.9811
   17   -6.6633
   18   -6.6621
   19   -6.6601
   20   -1.4106
   21   -1.4020
   22   -1.3802
   23   -1.2610
   24   -1.2422
   25   -1.2410
   26   -1.1040
   27   -1.0589
   28   -0.9972
   29   -0.9838
   30   -0.8990
   31   -0.8810
   32   -0.8306
   33   -0.8053
   34   -0.7899
   35   -0.7669
   36   -0.7264
   37   -0.6930
   38   -0.6760
   39   -0.6582
   40   -0.6560
   41   -0.6477
   42   -0.6321
   43   -0.6266
   44   -0.6116
   45   -0.5926
   46   -0.5897
   47   -0.5810
   48   -0.5646
   49   -0.5606
   50   -0.5486
   51   -0.5438
   52   -0.5309
   53   -0.5263
   54   -0.4988
   55   -0.4795
   56   -0.4471
   57   -0.4397
   58   -0.4356
   59   -0.4164
   60   -0.4141
   61   -0.3919
   62   -0.3811
   63    0.0284
   64    0.0359
   65    0.0418
   66    0.0436
   67    0.0483
   68    0.0564
   69    0.0583
   70    0.0634
   71    0.0696
   72    0.0701

                       ROHF Final Molecular Orbital Analysis
                       -------------------------------------

 Vector   20  Occ=2.000000D+00  E=-1.410592D+00
              MO Center= -1.2D+00, -1.8D+00,  5.3D-02, r^2= 4.4D+00
   Bfn.  Coefficient  Atom+Function         Bfn.  Coefficient  Atom+Function  
  ----- ------------  ---------------      ----- ------------  ---------------
   449      0.311052  27 O  s               448      0.290092  27 O  s         
   423      0.207084  26 C  s               250      0.186107  16 O  s         
   249      0.179138  16 O  s         

 Vector   21  Occ=2.000000D+00  E=-1.401972D+00
              MO Center= -1.9D-01, -4.4D-01, -4.1D-01, r^2= 5.1D+00
   Bfn.  Coefficient  Atom+Function         Bfn.  Coefficient  Atom+Function  
  ----- ------------  ---------------      ----- ------------  ---------------
   250      0.308366  16 O  s               249      0.293345  16 O  s         
   449     -0.210111  27 O  s               224      0.201357  15 C  s         
   448     -0.196951  27 O  s         

 Vector   22  Occ=2.000000D+00  E=-1.380233D+00
              MO Center= -1.2D-01,  4.1D+00,  7.6D-01, r^2= 1.4D+00
   Bfn.  Coefficient  Atom+Function         Bfn.  Coefficient  Atom+Function  
  ----- ------------  ---------------      ----- ------------  ---------------
    79      0.345102   6 O  s                80      0.346231   6 O  s         
    54      0.244021   5 C  s                12      0.153516   2 C  s         

 Vector   23  Occ=2.000000D+00  E=-1.260979D+00
              MO Center= -2.8D-01, -5.0D-01, -7.6D-02, r^2= 1.8D+00
   Bfn.  Coefficient  Atom+Function         Bfn.  Coefficient  Atom+Function  
  ----- ------------  ---------------      ----- ------------  ---------------
   275      0.434222  17 N  s               274      0.340353  17 N  s         
   250     -0.218016  16 O  s               249     -0.182797  16 O  s         
   308      0.151736  19 C  s         

 Vector   24  Occ=2.000000D+00  E=-1.242212D+00
              MO Center=  5.7D-02,  2.8D+00, -5.7D-02, r^2= 4.2D+00
   Bfn.  Coefficient  Atom+Function         Bfn.  Coefficient  Atom+Function  
  ----- ------------  ---------------      ----- ------------  ---------------
   105      0.429291   7 N  s               104      0.332811   7 N  s         
    80     -0.207040   6 O  s                79     -0.181050   6 O  s         

 Vector   25  Occ=2.000000D+00  E=-1.241026D+00
              MO Center= -1.2D+00, -3.3D+00, -2.2D-01, r^2= 3.9D+00
   Bfn.  Coefficient  Atom+Function         Bfn.  Coefficient  Atom+Function  
  ----- ------------  ---------------      ----- ------------  ---------------
   474      0.384860  28 N  s               473      0.359122  28 N  s         
   449     -0.209518  27 O  s               448     -0.176046  27 O  s         
   506      0.163160  30 H  s               427     -0.158280  26 C  py        
   497      0.150812  29 H  s         

 Vector   26  Occ=2.000000D+00  E=-1.104019D+00
              MO Center=  5.9D-01, -1.8D+00,  2.4D-01, r^2= 4.6D+00
   Bfn.  Coefficient  Atom+Function         Bfn.  Coefficient  Atom+Function  
  ----- ------------  ---------------      ----- ------------  ---------------
   342      0.246900  21 C  s               309      0.213625  19 C  s         
   386      0.199746  24 S  s               308      0.188572  19 C  s         
   349     -0.155534  21 C  py        

 Vector   27  Occ=2.000000D+00  E=-1.058885D+00
              MO Center= -2.3D-01,  1.9D+00, -1.8D-01, r^2= 7.5D+00
   Bfn.  Coefficient  Atom+Function         Bfn.  Coefficient  Atom+Function  
  ----- ------------  ---------------      ----- ------------  ---------------
   138      0.230668   9 C  s               172      0.196999  11 C  s         
    12     -0.174553   2 C  s         

 Vector   28  Occ=2.000000D+00  E=-9.971716D-01
              MO Center=  8.4D-01,  9.7D-01, -4.0D-03, r^2= 1.6D+01
   Bfn.  Coefficient  Atom+Function         Bfn.  Coefficient  Atom+Function  
  ----- ------------  ---------------      ----- ------------  ---------------
    11      0.240811   2 C  s               386      0.219411  24 S  s         
   308     -0.167712  19 C  s         

 Vector   29  Occ=2.000000D+00  E=-9.838104D-01
              MO Center=  2.1D-01,  1.3D+00, -2.0D-01, r^2= 1.5D+01
   Bfn.  Coefficient  Atom+Function         Bfn.  Coefficient  Atom+Function  
  ----- ------------  ---------------      ----- ------------  ---------------
   225      0.234310  15 C  s                11      0.217821   2 C  s         
   144     -0.210180   9 C  px              172      0.185451  11 C  s         
   386     -0.182950  24 S  s               308      0.150191  19 C  s         

 Vector   30  Occ=2.000000D+00  E=-8.989963D-01
              MO Center= -6.9D-01,  1.4D+00, -3.9D-01, r^2= 7.1D+00
   Bfn.  Coefficient  Atom+Function         Bfn.  Coefficient  Atom+Function  
  ----- ------------  ---------------      ----- ------------  ---------------
   144      0.275616   9 C  px              145     -0.258222   9 C  py        
   172     -0.243810  11 C  s               225     -0.218518  15 C  s         
   139      0.210706   9 C  s               309      0.177388  19 C  s         
   231     -0.168168  15 C  py              138      0.163925   9 C  s         

 Vector   31  Occ=2.000000D+00  E=-8.809665D-01
              MO Center=  6.3D-01, -2.6D+00,  2.6D-01, r^2= 4.9D+00
   Bfn.  Coefficient  Atom+Function         Bfn.  Coefficient  Atom+Function  
  ----- ------------  ---------------      ----- ------------  ---------------
   387      0.301408  24 S  s               314     -0.258699  19 C  px        
   386      0.242553  24 S  s               342     -0.236360  21 C  s         
   366     -0.161213  22 H  s               375     -0.157770  23 H  s         

 Vector   32  Occ=2.000000D+00  E=-8.306071D-01
              MO Center= -5.8D-01, -9.7D-01, -1.5D-01, r^2= 1.0D+01
   Bfn.  Coefficient  Atom+Function         Bfn.  Coefficient  Atom+Function  
  ----- ------------  ---------------      ----- ------------  ---------------
   309      0.261815  19 C  s               477      0.235293  28 N  py        
   225      0.209964  15 C  s               278      0.196764  17 N  py        
   423      0.162706  26 C  s               430     -0.160261  26 C  py        
   108      0.154188   7 N  py        

 Vector   33  Occ=2.000000D+00  E=-8.053310D-01
              MO Center= -4.1D-01, -1.4D+00, -2.7D-02, r^2= 4.6D+00
   Bfn.  Coefficient  Atom+Function         Bfn.  Coefficient  Atom+Function  
  ----- ------------  ---------------      ----- ------------  ---------------
   275     -0.292622  17 N  s               225      0.276387  15 C  s         
   298     -0.259107  18 H  s               277      0.215660  17 N  px        
   333      0.198122  20 H  s               279     -0.183510  17 N  pz        
   332      0.175178  20 H  s               315      0.173785  19 C  py        
   477     -0.161561  28 N  py              314     -0.153870  19 C  px        

 Vector   34  Occ=2.000000D+00  E=-7.899186D-01
              MO Center=  4.1D-02,  2.5D+00, -1.4D-01, r^2= 4.5D+00
   Bfn.  Coefficient  Atom+Function         Bfn.  Coefficient  Atom+Function  
  ----- ------------  ---------------      ----- ------------  ---------------
   128      0.289321   8 H  s               139     -0.266640   9 C  s         
   225      0.257447  15 C  s               105      0.251321   7 N  s         
   109     -0.249307   7 N  pz               55     -0.213673   5 C  s         
   144     -0.213694   9 C  px              108     -0.177306   7 N  py        
   163     -0.174826  10 H  s                54     -0.170862   5 C  s         

 Vector   35  Occ=2.000000D+00  E=-7.668842D-01
              MO Center= -7.3D-01, -2.1D+00, -2.4D-01, r^2= 9.0D+00
   Bfn.  Coefficient  Atom+Function         Bfn.  Coefficient  Atom+Function  
  ----- ------------  ---------------      ----- ------------  ---------------
   476      0.285376  28 N  px              506      0.273177  30 H  s         
   315     -0.161542  19 C  py              424     -0.152629  26 C  s         

 Vector   36  Occ=2.000000D+00  E=-7.264500D-01
              MO Center= -4.5D-01, -3.4D-01, -2.6D-01, r^2= 1.4D+01
   Bfn.  Coefficient  Atom+Function         Bfn.  Coefficient  Atom+Function  
  ----- ------------  ---------------      ----- ------------  ---------------
   476      0.245330  28 N  px              497     -0.242905  29 H  s         
   145      0.214801   9 C  py              142      0.197929   9 C  py        
   228     -0.198304  15 C  py              506      0.155548  30 H  s         

 Vector   37  Occ=2.000000D+00  E=-6.930379D-01
              MO Center= -3.4D-01, -1.0D+00, -1.0D-01, r^2= 7.4D+00
   Bfn.  Coefficient  Atom+Function         Bfn.  Coefficient  Atom+Function  
  ----- ------------  ---------------      ----- ------------  ---------------
   451      0.207469  27 O  px              427      0.174072  26 C  py        
   332     -0.170918  20 H  s               252     -0.164726  16 O  px        
   250     -0.160727  16 O  s               311     -0.157228  19 C  px        
   449     -0.155928  27 O  s         

 Vector   38  Occ=2.000000D+00  E=-6.760122D-01
              MO Center= -2.5D-01,  1.2D+00,  1.5D-01, r^2= 1.3D+01
   Bfn.  Coefficient  Atom+Function         Bfn.  Coefficient  Atom+Function  
  ----- ------------  ---------------      ----- ------------  ---------------
    80     -0.191384   6 O  s                12      0.186140   2 C  s         
    82      0.168602   6 O  px              278     -0.166527  17 N  py        
    84     -0.152485   6 O  pz        

 Vector   39  Occ=2.000000D+00  E=-6.581527D-01
              MO Center= -2.1D-01,  8.3D-01, -4.6D-02, r^2= 9.9D+00
   Bfn.  Coefficient  Atom+Function         Bfn.  Coefficient  Atom+Function  
  ----- ------------  ---------------      ----- ------------  ---------------
   277      0.189672  17 N  px              107      0.164074   7 N  px        
   162      0.163853  10 H  s               143      0.155720   9 C  pz        
   424      0.151238  26 C  s         

 Vector   40  Occ=2.000000D+00  E=-6.559755D-01
              MO Center=  3.7D-02,  1.3D+00, -5.1D-02, r^2= 1.0D+01
   Bfn.  Coefficient  Atom+Function         Bfn.  Coefficient  Atom+Function  
  ----- ------------  ---------------      ----- ------------  ---------------
    58      0.179207   5 C  py              425      0.178095  26 C  s         
   254     -0.170353  16 O  pz              227     -0.162101  15 C  px        
   250      0.161401  16 O  s         

 Vector   41  Occ=2.000000D+00  E=-6.477254D-01
              MO Center= -4.8D-02, -1.6D+00,  3.6D-01, r^2= 7.2D+00
   Bfn.  Coefficient  Atom+Function         Bfn.  Coefficient  Atom+Function  
  ----- ------------  ---------------      ----- ------------  ---------------
   345      0.244006  21 C  px              366      0.231674  22 H  s         
   424      0.178452  26 C  s               453     -0.179337  27 O  pz        
   315      0.177058  19 C  py        

 Vector   42  Occ=2.000000D+00  E=-6.320606D-01
              MO Center= -5.7D-02, -2.2D-01,  2.7D-01, r^2= 1.0D+01
   Bfn.  Coefficient  Atom+Function         Bfn.  Coefficient  Atom+Function  
  ----- ------------  ---------------      ----- ------------  ---------------
   139      0.335416   9 C  s               173     -0.232841  11 C  s         
   226      0.209245  15 C  s               347      0.177296  21 C  pz        
   375      0.168276  23 H  s               451     -0.158349  27 O  px        

 Vector   43  Occ=2.000000D+00  E=-6.265934D-01
              MO Center=  2.5D-01,  2.2D+00,  6.7D-02, r^2= 1.2D+01
   Bfn.  Coefficient  Atom+Function         Bfn.  Coefficient  Atom+Function  
  ----- ------------  ---------------      ----- ------------  ---------------
   139      0.410064   9 C  s               173     -0.301881  11 C  s         
   225     -0.223781  15 C  s                59     -0.185960   5 C  pz        
    16     -0.178403   2 C  pz               44      0.165983   4 H  s         
    82     -0.161307   6 O  px              145     -0.156826   9 C  py        

 Vector   44  Occ=2.000000D+00  E=-6.116233D-01
              MO Center= -2.6D-01,  1.2D+00, -3.5D-01, r^2= 9.8D+00
   Bfn.  Coefficient  Atom+Function         Bfn.  Coefficient  Atom+Function  
  ----- ------------  ---------------      ----- ------------  ---------------
   254      0.216178  16 O  pz              227      0.190036  15 C  px        
    56      0.159199   5 C  s               196      0.153165  12 H  s         
   197      0.153381  12 H  s         

 Vector   45  Occ=2.000000D+00  E=-5.925594D-01
              MO Center= -1.4D-01, -2.9D-01, -6.5D-02, r^2= 1.1D+01
   Bfn.  Coefficient  Atom+Function         Bfn.  Coefficient  Atom+Function  
  ----- ------------  ---------------      ----- ------------  ---------------
   252      0.212799  16 O  px              229      0.171066  15 C  pz        
   451     -0.161738  27 O  px        

 Vector   46  Occ=2.000000D+00  E=-5.897361D-01
              MO Center=  1.2D-02, -1.2D-01,  4.9D-02, r^2= 1.5D+01
   Bfn.  Coefficient  Atom+Function         Bfn.  Coefficient  Atom+Function  
  ----- ------------  ---------------      ----- ------------  ---------------
   426      0.211893  26 C  px              344      0.182868  21 C  s         
   453      0.164326  27 O  pz              163      0.159730  10 H  s         
   452      0.150183  27 O  py        

 Vector   47  Occ=2.000000D+00  E=-5.810285D-01
              MO Center= -5.9D-01,  1.4D+00, -1.3D-01, r^2= 1.2D+01
   Bfn.  Coefficient  Atom+Function         Bfn.  Coefficient  Atom+Function  
  ----- ------------  ---------------      ----- ------------  ---------------
   214      0.186464  14 H  s               215      0.175658  14 H  s         
    15      0.168371   2 C  py              309     -0.164461  19 C  s         
    57     -0.160619   5 C  px              176     -0.159394  11 C  py        
    84     -0.154088   6 O  pz        

 Vector   48  Occ=2.000000D+00  E=-5.646352D-01
              MO Center=  2.9D-01,  3.7D+00,  1.9D-01, r^2= 8.4D+00
   Bfn.  Coefficient  Atom+Function         Bfn.  Coefficient  Atom+Function  
  ----- ------------  ---------------      ----- ------------  ---------------
     2      0.232084   1 H  s                35     -0.219853   3 H  s         
    14     -0.212535   2 C  px               84      0.207759   6 O  pz        
     1      0.190194   1 H  s                57      0.152031   5 C  px        

 Vector   49  Occ=2.000000D+00  E=-5.605885D-01
              MO Center= -1.9D-01,  2.3D-01,  5.3D-03, r^2= 1.7D+01
   Bfn.  Coefficient  Atom+Function         Bfn.  Coefficient  Atom+Function  
  ----- ------------  ---------------      ----- ------------  ---------------
   453     -0.195546  27 O  pz                1      0.191342   1 H  s         
   345     -0.187141  21 C  px              478     -0.176900  28 N  pz        
     2      0.170045   1 H  s                16      0.167280   2 C  pz        
   344      0.161930  21 C  s         

 Vector   50  Occ=2.000000D+00  E=-5.485991D-01
              MO Center= -5.3D-01,  1.2D+00, -4.0D-01, r^2= 1.1D+01
   Bfn.  Coefficient  Atom+Function         Bfn.  Coefficient  Atom+Function  
  ----- ------------  ---------------      ----- ------------  ---------------
   196      0.271302  12 H  s               176      0.268344  11 C  py        
   197      0.263838  12 H  s               309     -0.219963  19 C  s         
   333      0.191855  20 H  s               253      0.163771  16 O  py        

 Vector   51  Occ=2.000000D+00  E=-5.438398D-01
              MO Center=  8.0D-01,  6.8D-01,  5.9D-02, r^2= 1.5D+01
   Bfn.  Coefficient  Atom+Function         Bfn.  Coefficient  Atom+Function  
  ----- ------------  ---------------      ----- ------------  ---------------
   309      0.247291  19 C  s               425      0.202823  26 C  s         
   367      0.183145  22 H  s                 1      0.180163   1 H  s         
   333     -0.177678  20 H  s               413     -0.176027  25 H  s         
    16      0.169918   2 C  pz              394      0.170346  24 S  pz        
   375     -0.163016  23 H  s               345      0.157858  21 C  px        

 Vector   52  Occ=2.000000D+00  E=-5.308652D-01
              MO Center= -1.3D-01, -9.2D-03, -2.4D-01, r^2= 9.1D+00
   Bfn.  Coefficient  Atom+Function         Bfn.  Coefficient  Atom+Function  
  ----- ------------  ---------------      ----- ------------  ---------------
   276      0.224530  17 N  s               313      0.203902  19 C  pz        
   347     -0.199266  21 C  pz              254     -0.196877  16 O  pz        
   332     -0.197645  20 H  s               333     -0.181701  20 H  s         
   226     -0.173802  15 C  s               343      0.167214  21 C  s         
   375     -0.164860  23 H  s               376     -0.151254  23 H  s         

 Vector   53  Occ=2.000000D+00  E=-5.263409D-01
              MO Center= -5.5D-01,  2.1D+00, -3.7D-01, r^2= 7.1D+00
   Bfn.  Coefficient  Atom+Function         Bfn.  Coefficient  Atom+Function  
  ----- ------------  ---------------      ----- ------------  ---------------
   163      0.296087  10 H  s               206      0.240886  13 H  s         
   215     -0.230996  14 H  s               214     -0.213882  14 H  s         
   205      0.202247  13 H  s               107      0.188473   7 N  px        
   177     -0.181670  11 C  pz              162      0.175689  10 H  s         
   226     -0.170742  15 C  s               143      0.159681   9 C  pz        

 Vector   54  Occ=2.000000D+00  E=-4.988126D-01
              MO Center= -1.9D-01,  3.2D+00,  1.5D-01, r^2= 6.0D+00
   Bfn.  Coefficient  Atom+Function         Bfn.  Coefficient  Atom+Function  
  ----- ------------  ---------------      ----- ------------  ---------------
    84      0.218871   6 O  pz              143     -0.208368   9 C  pz        
    82      0.187547   6 O  px              177      0.177453  11 C  pz        
   162     -0.163185  10 H  s                87      0.160276   6 O  pz        

 Vector   55  Occ=2.000000D+00  E=-4.794874D-01
              MO Center=  1.5D+00, -3.0D+00,  1.8D-01, r^2= 4.6D+00
   Bfn.  Coefficient  Atom+Function         Bfn.  Coefficient  Atom+Function  
  ----- ------------  ---------------      ----- ------------  ---------------
   393     -0.385787  24 S  py              387      0.367270  24 S  s         
   396     -0.255326  24 S  py              346      0.243717  21 C  py        
   349      0.213500  21 C  py              413     -0.169678  25 H  s         
   367      0.157421  22 H  s         

 Vector   56  Occ=2.000000D+00  E=-4.471027D-01
              MO Center= -1.5D+00, -2.2D+00,  3.5D-01, r^2= 3.7D+00
   Bfn.  Coefficient  Atom+Function         Bfn.  Coefficient  Atom+Function  
  ----- ------------  ---------------      ----- ------------  ---------------
   452      0.441712  27 O  py              455      0.356465  27 O  py        
   309      0.284879  19 C  s               451      0.249781  27 O  px        
   139     -0.226781   9 C  s               424     -0.200480  26 C  s         
   474      0.192097  28 N  s               454      0.189582  27 O  px        
   225      0.175148  15 C  s               444     -0.162430  26 C  dyy       

 Vector   57  Occ=2.000000D+00  E=-4.397313D-01
              MO Center=  1.5D-01,  3.2D-01, -6.1D-01, r^2= 5.0D+00
   Bfn.  Coefficient  Atom+Function         Bfn.  Coefficient  Atom+Function  
  ----- ------------  ---------------      ----- ------------  ---------------
   253      0.470811  16 O  py              256      0.384476  16 O  py        
   309      0.294416  19 C  s               315     -0.174259  19 C  py        
   145      0.171905   9 C  py              343     -0.165237  21 C  s         
   142      0.164223   9 C  py              275      0.162579  17 N  s         
   424     -0.160742  26 C  s         

 Vector   58  Occ=2.000000D+00  E=-4.355590D-01
              MO Center= -1.0D+00, -2.7D+00, -3.6D-02, r^2= 5.5D+00
   Bfn.  Coefficient  Atom+Function         Bfn.  Coefficient  Atom+Function  
  ----- ------------  ---------------      ----- ------------  ---------------
   478      0.340357  28 N  pz              481      0.288198  28 N  pz        
   453     -0.276257  27 O  pz              343      0.216958  21 C  s         
   456     -0.212808  27 O  pz              452      0.197967  27 O  py        
   276      0.165203  17 N  s               455      0.158275  27 O  py        
   376     -0.154095  23 H  s         

 Vector   59  Occ=2.000000D+00  E=-4.163744D-01
              MO Center= -9.4D-02,  3.6D+00,  7.0D-01, r^2= 6.8D+00
   Bfn.  Coefficient  Atom+Function         Bfn.  Coefficient  Atom+Function  
  ----- ------------  ---------------      ----- ------------  ---------------
    83      0.431198   6 O  py               86      0.344317   6 O  py        
    13      0.290023   2 C  s                82      0.272086   6 O  px        
   105      0.231864   7 N  s                85      0.209731   6 O  px        
    17      0.179947   2 C  px              145     -0.178518   9 C  py        
    64     -0.164040   5 C  py               14      0.162034   2 C  px        

 Vector   60  Occ=2.000000D+00  E=-4.140988D-01
              MO Center= -1.5D-01, -2.5D-01, -3.0D-02, r^2= 9.3D+00
   Bfn.  Coefficient  Atom+Function         Bfn.  Coefficient  Atom+Function  
  ----- ------------  ---------------      ----- ------------  ---------------
   279      0.288524  17 N  pz              282      0.262086  17 N  pz        
    13     -0.222364   2 C  s               344      0.221115  21 C  s         
   309      0.213413  19 C  s                83     -0.211938   6 O  py        
   254     -0.211689  16 O  pz              277      0.202066  17 N  px        
   280      0.187435  17 N  px               86     -0.168007   6 O  py        

 Vector   61  Occ=2.000000D+00  E=-3.918560D-01
              MO Center= -9.7D-02,  3.1D+00,  1.5D-01, r^2= 3.9D+00
   Bfn.  Coefficient  Atom+Function         Bfn.  Coefficient  Atom+Function  
  ----- ------------  ---------------      ----- ------------  ---------------
   109      0.302753   7 N  pz              107      0.274808   7 N  px        
   112      0.271586   7 N  pz              139     -0.272263   9 C  s         
   110      0.262711   7 N  px               84     -0.228799   6 O  pz        
    82     -0.211920   6 O  px              174     -0.210854  11 C  s         
    87     -0.176118   6 O  pz               85     -0.164665   6 O  px        

 Vector   62  Occ=2.000000D+00  E=-3.811391D-01
              MO Center=  1.6D+00, -3.3D+00,  1.7D-01, r^2= 3.5D+00
   Bfn.  Coefficient  Atom+Function         Bfn.  Coefficient  Atom+Function  
  ----- ------------  ---------------      ----- ------------  ---------------
   392      0.387063  24 S  px              395      0.384596  24 S  px        
   397      0.310259  24 S  pz              394      0.301504  24 S  pz        

 Vector   63  Occ=0.000000D+00  E= 2.839296D-02
              MO Center= -3.8D-01, -4.5D+00, -1.3D+00, r^2= 2.4D+01
   Bfn.  Coefficient  Atom+Function         Bfn.  Coefficient  Atom+Function  
  ----- ------------  ---------------      ----- ------------  ---------------
   425      5.857736  26 C  s               475     -4.300746  28 N  s         
   433     -2.444844  26 C  py              234     -2.311091  15 C  py        
   174      2.269409  11 C  s                56      1.938150   5 C  s         
   310      1.849208  19 C  s               499     -1.837344  29 H  s         
   148      1.740797   9 C  py              508     -1.592148  30 H  s         

 Vector   64  Occ=0.000000D+00  E= 3.588066D-02
              MO Center=  1.7D+00,  2.7D+00, -7.8D-01, r^2= 3.7D+01
   Bfn.  Coefficient  Atom+Function         Bfn.  Coefficient  Atom+Function  
  ----- ------------  ---------------      ----- ------------  ---------------
   148      3.338580   9 C  py              174      3.259413  11 C  s         
    64      2.629658   5 C  py              106     -2.577313   7 N  s         
    12      1.918958   2 C  s                63      1.859527   5 C  px        
    37     -1.777401   3 H  s               147      1.668544   9 C  px        
    46     -1.601884   4 H  s               318      1.428914  19 C  py        

 Vector   65  Occ=0.000000D+00  E= 4.175066D-02
              MO Center=  4.4D-01,  1.0D-01,  5.1D-01, r^2= 3.2D+01
   Bfn.  Coefficient  Atom+Function         Bfn.  Coefficient  Atom+Function  
  ----- ------------  ---------------      ----- ------------  ---------------
   425      3.779072  26 C  s               319      2.413977  19 C  pz        
   377     -2.287765  23 H  s               334      2.246128  20 H  s         
   164     -2.081396  10 H  s               368     -1.989559  22 H  s         
   149      1.807812   9 C  pz              475     -1.783232  28 N  s         
   207      1.646301  13 H  s               226     -1.599366  15 C  s         

 Vector   66  Occ=0.000000D+00  E= 4.364479D-02
              MO Center=  5.7D-01, -2.1D+00, -8.4D-01, r^2= 3.5D+01
   Bfn.  Coefficient  Atom+Function         Bfn.  Coefficient  Atom+Function  
  ----- ------------  ---------------      ----- ------------  ---------------
   415      2.385897  25 H  s               226      2.120486  15 C  s         
   499     -1.864087  29 H  s               425     -1.819911  26 C  s         
   377     -1.729483  23 H  s               317     -1.422070  19 C  px        
   318     -1.356146  19 C  py               13      1.310482   2 C  s         
   276     -1.265613  17 N  s               173      1.190068  11 C  s         

 Vector   67  Occ=0.000000D+00  E= 4.825655D-02
              MO Center= -5.1D-01,  1.3D+00, -6.5D-01, r^2= 4.4D+01
   Bfn.  Coefficient  Atom+Function         Bfn.  Coefficient  Atom+Function  
  ----- ------------  ---------------      ----- ------------  ---------------
    64      3.505947   5 C  py              425     -3.330194  26 C  s         
   148      2.738000   9 C  py               63      2.285989   5 C  px        
    12      2.085168   2 C  s               147      1.957904   9 C  px        
   318     -1.942484  19 C  py              433     -1.881004  26 C  py        
   173     -1.778314  11 C  s               334      1.728383  20 H  s         

 Vector   68  Occ=0.000000D+00  E= 5.643499D-02
              MO Center=  9.5D-01,  7.0D-01, -5.8D-01, r^2= 4.5D+01
   Bfn.  Coefficient  Atom+Function         Bfn.  Coefficient  Atom+Function  
  ----- ------------  ---------------      ----- ------------  ---------------
   344     -4.125651  21 C  s               334      4.020462  20 H  s         
   319      2.610858  19 C  pz              368      2.572684  22 H  s         
    37      2.505143   3 H  s               198     -2.459122  12 H  s         
    56      2.323649   5 C  s                46     -2.056091   4 H  s         
   233     -2.021434  15 C  px              377     -2.019750  23 H  s         

 Vector   69  Occ=0.000000D+00  E= 5.827397D-02
              MO Center= -2.3D-01,  2.8D+00,  9.0D-03, r^2= 3.9D+01
   Bfn.  Coefficient  Atom+Function         Bfn.  Coefficient  Atom+Function  
  ----- ------------  ---------------      ----- ------------  ---------------
   174     -3.200566  11 C  s                46     -3.008467   4 H  s         
     3      2.936125   1 H  s               377     -2.431146  23 H  s         
    13     -1.937329   2 C  s               130     -1.930617   8 H  s         
   207     -1.868726  13 H  s               198      1.717379  12 H  s         
   216      1.697104  14 H  s                22     -1.686412   2 C  pz        

 Vector   70  Occ=0.000000D+00  E= 6.339305D-02
              MO Center= -2.7D-01, -2.0D-01, -6.3D-01, r^2= 4.2D+01
   Bfn.  Coefficient  Atom+Function         Bfn.  Coefficient  Atom+Function  
  ----- ------------  ---------------      ----- ------------  ---------------
   334      5.559982  20 H  s               198     -2.849909  12 H  s         
   149     -2.806752   9 C  pz              377      2.782506  23 H  s         
   319      2.752456  19 C  pz               64     -2.692814   5 C  py        
     3      2.592326   1 H  s               148     -2.595273   9 C  py        
   425     -2.537114  26 C  s                13      2.410436   2 C  s         

 Vector   71  Occ=0.000000D+00  E= 6.956122D-02
              MO Center= -1.2D-01,  1.1D+00,  5.3D-01, r^2= 4.2D+01
   Bfn.  Coefficient  Atom+Function         Bfn.  Coefficient  Atom+Function  
  ----- ------------  ---------------      ----- ------------  ---------------
    64     -4.268910   5 C  py              164     -4.175265  10 H  s         
    13      4.147743   2 C  s                 3      3.514505   1 H  s         
   148     -3.233194   9 C  py               56      3.125844   5 C  s         
   508     -2.877102  30 H  s               425     -2.370294  26 C  s         
   174     -2.220135  11 C  s                63     -2.128947   5 C  px        

 Vector   72  Occ=0.000000D+00  E= 7.010089D-02
              MO Center=  6.6D-02, -1.6D+00, -9.2D-01, r^2= 3.8D+01
   Bfn.  Coefficient  Atom+Function         Bfn.  Coefficient  Atom+Function  
  ----- ------------  ---------------      ----- ------------  ---------------
   508      4.670833  30 H  s               368      3.555181  22 H  s         
   334     -3.169296  20 H  s               207      2.697461  13 H  s         
   415     -2.449491  25 H  s               300     -2.210787  18 H  s         
   276     -2.022859  17 N  s               433      1.972245  26 C  py        
   234     -1.843887  15 C  py              317      1.822401  19 C  px        

 Vector   73  Occ=0.000000D+00  E= 7.423736D-02
              MO Center=  1.2D+00,  1.1D+00,  5.7D-01, r^2= 4.1D+01
   Bfn.  Coefficient  Atom+Function         Bfn.  Coefficient  Atom+Function  
  ----- ------------  ---------------      ----- ------------  ---------------
   226      8.152346  15 C  s                13     -5.118176   2 C  s         
   368     -4.697795  22 H  s               140      4.516652   9 C  s         
   425     -4.221508  26 C  s               216      3.782240  14 H  s         
   377      3.641525  23 H  s               344      3.590989  21 C  s         
    37      3.463116   3 H  s               276     -3.165608  17 N  s         

 Vector   74  Occ=0.000000D+00  E= 8.011807D-02
              MO Center=  1.6D-02,  1.4D+00, -1.1D+00, r^2= 3.9D+01
   Bfn.  Coefficient  Atom+Function         Bfn.  Coefficient  Atom+Function  
  ----- ------------  ---------------      ----- ------------  ---------------
   207      4.874650  13 H  s               234     -4.838885  15 C  py        
   216     -4.140153  14 H  s               368     -3.814020  22 H  s         
   164      3.421708  10 H  s                46     -3.375717   4 H  s         
    13      3.294190   2 C  s               344      2.981117  21 C  s         
   149     -2.341091   9 C  pz              140     -2.161918   9 C  s         

 Vector   75  Occ=0.000000D+00  E= 8.257834D-02
              MO Center= -9.6D-01,  1.2D+00, -4.5D-01, r^2= 3.9D+01
   Bfn.  Coefficient  Atom+Function         Bfn.  Coefficient  Atom+Function  
  ----- ------------  ---------------      ----- ------------  ---------------
   425      6.601911  26 C  s               198      6.484408  12 H  s         
   344     -4.718371  21 C  s               226     -4.683846  15 C  s         
   368     -3.854572  22 H  s               334      3.673804  20 H  s         
   207     -3.336525  13 H  s               318      3.216566  19 C  py        
   106      2.888953   7 N  s               130      2.799285   8 H  s         

 Vector   76  Occ=0.000000D+00  E= 9.347698D-02
              MO Center=  9.9D-01,  2.8D+00, -9.8D-01, r^2= 3.5D+01
   Bfn.  Coefficient  Atom+Function         Bfn.  Coefficient  Atom+Function  
  ----- ------------  ---------------      ----- ------------  ---------------
   130      6.568923   8 H  s               425      5.862677  26 C  s         
   216      5.032645  14 H  s               234     -4.779662  15 C  py        
   344     -3.844482  21 C  s                37     -3.620709   3 H  s         
     3      3.590911   1 H  s               317      3.191275  19 C  px        
   300     -3.097350  18 H  s               148     -2.773676   9 C  py        

 Vector   77  Occ=0.000000D+00  E= 1.007462D-01
              MO Center=  4.3D-01, -1.9D+00, -8.5D-02, r^2= 3.9D+01
   Bfn.  Coefficient  Atom+Function         Bfn.  Coefficient  Atom+Function  
  ----- ------------  ---------------      ----- ------------  ---------------
   388      7.370058  24 S  s                56      6.624244   5 C  s         
   174     -5.350444  11 C  s               334     -5.325863  20 H  s         
   344     -4.618440  21 C  s               318      4.211867  19 C  py        
   234      4.117423  15 C  py              425      4.040492  26 C  s         
   508      3.757564  30 H  s               319     -3.351398  19 C  pz        

 Vector   78  Occ=0.000000D+00  E= 1.060468D-01
              MO Center= -1.1D+00,  2.2D-01,  9.4D-01, r^2= 3.6D+01
   Bfn.  Coefficient  Atom+Function         Bfn.  Coefficient  Atom+Function  
  ----- ------------  ---------------      ----- ------------  ---------------
   344     16.897112  21 C  s               425    -14.663983  26 C  s         
    13     10.871944   2 C  s                56     -9.500942   5 C  s         
   300      8.027584  18 H  s               164     -7.592257  10 H  s         
   276      6.061084  17 N  s               317     -5.898479  19 C  px        
   226     -5.744487  15 C  s               319     -5.092272  19 C  pz        

 Vector   79  Occ=0.000000D+00  E= 1.124808D-01
              MO Center=  7.9D-01,  1.4D+00,  7.8D-01, r^2= 3.5D+01
   Bfn.  Coefficient  Atom+Function         Bfn.  Coefficient  Atom+Function  
  ----- ------------  ---------------      ----- ------------  ---------------
    13     13.648821   2 C  s                56    -11.001952   5 C  s         
   148     -9.376853   9 C  py              425     -9.003358  26 C  s         
   344      7.899870  21 C  s               300     -7.213949  18 H  s         
   216      6.743582  14 H  s               226     -6.607307  15 C  s         
   140     -5.794985   9 C  s               317     -5.671115  19 C  px        

 Vector   80  Occ=0.000000D+00  E= 1.175141D-01
              MO Center=  6.0D-01, -2.5D+00,  5.4D-01, r^2= 2.4D+01
   Bfn.  Coefficient  Atom+Function         Bfn.  Coefficient  Atom+Function  
  ----- ------------  ---------------      ----- ------------  ---------------
   226     10.289408  15 C  s               425     -9.109580  26 C  s         
   318     -7.103171  19 C  py              344     -6.810444  21 C  s         
   475      3.598956  28 N  s               234     -3.521332  15 C  py        
   174     -3.089324  11 C  s               368     -2.833009  22 H  s         
   130      2.766584   8 H  s               140      2.758243   9 C  s         

 Vector   81  Occ=0.000000D+00  E= 1.241885D-01
              MO Center= -4.8D-02, -1.7D+00, -4.5D-01, r^2= 3.1D+01
   Bfn.  Coefficient  Atom+Function         Bfn.  Coefficient  Atom+Function  
  ----- ------------  ---------------      ----- ------------  ---------------
   234     15.102920  15 C  py              318     10.257490  19 C  py        
   475      9.118299  28 N  s               344      7.119614  21 C  s         
   226     -6.177068  15 C  s                13     -5.665585   2 C  s         
   334      5.323190  20 H  s               174     -5.117547  11 C  s         
    56      4.656472   5 C  s               425     -4.316642  26 C  s         

 Vector   82  Occ=0.000000D+00  E= 1.269996D-01
              MO Center= -3.8D-01, -6.6D-01, -5.6D-01, r^2= 2.7D+01
   Bfn.  Coefficient  Atom+Function         Bfn.  Coefficient  Atom+Function  
  ----- ------------  ---------------      ----- ------------  ---------------
   344     10.646725  21 C  s               148      7.105757   9 C  py        
    13     -6.327413   2 C  s               317     -5.881496  19 C  px        
   284      5.733560  17 N  py              475     -5.383991  28 N  s         
   318      5.100581  19 C  py              276     -4.870348  17 N  s         
   334     -4.297472  20 H  s               351     -4.130440  21 C  px        

 Vector   83  Occ=0.000000D+00  E= 1.292734D-01
              MO Center= -2.6D-01, -5.1D-01,  1.3D+00, r^2= 3.3D+01
   Bfn.  Coefficient  Atom+Function         Bfn.  Coefficient  Atom+Function  
  ----- ------------  ---------------      ----- ------------  ---------------
   425     23.857831  26 C  s               174     14.072845  11 C  s         
   226    -13.178777  15 C  s               344    -12.396983  21 C  s         
   317     10.782466  19 C  px              149      7.046328   9 C  pz        
   164     -6.785113  10 H  s               432      6.249567  26 C  px        
   147      5.971733   9 C  px              319      5.986679  19 C  pz        

 Vector   84  Occ=0.000000D+00  E= 1.352856D-01
              MO Center=  3.5D-01, -4.7D-01,  2.8D-02, r^2= 3.5D+01
   Bfn.  Coefficient  Atom+Function         Bfn.  Coefficient  Atom+Function  
  ----- ------------  ---------------      ----- ------------  ---------------
   226     13.885154  15 C  s                56     13.348326   5 C  s         
    13    -11.754436   2 C  s               106     -9.192237   7 N  s         
   276     -8.291394  17 N  s               140      8.037801   9 C  s         
   310      7.466554  19 C  s               148      6.598028   9 C  py        
   475     -6.088424  28 N  s                63      5.670101   5 C  px        

 Vector   85  Occ=0.000000D+00  E= 1.439067D-01
              MO Center= -2.0D-01,  2.0D-01, -7.7D-01, r^2= 3.4D+01
   Bfn.  Coefficient  Atom+Function         Bfn.  Coefficient  Atom+Function  
  ----- ------------  ---------------      ----- ------------  ---------------
   425     18.826383  26 C  s               174     16.149703  11 C  s         
   147     10.157869   9 C  px              344     -7.574331  21 C  s         
    64      6.910852   5 C  py               56     -6.015556   5 C  s         
   148      5.887156   9 C  py              226     -5.868564  15 C  s         
   475     -5.349182  28 N  s               181      5.138065  11 C  px        

 Vector   86  Occ=0.000000D+00  E= 1.475133D-01
              MO Center=  2.9D-01, -1.4D+00, -1.3D-01, r^2= 3.1D+01
   Bfn.  Coefficient  Atom+Function         Bfn.  Coefficient  Atom+Function  
  ----- ------------  ---------------      ----- ------------  ---------------
   344      9.392151  21 C  s               475      7.413107  28 N  s         
    56     -5.692770   5 C  s               226     -5.502568  15 C  s         
   318      5.515887  19 C  py              106      5.339428   7 N  s         
   425     -4.993054  26 C  s               433      4.347513  26 C  py        
   352     -4.016775  21 C  py              233      2.984675  15 C  px        

 Vector   87  Occ=0.000000D+00  E= 1.491329D-01
              MO Center=  6.1D-01, -6.4D-01,  2.4D-01, r^2= 4.0D+01
   Bfn.  Coefficient  Atom+Function         Bfn.  Coefficient  Atom+Function  
  ----- ------------  ---------------      ----- ------------  ---------------
   425    -11.773017  26 C  s               226     11.338672  15 C  s         
    64     10.186465   5 C  py              475      8.008997  28 N  s         
   148      7.966324   9 C  py               13     -7.563680   2 C  s         
   140      6.978692   9 C  s               114      5.577240   7 N  py        
   147      5.421414   9 C  px               56     -3.728890   5 C  s         

 Vector   88  Occ=0.000000D+00  E= 1.497183D-01
              MO Center= -9.1D-01,  1.4D+00, -1.4D+00, r^2= 2.7D+01
   Bfn.  Coefficient  Atom+Function         Bfn.  Coefficient  Atom+Function  
  ----- ------------  ---------------      ----- ------------  ---------------
   226     11.085647  15 C  s               106     -8.359362   7 N  s         
   148      8.223903   9 C  py              425     -6.922810  26 C  s         
    56      5.756493   5 C  s               140      4.570803   9 C  s         
   344      3.317828  21 C  s               475      3.300779  28 N  s         
   164      3.254682  10 H  s               317     -3.212783  19 C  px        

 Vector   89  Occ=0.000000D+00  E= 1.525087D-01
              MO Center= -4.0D-01, -2.9D-01,  4.7D-01, r^2= 2.7D+01
   Bfn.  Coefficient  Atom+Function         Bfn.  Coefficient  Atom+Function  
  ----- ------------  ---------------      ----- ------------  ---------------
   148     12.249783   9 C  py               64      8.480991   5 C  py        
   276      8.485142  17 N  s               226     -7.285435  15 C  s         
    13     -6.736933   2 C  s               284      6.407052  17 N  py        
   147      6.317270   9 C  px               56     -5.922748   5 C  s         
    63      5.696991   5 C  px              300      5.551737  18 H  s         

 Vector   90  Occ=0.000000D+00  E= 1.545928D-01
              MO Center=  2.1D-02,  1.3D+00, -6.8D-01, r^2= 3.5D+01
   Bfn.  Coefficient  Atom+Function         Bfn.  Coefficient  Atom+Function  
  ----- ------------  ---------------      ----- ------------  ---------------
    56     10.772104   5 C  s               174     -7.827625  11 C  s         
   106     -7.592963   7 N  s               148      6.406929   9 C  py        
   226      5.963644  15 C  s                13     -5.710749   2 C  s         
   425     -5.396355  26 C  s               164      5.016019  10 H  s         
   318      4.900175  19 C  py              149     -4.407081   9 C  pz        

 Vector   91  Occ=0.000000D+00  E= 1.592143D-01
              MO Center= -4.7D-01,  2.2D-01,  1.7D-02, r^2= 3.7D+01
   Bfn.  Coefficient  Atom+Function         Bfn.  Coefficient  Atom+Function  
  ----- ------------  ---------------      ----- ------------  ---------------
   425     14.691799  26 C  s               344    -10.910814  21 C  s         
    13     -9.273380   2 C  s                64      8.663238   5 C  py        
   475     -7.127787  28 N  s               334      4.862584  20 H  s         
   317      4.713488  19 C  px              319      4.705291  19 C  pz        
   300      4.528563  18 H  s               148      3.842162   9 C  py        

 Vector   92  Occ=0.000000D+00  E= 1.626936D-01
              MO Center= -6.8D-01, -9.4D-02, -1.5D-01, r^2= 2.9D+01
   Bfn.  Coefficient  Atom+Function         Bfn.  Coefficient  Atom+Function  
  ----- ------------  ---------------      ----- ------------  ---------------
   344     10.394331  21 C  s               234      6.180838  15 C  py        
   317     -5.948234  19 C  px              226     -5.709005  15 C  s         
   318      5.353410  19 C  py              433     -5.181260  26 C  py        
   334      4.883295  20 H  s               216      4.127351  14 H  s         
   425     -3.246405  26 C  s               174      3.022586  11 C  s         

 Vector   93  Occ=0.000000D+00  E= 1.676355D-01
              MO Center=  6.6D-01,  1.3D+00,  5.7D-01, r^2= 3.0D+01
   Bfn.  Coefficient  Atom+Function         Bfn.  Coefficient  Atom+Function  
  ----- ------------  ---------------      ----- ------------  ---------------
   318      8.657404  19 C  py               56      7.340631   5 C  s         
    13     -6.838801   2 C  s               425      6.207671  26 C  s         
[...]

 Vector  152  Occ=0.000000D+00  E= 4.249952D-01
              MO Center= -2.1D-01,  2.4D+00, -4.3D-01, r^2= 1.8D+01
   Bfn.  Coefficient  Atom+Function         Bfn.  Coefficient  Atom+Function  
  ----- ------------  ---------------      ----- ------------  ---------------
    56      9.693469   5 C  s               318      7.718967  19 C  py        
    45     -6.014647   4 H  s                12      4.931437   2 C  s         
    63      4.781759   5 C  px              225      4.754871  15 C  s         
   276     -4.557824  17 N  s                55      4.398780   5 C  s         
   344      4.238869  21 C  s                64      4.119157   5 C  py        

 Vector  153  Occ=0.000000D+00  E= 4.322960D-01
              MO Center=  7.0D-01,  9.4D-01, -2.3D-01, r^2= 2.3D+01
   Bfn.  Coefficient  Atom+Function         Bfn.  Coefficient  Atom+Function  
  ----- ------------  ---------------      ----- ------------  ---------------
   425     18.048266  26 C  s                56     13.723704   5 C  s         
   318      9.257947  19 C  py              234      8.989098  15 C  py        
   226     -8.075797  15 C  s               317      5.983496  19 C  px        
   148     -5.401008   9 C  py               13     -5.339400   2 C  s         
   106     -5.291205   7 N  s               233     -4.965249  15 C  px        

 Vector  154  Occ=0.000000D+00  E= 4.347874D-01
              MO Center=  7.6D-01, -3.3D-01, -1.4D-01, r^2= 2.2D+01
   Bfn.  Coefficient  Atom+Function         Bfn.  Coefficient  Atom+Function  
  ----- ------------  ---------------      ----- ------------  ---------------
   425     19.419221  26 C  s               344    -13.972194  21 C  s         
   318     11.965191  19 C  py              317     10.852332  19 C  px        
    56      9.401082   5 C  s                13     -8.238773   2 C  s         
   226     -7.580935  15 C  s               276      5.477691  17 N  s         
   367      4.726112  22 H  s                64      4.327632   5 C  py        

 Vector  155  Occ=0.000000D+00  E= 4.423537D-01
              MO Center=  3.7D-01,  2.0D+00,  3.8D-01, r^2= 2.4D+01
   Bfn.  Coefficient  Atom+Function         Bfn.  Coefficient  Atom+Function  
  ----- ------------  ---------------      ----- ------------  ---------------
   344     16.582315  21 C  s               425    -12.915001  26 C  s         
   148     10.409439   9 C  py              284      6.833038  17 N  py        
    56     -5.741018   5 C  s               163     -5.539523  10 H  s         
   149      5.208212   9 C  pz              164     -4.454303  10 H  s         
   450      4.383058  27 O  s                36     -4.264489   3 H  s         

 Vector  156  Occ=0.000000D+00  E= 4.472874D-01
              MO Center=  9.0D-02, -8.4D-02,  4.6D-01, r^2= 2.2D+01
   Bfn.  Coefficient  Atom+Function         Bfn.  Coefficient  Atom+Function  
  ----- ------------  ---------------      ----- ------------  ---------------
   344     14.235527  21 C  s               425    -13.761290  26 C  s         
    13     -8.724488   2 C  s               475      8.092160  28 N  s         
   284      7.608585  17 N  py              226      6.917032  15 C  s         
   234      6.466665  15 C  py              148      6.373948   9 C  py        
   174     -5.584953  11 C  s               343     -5.398308  21 C  s         

 Vector  157  Occ=0.000000D+00  E= 4.493557D-01
              MO Center=  4.7D-01,  1.5D+00,  2.4D-01, r^2= 2.3D+01
   Bfn.  Coefficient  Atom+Function         Bfn.  Coefficient  Atom+Function  
  ----- ------------  ---------------      ----- ------------  ---------------
   344     15.617126  21 C  s               276      9.898023  17 N  s         
    13      9.412881   2 C  s               284      9.207532  17 N  py        
   318     -8.828697  19 C  py               56     -8.049261   5 C  s         
   425     -8.081589  26 C  s               235     -7.057670  15 C  pz        
   352      6.558118  21 C  py              149      6.460564   9 C  pz        

 Vector  158  Occ=0.000000D+00  E= 4.524204D-01
              MO Center= -6.0D-01,  1.8D+00, -2.3D-01, r^2= 1.9D+01
   Bfn.  Coefficient  Atom+Function         Bfn.  Coefficient  Atom+Function  
  ----- ------------  ---------------      ----- ------------  ---------------
   425     26.529534  26 C  s               174     20.163677  11 C  s         
   226    -14.096222  15 C  s               148     13.048388   9 C  py        
   318     10.840436  19 C  py              106     -9.428518   7 N  s         
   197     -8.405974  12 H  s               276      8.256512  17 N  s         
   317      8.011874  19 C  px              344     -7.974713  21 C  s         

 Vector  159  Occ=0.000000D+00  E= 4.547776D-01
              MO Center= -1.2D-01,  5.1D-01,  2.2D-01, r^2= 2.4D+01
   Bfn.  Coefficient  Atom+Function         Bfn.  Coefficient  Atom+Function  
  ----- ------------  ---------------      ----- ------------  ---------------
   344     13.258669  21 C  s               173     10.223729  11 C  s         
   276     -9.988382  17 N  s               318      9.394826  19 C  py        
    12     -7.268479   2 C  s               197     -6.872726  12 H  s         
   149     -6.748410   9 C  pz              215     -6.746222  14 H  s         
   206     -6.624610  13 H  s               352     -6.637319  21 C  py        

 Vector  160  Occ=0.000000D+00  E= 4.605378D-01
              MO Center= -2.0D-01,  5.5D-01, -1.2D-01, r^2= 2.1D+01
   Bfn.  Coefficient  Atom+Function         Bfn.  Coefficient  Atom+Function  
  ----- ------------  ---------------      ----- ------------  ---------------
    13     23.898988   2 C  s               226    -22.924250  15 C  s         
   174     20.637809  11 C  s                56    -17.170122   5 C  s         
   276     16.289286  17 N  s               140    -14.979487   9 C  s         
    12      9.936100   2 C  s               310     -8.609349  19 C  s         
    64     -7.900986   5 C  py               36     -6.993882   3 H  s         

 Vector  161  Occ=0.000000D+00  E= 4.662694D-01
              MO Center= -4.8D-01, -2.0D-01, -1.7D-01, r^2= 2.3D+01
   Bfn.  Coefficient  Atom+Function         Bfn.  Coefficient  Atom+Function  
  ----- ------------  ---------------      ----- ------------  ---------------
   425     21.266736  26 C  s               226    -17.554869  15 C  s         
   276      9.362475  17 N  s               318      9.183603  19 C  py        
   114     -7.861854   7 N  py              475     -6.238515  28 N  s         
   149      5.096482   9 C  pz              450     -4.993763  27 O  s         
   215      4.406152  14 H  s               317      4.393811  19 C  px        

 Vector  162  Occ=0.000000D+00  E= 4.678290D-01
              MO Center= -1.9D-01,  9.7D-01, -8.5D-03, r^2= 2.1D+01
   Bfn.  Coefficient  Atom+Function         Bfn.  Coefficient  Atom+Function  
  ----- ------------  ---------------      ----- ------------  ---------------
   226     12.461504  15 C  s               234    -12.123395  15 C  py        
   148     11.815791   9 C  py              344    -10.180128  21 C  s         
   106     -6.741932   7 N  s               376      5.605020  23 H  s         
    12     -5.320990   2 C  s               173      5.013871  11 C  s         
   197     -4.406739  12 H  s               140      4.339813   9 C  s         

 Vector  163  Occ=0.000000D+00  E= 4.714619D-01
              MO Center= -3.2D-01,  1.0D-01,  2.5D-01, r^2= 2.1D+01
   Bfn.  Coefficient  Atom+Function         Bfn.  Coefficient  Atom+Function  
  ----- ------------  ---------------      ----- ------------  ---------------
   425     23.047526  26 C  s               344    -16.892578  21 C  s         
   226    -13.373269  15 C  s               148    -11.181785   9 C  py        
   318      9.568321  19 C  py              376      9.476105  23 H  s         
   106      8.807135   7 N  s               317      7.858915  19 C  px        
   475     -7.875731  28 N  s               234     -7.374122  15 C  py        

 Vector  164  Occ=0.000000D+00  E= 4.770733D-01
              MO Center= -1.4D-01, -2.0D-01, -1.2D-01, r^2= 2.0D+01
   Bfn.  Coefficient  Atom+Function         Bfn.  Coefficient  Atom+Function  
  ----- ------------  ---------------      ----- ------------  ---------------
   344      9.210695  21 C  s               425     -8.984496  26 C  s         
   376     -5.794473  23 H  s               333     -5.072418  20 H  s         
   317     -4.926897  19 C  px              206      4.547244  13 H  s         
    13     -4.412983   2 C  s               173     -4.386872  11 C  s         
    64      4.364256   5 C  py              475      4.375174  28 N  s         

 Vector  165  Occ=0.000000D+00  E= 4.816313D-01
              MO Center=  1.1D-01,  1.0D+00, -4.7D-01, r^2= 2.1D+01
   Bfn.  Coefficient  Atom+Function         Bfn.  Coefficient  Atom+Function  
  ----- ------------  ---------------      ----- ------------  ---------------
    13     14.479921   2 C  s               148    -10.392519   9 C  py        
   226    -10.323043  15 C  s               140     -7.395000   9 C  s         
    36     -6.058142   3 H  s                63     -5.658819   5 C  px        
   318     -5.559353  19 C  py               64     -5.413623   5 C  py        
   163      5.281202  10 H  s               206      4.963144  13 H  s         

 Vector  166  Occ=0.000000D+00  E= 4.843932D-01
              MO Center=  7.4D-02, -9.4D-01,  5.7D-02, r^2= 2.0D+01
   Bfn.  Coefficient  Atom+Function         Bfn.  Coefficient  Atom+Function  
  ----- ------------  ---------------      ----- ------------  ---------------
   344     20.797169  21 C  s               226    -13.123456  15 C  s         
   148     -7.639813   9 C  py              475      7.124841  28 N  s         
   367     -7.076247  22 H  s               234      6.987844  15 C  py        
   319     -6.310894  19 C  pz              318      6.032426  19 C  py        
   425     -5.756128  26 C  s               140     -5.396742   9 C  s         

 Vector  167  Occ=0.000000D+00  E= 4.919201D-01
              MO Center= -4.9D-01,  6.8D-02, -6.4D-02, r^2= 2.1D+01
   Bfn.  Coefficient  Atom+Function         Bfn.  Coefficient  Atom+Function  
  ----- ------------  ---------------      ----- ------------  ---------------
   226    -16.586283  15 C  s                13     16.193305   2 C  s         
   140    -10.005884   9 C  s               106      9.586263   7 N  s         
    64     -8.467241   5 C  py              276      8.022506  17 N  s         
    63     -6.285405   5 C  px              234     -6.123258  15 C  py        
    12      5.953680   2 C  s               163      5.732326  10 H  s         

 Vector  168  Occ=0.000000D+00  E= 4.967262D-01
              MO Center= -3.9D-01,  1.1D+00, -6.7D-01, r^2= 2.1D+01
   Bfn.  Coefficient  Atom+Function         Bfn.  Coefficient  Atom+Function  
  ----- ------------  ---------------      ----- ------------  ---------------
   318     12.859141  19 C  py               56     10.246619   5 C  s         
   226    -10.292549  15 C  s               206      8.316828  13 H  s         
   425      7.932267  26 C  s               344      6.856994  21 C  s         
   234     -6.302446  15 C  py              284      5.933024  17 N  py        
   148      5.876160   9 C  py              276     -5.771437  17 N  s         

 Vector  169  Occ=0.000000D+00  E= 5.039605D-01
              MO Center= -2.7D-01,  1.1D+00, -5.2D-01, r^2= 2.0D+01
   Bfn.  Coefficient  Atom+Function         Bfn.  Coefficient  Atom+Function  
  ----- ------------  ---------------      ----- ------------  ---------------
    13     31.028135   2 C  s               148    -19.493205   9 C  py        
   425    -17.869067  26 C  s               318    -12.295276  19 C  py        
    64    -12.116267   5 C  py               63    -11.793777   5 C  px        
    56    -11.198400   5 C  s               106     10.398152   7 N  s         
   140     -8.562580   9 C  s               251     -7.502226  16 O  s         


 center of mass
 --------------
 x =  -0.00102617 y =  -0.07376305 z =   0.02777785

 moments of inertia (a.u.)
 ------------------
        8374.677477377945           0.000000000001          -0.000000000000
           0.000000000001        1753.686938053475           0.000000000000
          -0.000000000000           0.000000000000        9470.147789985505

  Mulliken analysis of the total density
  --------------------------------------

    Atom       Charge   Shell Charges
 -----------   ------   -------------------------------------------------------
    1 H    1     1.01   0.76  0.25  0.01  0.03 -0.05
    2 C    6     6.23   2.01  0.66  0.19  0.14  2.06  1.04 -0.02  0.06  0.09
    3 H    1     0.86   0.76  0.13 -0.00  0.03 -0.06
    4 H    1     0.88   0.76  0.14 -0.00  0.03 -0.06
    5 C    6     5.18   2.01  0.68  0.11 -0.02  1.90  0.31 -0.07  0.24  0.03
    6 O    8     8.70   2.01  0.82  0.99  0.15  2.79  1.82  0.13  0.01 -0.02
    7 N    7     7.49   2.01  0.72  0.85 -0.11  2.46  1.45  0.02  0.05  0.05
    8 H    1     1.02   0.75  0.23  0.00  0.06 -0.03
    9 C    6     6.48   2.01  0.66  0.17  0.09  2.00  1.44 -0.16  0.14  0.13
   10 H    1     1.13   0.78  0.32  0.01  0.03 -0.00
   11 C    6     5.58   2.01  0.66  0.17  0.17  2.04  0.46  0.00  0.07 -0.01
   12 H    1     1.02   0.77  0.28  0.00  0.03 -0.06
   13 H    1     0.89   0.77  0.16  0.00  0.03 -0.07
   14 H    1     0.89   0.77  0.15  0.01  0.03 -0.07
   15 C    6     4.86   2.01  0.68 -0.01  0.19  1.89  0.09  0.08  0.23 -0.29
   16 O    8     8.80   2.01  0.82  1.02  0.16  2.79  1.86  0.14  0.01 -0.01
   17 N    7     7.44   2.01  0.72  0.89 -0.20  2.45  1.47  0.01  0.05  0.04
   18 H    1     1.00   0.75  0.23 -0.01  0.06 -0.03
   19 C    6     6.31   2.01  0.66  0.19  0.03  2.00  1.19  0.04  0.14  0.06
   20 H    1     1.21   0.78  0.39 -0.01  0.03  0.03
   21 C    6     5.52   2.01  0.66 -0.14 -0.09  1.99  1.07 -0.00  0.10 -0.07
   22 H    1     1.21   0.76  0.42  0.00  0.03 -0.01
   23 H    1     1.16   0.77  0.38 -0.00  0.03 -0.02
   24 S   16    15.64   2.00  2.03  0.87  0.72  0.05  6.00  2.31  1.65  0.05  0.10 -0.14
   25 H    1     0.97   0.71  0.19  0.01  0.03  0.03
   26 C    6     4.63   2.01  0.68  0.08  0.05  1.89 -0.14 -0.02  0.23 -0.14
   27 O    8     8.78   2.01  0.82  1.02  0.16  2.79  1.84  0.13  0.01 -0.00
   28 N    7     7.20   2.01  0.72  0.83 -0.16  2.47  1.25  0.07  0.04 -0.02
   29 H    1     0.98   0.75  0.21 -0.01  0.05 -0.02
   30 H    1     0.92   0.74  0.18 -0.01  0.06 -0.05

       Multipole analysis of the density wrt the origin
       ------------------------------------------------

     L   x y z        total         open         nuclear
     -   - - -        -----         ----         -------
     0   0 0 0     -0.000000      0.000000    124.000000

     1   1 0 0      0.734339      0.000000      0.000000
     1   0 1 0     -1.281898      0.000000      0.000000
     1   0 0 1     -1.104200      0.000000      0.000000

     2   2 0 0    -77.302772      0.000000    787.619120
     2   1 1 0      5.860155      0.000000     20.354335
     2   1 0 1      3.402474      0.000000      7.312328
     2   0 2 0    -70.761717      0.000000   4343.625489
     2   0 1 1     -3.705093      0.000000    -10.154015
     2   0 0 2    -75.767383      0.000000    191.590696


 Task  times  cpu:     3235.2s     wall:     3398.2s


                                NWChem Input Module
                                -------------------


 Summary of allocated global arrays
-----------------------------------
  No active global arrays


MA_summarize_allocated_blocks: starting scan ...
MA_summarize_allocated_blocks: scan completed: 0 heap blocks, 0 stack blocks
MA usage statistics:

	allocation statistics:
					      heap	     stack
					      ----	     -----
	current number of blocks	         0	         0
	maximum number of blocks	        16	        14
	current total bytes		         0	         0
	maximum total bytes		    118712	  31124984
	maximum total K-bytes		       119	     31125
	maximum total M-bytes		         1	        32


                                     CITATION
                                     --------
                Please cite the following reference when publishing
                           results obtained with NWChem:

          E. Apra, E. J. Bylaska, W. A. de Jong, N. Govind, K. Kowalski,
       T. P. Straatsma, M. Valiev, H. J. J. van Dam, Y. Alexeev, J. Anchell,
       V. Anisimov, F. W. Aquino, R. Atta-Fynn, J. Autschbach, N. P. Bauman,
     J. C. Becca, D. E. Bernholdt, K. Bhaskaran-Nair, S. Bogatko, P. Borowski,
         J. Boschen, J. Brabec, A. Bruner, E. Cauet, Y. Chen, G. N. Chuev,
      C. J. Cramer, J. Daily, M. J. O. Deegan, T. H. Dunning Jr., M. Dupuis,
   K. G. Dyall, G. I. Fann, S. A. Fischer, A. Fonari, H. Fruchtl, L. Gagliardi,
      J. Garza, N. Gawande, S. Ghosh, K. Glaesemann, A. W. Gotz, J. Hammond,
       V. Helms, E. D. Hermes, K. Hirao, S. Hirata, M. Jacquelin, L. Jensen,
   B. G. Johnson, H. Jonsson, R. A. Kendall, M. Klemm, R. Kobayashi, V. Konkov,
      S. Krishnamoorthy, M. Krishnan, Z. Lin, R. D. Lins, R. J. Littlefield,
      A. J. Logsdail, K. Lopata, W. Ma, A. V. Marenich, J. Martin del Campo,
   D. Mejia-Rodriguez, J. E. Moore, J. M. Mullin, T. Nakajima, D. R. Nascimento,
    J. A. Nichols, P. J. Nichols, J. Nieplocha, A. Otero-de-la-Roza, B. Palmer,
    A. Panyala, T. Pirojsirikul, B. Peng, R. Peverati, J. Pittner, L. Pollack,
   R. M. Richard, P. Sadayappan, G. C. Schatz, W. A. Shelton, D. W. Silverstein,
   D. M. A. Smith, T. A. Soares, D. Song, M. Swart, H. L. Taylor, G. S. Thomas,
            V. Tipparaju, D. G. Truhlar, K. Tsemekhman, T. Van Voorhis,
      A. Vazquez-Mayagoitia, P. Verma, O. Villa, A. Vishnu, K. D. Vogiatzis,
        D. Wang, J. H. Weare, M. J. Williamson, T. L. Windus, K. Wolinski,
        A. T. Wong, Q. Wu, C. Yang, Q. Yu, M. Zacharias, Z. Zhang, Y. Zhao,
                                and R. J. Harrison
                        "NWChem: Past, present, and future
                         J. Chem. Phys. 152, 184102 (2020)
                               doi:10.1063/5.0004997

                                      AUTHORS
                                      -------
  E. Apra, E. J. Bylaska, N. Govind, K. Kowalski, M. Valiev, D. Mejia-Rodriguez,
       A. Kunitsa, N. P. Bauman, A. Panyala, W. A. de Jong, T. P. Straatsma,
   H. J. J. van Dam, D. Wang, T. L. Windus, J. Hammond, J. Autschbach, A. Woods,
    K. Bhaskaran-Nair, J. Brabec, K. Lopata, S. A. Fischer, S. Krishnamoorthy,
     M. Jacquelin, W. Ma, M. Klemm, O. Villa, Y. Chen, V. Anisimov, F. Aquino,
     S. Hirata, M. T. Hackler, E. Hermes, L. Jensen, J. E. Moore, J. C. Becca,
      V. Konjkov, T. Risthaus, M. Malagoli, A. Marenich, A. Otero-de-la-Roza,
        J. Mullin, P. Nichols, R. Peverati, J. Pittner, Y. Zhao, P.-D. Fan,
        A. Fonari, M. J. Williamson, R. J. Harrison, J. R. Rehr, M. Dupuis,
     D. Silverstein, D. M. A. Smith, J. Nieplocha, V. Tipparaju, M. Krishnan,
     B. E. Van Kuiken, A. Vazquez-Mayagoitia, M. Swart, Q. Wu, T. Van Voorhis,
     A. A. Auer, M. Nooijen, L. D. Crosby, E. Brown, G. Cisneros, G. I. Fann,
   H. Fruchtl, J. Garza, K. Hirao, R. A. Kendall, J. A. Nichols, K. Tsemekhman,
    K. Wolinski, J. Anchell, D. E. Bernholdt, P. Borowski, T. Clark, D. Clerc,
   H. Dachsel, M. J. O. Deegan, K. Dyall, D. Elwood, E. Glendening, M. Gutowski,
   A. C. Hess, J. Jaffe, B. G. Johnson, J. Ju, R. Kobayashi, R. Kutteh, Z. Lin,
   R. Littlefield, X. Long, B. Meng, T. Nakajima, S. Niu, L. Pollack, M. Rosing,
   K. Glaesemann, G. Sandrone, M. Stave, H. Taylor, G. Thomas, J. H. van Lenthe,
                               A. T. Wong, Z. Zhang.

 Total times  cpu:     3235.3s     wall:     3398.9s
