export TMOUT=5400
export TMPDIR=/tmp
export PTMPDIR=/tmp/ptmp
 argument  1 = ALA_ALA_5.nw
                                         
                                         


             Northwest Computational Chemistry Package (NWChem) 7.2.0
             --------------------------------------------------------


                    Environmental Molecular Sciences Laboratory
                       Pacific Northwest National Laboratory
                                Richland, WA 99352

                              Copyright (c) 1994-2022
                       Pacific Northwest National Laboratory
                            Battelle Memorial Institute

             NWChem is an open-source computational chemistry package
                        distributed under the terms of the
                      Educational Community License (ECL) 2.0
             A copy of the license is included with this distribution
                              in the LICENSE.TXT file

                                  ACKNOWLEDGMENT
                                  --------------

            This software and its documentation were developed at the
            EMSL at Pacific Northwest National Laboratory, a multiprogram
            national laboratory, operated for the U.S. Department of Energy
            by Battelle under Contract Number DE-AC05-76RL01830. Support
            for this work was provided by the Department of Energy Office
            of Biological and Environmental Research, Office of Basic
            Energy Sciences, and the Office of Advanced Scientific Computing.


           Job information
           ---------------

    hostname        = nova18-24
    program         = /opt/rit/el9/20230413/app/linux-rhel9-x86_64_v3/gcc-11.2.1/nwchem-7.2.0-oxtctbuhfuzyfaoziquq6bki22grib3g/bin/nwchem
    date            = Tue Jun 24 13:50:43 2025

    compiled        = Wed_May_17_23:46:39_2023
    source          = /tmp/root/spack-stage/spack-stage-nwchem-7.2.0-oxtctbuhfuzyfaoziquq6bki22grib3g/spack-src
    nwchem branch   = 7.2.0
    nwchem revision = d0d141fd
    ga revision     = 5.8.0
    use scalapack   = T
    input           = ALA_ALA_5.nw
    prefix          = ALA_ALA_5.
    data base       = ./ALA_ALA_5.db
    status          = startup
    nproc           =        8
    time left       =     -1s



           Memory information
           ------------------

    heap     =   26214400 doubles =    200.0 Mbytes
    stack    =   26214397 doubles =    200.0 Mbytes
    global   =   52428800 doubles =    400.0 Mbytes (distinct from heap & stack)
    total    =  104857597 doubles =    800.0 Mbytes
    verify   = yes
    hardfail = no 


           Directory information
           ---------------------

  0 permanent = .
  0 scratch   = .




                                NWChem Input Module
                                -------------------



 Scaling coordinates for geometry "geometry" by  1.889725989
 (inverse scale =  0.529177249)

 C1  symmetry detected

          ------
          auto-z
          ------
  no constraints, skipping    0.0000000000000000     
  no constraints, skipping    0.0000000000000000     


                             Geometry "geometry" -> ""
                             -------------------------

 Output coordinates in angstroms (scale by  1.889725989 to convert to a.u.)

  No.       Tag          Charge          X              Y              Z
 ---- ---------------- ---------- -------------- -------------- --------------
    1 H                    1.0000     3.00578447    -3.14179028     0.14844910
    2 C                    6.0000     1.99042640    -3.33400686     0.49436350
    3 H                    1.0000     1.94626753    -3.21070799     1.57498063
    4 H                    1.0000     1.69776448    -4.34627104     0.22254882
    5 C                    6.0000     1.05358437    -2.34607504    -0.15808476
    6 O                    8.0000     1.48916125    -1.49428754    -0.92538968
    7 N                    7.0000    -0.23816372    -2.44973819     0.14945193
    8 H                    1.0000    -0.52156922    -3.13908337     0.82355619
    9 C                    6.0000    -1.24603246    -1.51248435    -0.34758413
   10 H                    1.0000    -1.22250470    -1.53327344    -1.43855034
   11 C                    6.0000    -2.63248131    -1.98093773     0.11100174
   12 H                    1.0000    -2.68398633    -1.97939114     1.20096864
   13 H                    1.0000    -3.39405159    -1.30393019    -0.27792819
   14 H                    1.0000    -2.82860210    -2.98659862    -0.26090391
   15 C                    6.0000    -0.93549366    -0.07646415     0.11809457
   16 O                    8.0000    -0.78372447     0.16646681     1.31323835
   17 N                    7.0000    -0.82641361     0.85635722    -0.83514403
   18 H                    1.0000    -0.94918068     0.55793050    -1.78864324
   19 C                    6.0000    -0.38929485     2.24540145    -0.62707118
   20 H                    1.0000    -0.28930263     2.68297038    -1.62019000
   21 C                    6.0000    -1.50024873     3.03837947     0.08199887
   22 H                    1.0000    -2.44595922     2.91308046    -0.44590437
   23 H                    1.0000    -1.61057430     2.69166524     1.10996945
   24 H                    1.0000    -1.24130902     4.09760838     0.09737227
   25 C                    6.0000     1.01289828     2.41789476     0.01563753
   26 O                    8.0000     1.37894088     3.51252934     0.42754644
   27 N                    7.0000     1.84172632     1.38131968     0.07963119
   28 H                    1.0000     1.56034287     0.47302187    -0.26234607
   29 H                    1.0000     2.74166797     1.52128422     0.50574967

      Atomic Mass 
      ----------- 

      H                  1.007825
      C                 12.000000
      O                 15.994910
      N                 14.003070


 Effective nuclear repulsion energy (a.u.)     972.1107003330

            Nuclear Dipole moment (a.u.) 
            ----------------------------
        X                 Y               Z
 ---------------- ---------------- ----------------
    -0.0000000000     0.0000000000     0.0000000000



                                Z-matrix (autoz)
                                -------- 

 Units are Angstrom for bonds and degrees for angles

      Type          Name      I     J     K     L     M      Value
      ----------- --------  ----- ----- ----- ----- ----- ----------
    1 Stretch                  1     2                       1.08975
    2 Stretch                  2     3                       1.08852
    3 Stretch                  2     4                       1.08822
    4 Stretch                  2     5                       1.50976
    5 Stretch                  5     6                       1.22639
    6 Stretch                  5     7                       1.33189
    7 Stretch                  7     8                       1.00495
    8 Stretch                  7     9                       1.46331
    9 Stretch                  9    10                       1.09142
   10 Stretch                  9    11                       1.53362
   11 Stretch                  9    15                       1.54125
   12 Stretch                 11    12                       1.09118
   13 Stretch                 11    13                       1.09069
   14 Stretch                 11    14                       1.09001
   15 Stretch                 15    16                       1.22899
   16 Stretch                 15    17                       1.33818
   17 Stretch                 17    18                       1.00662
   18 Stretch                 17    19                       1.47099
   19 Stretch                 19    20                       1.08984
   20 Stretch                 19    21                       1.53812
   21 Stretch                 19    25                       1.55209
   22 Stretch                 21    22                       1.09030
   23 Stretch                 21    23                       1.09046
   24 Stretch                 21    24                       1.09053
   25 Stretch                 25    26                       1.22551
   26 Stretch                 25    27                       1.32874
   27 Stretch                 27    28                       1.01051
   28 Stretch                 27    29                       1.00552
   29 Bend                     1     2     3               109.44721
   30 Bend                     1     2     4               109.59485
   31 Bend                     1     2     5               108.99992
   32 Bend                     2     5     6               120.29679
   33 Bend                     2     5     7               116.81465
   34 Bend                     3     2     4               110.02446
   35 Bend                     3     2     5               109.25182
   36 Bend                     4     2     5               109.50368
   37 Bend                     5     7     8               118.80182
   38 Bend                     5     7     9               122.66440
   39 Bend                     6     5     7               122.88743
   40 Bend                     7     9    10               108.20853
   41 Bend                     7     9    11               108.99285
   42 Bend                     7     9    15               110.81605
   43 Bend                     8     7     9               118.22627
   44 Bend                     9    11    12               109.93335
   45 Bend                     9    11    13               109.57328
   46 Bend                     9    11    14               110.02634
   47 Bend                     9    15    16               120.19045
   48 Bend                     9    15    17               116.78764
   49 Bend                    10     9    11               108.21407
   50 Bend                    10     9    15               108.38634
   51 Bend                    11     9    15               112.11110
   52 Bend                    12    11    13               108.80550
   53 Bend                    12    11    14               109.48912
   54 Bend                    13    11    14               108.98874
   55 Bend                    15    17    18               117.26757
   56 Bend                    15    17    19               125.57105
   57 Bend                    16    15    17               123.01553
   58 Bend                    17    19    20               106.11098
   59 Bend                    17    19    21               109.71891
   60 Bend                    17    19    25               115.59330
   61 Bend                    18    17    19               116.75491
   62 Bend                    19    21    22               110.12330
   63 Bend                    19    21    23               110.10459
   64 Bend                    19    21    24               109.61820
   65 Bend                    19    25    26               120.54991
   66 Bend                    19    25    27               119.78680
   67 Bend                    20    19    21               106.22211
   68 Bend                    20    19    25               104.46767
   69 Bend                    21    19    25               113.84935
   70 Bend                    22    21    23               109.39869
   71 Bend                    22    21    24               108.92954
   72 Bend                    23    21    24               108.63632
   73 Bend                    25    27    28               120.74516
   74 Bend                    25    27    29               118.04069
   75 Bend                    26    25    27               119.62423
   76 Bend                    28    27    29               121.18169
   77 Torsion                  1     2     5     6          -0.92825
   78 Torsion                  1     2     5     7         179.44729
   79 Torsion                  2     5     7     8           2.87268
   80 Torsion                  2     5     7     9         176.38647
   81 Torsion                  3     2     5     6         118.62524
   82 Torsion                  3     2     5     7         -60.99922
   83 Torsion                  4     2     5     6        -120.81181
   84 Torsion                  4     2     5     7          59.56373
   85 Torsion                  5     7     9    10          58.41235
   86 Torsion                  5     7     9    11         175.87756
   87 Torsion                  5     7     9    15         -60.29257
   88 Torsion                  6     5     7     8        -176.74119
   89 Torsion                  6     5     7     9          -3.22740
   90 Torsion                  7     9    11    12          62.03619
   91 Torsion                  7     9    11    13        -178.43413
   92 Torsion                  7     9    11    14         -58.62181
   93 Torsion                  7     9    15    16         -54.64851
   94 Torsion                  7     9    15    17         124.45997
   95 Torsion                  8     7     9    10        -128.03840
   96 Torsion                  8     7     9    11         -10.57319
   97 Torsion                  8     7     9    15         113.25667
   98 Torsion                  9    15    17    18          -0.31187
   99 Torsion                  9    15    17    19        -172.72859
  100 Torsion                 10     9    11    12         179.49788
  101 Torsion                 10     9    11    13         -60.97244
  102 Torsion                 10     9    11    14          58.83989
  103 Torsion                 10     9    15    16        -173.24582
  104 Torsion                 10     9    15    17           5.86266
  105 Torsion                 11     9    15    16          67.37580
  106 Torsion                 11     9    15    17        -113.51572
  107 Torsion                 12    11     9    15         -61.02275
  108 Torsion                 13    11     9    15          58.50693
  109 Torsion                 14    11     9    15         178.31926
  110 Torsion                 15    17    19    20         172.66527
  111 Torsion                 15    17    19    21         -72.97753
  112 Torsion                 15    17    19    25          57.40783
  113 Torsion                 16    15    17    18         178.76914
  114 Torsion                 16    15    17    19           6.35242
  115 Torsion                 17    19    21    22         -51.44984
  116 Torsion                 17    19    21    23          69.26770
  117 Torsion                 17    19    21    24        -171.27741
  118 Torsion                 17    19    25    26        -168.16419
  119 Torsion                 17    19    25    27          14.11724
  120 Torsion                 18    17    19    20           0.21384
  121 Torsion                 18    17    19    21         114.57103
  122 Torsion                 18    17    19    25        -115.04361
  123 Torsion                 19    25    27    28          -1.73128
  124 Torsion                 19    25    27    29        -179.68307
  125 Torsion                 20    19    21    22          62.83607
  126 Torsion                 20    19    21    23        -176.44638
  127 Torsion                 20    19    21    24         -56.99150
  128 Torsion                 20    19    25    26          75.64588
  129 Torsion                 20    19    25    27        -102.07269
  130 Torsion                 21    19    25    26         -39.79059
  131 Torsion                 21    19    25    27         142.49084
  132 Torsion                 22    21    19    25         177.23619
  133 Torsion                 23    21    19    25         -62.04627
  134 Torsion                 24    21    19    25          57.40862
  135 Torsion                 26    25    27    28        -179.47111
  136 Torsion                 26    25    27    29           2.57710


            XYZ format geometry
            -------------------
    29
 geometry
 H                     3.00578447    -3.14179028     0.14844910
 C                     1.99042640    -3.33400686     0.49436350
 H                     1.94626753    -3.21070799     1.57498063
 H                     1.69776448    -4.34627104     0.22254882
 C                     1.05358437    -2.34607504    -0.15808476
 O                     1.48916125    -1.49428754    -0.92538968
 N                    -0.23816372    -2.44973819     0.14945193
 H                    -0.52156922    -3.13908337     0.82355619
 C                    -1.24603246    -1.51248435    -0.34758413
 H                    -1.22250470    -1.53327344    -1.43855034
 C                    -2.63248131    -1.98093773     0.11100174
 H                    -2.68398633    -1.97939114     1.20096864
 H                    -3.39405159    -1.30393019    -0.27792819
 H                    -2.82860210    -2.98659862    -0.26090391
 C                    -0.93549366    -0.07646415     0.11809457
 O                    -0.78372447     0.16646681     1.31323835
 N                    -0.82641361     0.85635722    -0.83514403
 H                    -0.94918068     0.55793050    -1.78864324
 C                    -0.38929485     2.24540145    -0.62707118
 H                    -0.28930263     2.68297038    -1.62019000
 C                    -1.50024873     3.03837947     0.08199887
 H                    -2.44595922     2.91308046    -0.44590437
 H                    -1.61057430     2.69166524     1.10996945
 H                    -1.24130902     4.09760838     0.09737227
 C                     1.01289828     2.41789476     0.01563753
 O                     1.37894088     3.51252934     0.42754644
 N                     1.84172632     1.38131968     0.07963119
 H                     1.56034287     0.47302187    -0.26234607
 H                     2.74166797     1.52128422     0.50574967

 ==============================================================================
                                internuclear distances
 ------------------------------------------------------------------------------
       center one      |      center two      | atomic units |  angstroms
 ------------------------------------------------------------------------------
    2 C                |   1 H                |     2.05933  |     1.08975
    3 H                |   2 C                |     2.05701  |     1.08852
    4 H                |   2 C                |     2.05643  |     1.08822
    5 C                |   2 C                |     2.85303  |     1.50976
    6 O                |   5 C                |     2.31754  |     1.22639
    7 N                |   5 C                |     2.51691  |     1.33189
    8 H                |   7 N                |     1.89909  |     1.00495
    9 C                |   7 N                |     2.76526  |     1.46331
   10 H                |   9 C                |     2.06248  |     1.09142
   11 C                |   9 C                |     2.89812  |     1.53362
   12 H                |  11 C                |     2.06204  |     1.09118
   13 H                |  11 C                |     2.06110  |     1.09069
   14 H                |  11 C                |     2.05983  |     1.09001
   15 C                |   9 C                |     2.91254  |     1.54125
   16 O                |  15 C                |     2.32246  |     1.22899
   17 N                |  15 C                |     2.52879  |     1.33818
   18 H                |  17 N                |     1.90224  |     1.00662
   19 C                |  17 N                |     2.77977  |     1.47099
   20 H                |  19 C                |     2.05950  |     1.08984
   21 C                |  19 C                |     2.90663  |     1.53812
   22 H                |  21 C                |     2.06036  |     1.09030
   23 H                |  21 C                |     2.06067  |     1.09046
   24 H                |  21 C                |     2.06080  |     1.09053
   25 C                |  19 C                |     2.93302  |     1.55209
   26 O                |  25 C                |     2.31588  |     1.22551
   27 N                |  25 C                |     2.51095  |     1.32874
   28 H                |  27 N                |     1.90959  |     1.01051
   29 H                |  27 N                |     1.90015  |     1.00552
 ------------------------------------------------------------------------------
                         number of included internuclear distances:         28
 ==============================================================================



 ==============================================================================
                                 internuclear angles
 ------------------------------------------------------------------------------
        center 1       |       center 2       |       center 3       |  degrees
 ------------------------------------------------------------------------------
    1 H                |   2 C                |   3 H                |   109.45
    1 H                |   2 C                |   4 H                |   109.59
    1 H                |   2 C                |   5 C                |   109.00
    3 H                |   2 C                |   4 H                |   110.02
    3 H                |   2 C                |   5 C                |   109.25
    4 H                |   2 C                |   5 C                |   109.50
    2 C                |   5 C                |   6 O                |   120.30
    2 C                |   5 C                |   7 N                |   116.81
    6 O                |   5 C                |   7 N                |   122.89
    5 C                |   7 N                |   8 H                |   118.80
    5 C                |   7 N                |   9 C                |   122.66
    8 H                |   7 N                |   9 C                |   118.23
    7 N                |   9 C                |  10 H                |   108.21
    7 N                |   9 C                |  11 C                |   108.99
    7 N                |   9 C                |  15 C                |   110.82
   10 H                |   9 C                |  11 C                |   108.21
   10 H                |   9 C                |  15 C                |   108.39
   11 C                |   9 C                |  15 C                |   112.11
    9 C                |  11 C                |  12 H                |   109.93
    9 C                |  11 C                |  13 H                |   109.57
    9 C                |  11 C                |  14 H                |   110.03
   12 H                |  11 C                |  13 H                |   108.81
   12 H                |  11 C                |  14 H                |   109.49
   13 H                |  11 C                |  14 H                |   108.99
    9 C                |  15 C                |  16 O                |   120.19
    9 C                |  15 C                |  17 N                |   116.79
   16 O                |  15 C                |  17 N                |   123.02
   15 C                |  17 N                |  18 H                |   117.27
   15 C                |  17 N                |  19 C                |   125.57
   18 H                |  17 N                |  19 C                |   116.75
   17 N                |  19 C                |  20 H                |   106.11
   17 N                |  19 C                |  21 C                |   109.72
   17 N                |  19 C                |  25 C                |   115.59
   20 H                |  19 C                |  21 C                |   106.22
   20 H                |  19 C                |  25 C                |   104.47
   21 C                |  19 C                |  25 C                |   113.85
   19 C                |  21 C                |  22 H                |   110.12
   19 C                |  21 C                |  23 H                |   110.10
   19 C                |  21 C                |  24 H                |   109.62
   22 H                |  21 C                |  23 H                |   109.40
   22 H                |  21 C                |  24 H                |   108.93
   23 H                |  21 C                |  24 H                |   108.64
   19 C                |  25 C                |  26 O                |   120.55
   19 C                |  25 C                |  27 N                |   119.79
   26 O                |  25 C                |  27 N                |   119.62
   25 C                |  27 N                |  28 H                |   120.75
   25 C                |  27 N                |  29 H                |   118.04
   28 H                |  27 N                |  29 H                |   121.18
 ------------------------------------------------------------------------------
                            number of included internuclear angles:         48
 ==============================================================================



  library name resolved from: environment
  library file name is: </opt/rit/el9/20230413/app/linux-rhel9-x86_64_v3/gcc-11.2.1/nwchem-7.2.0-oxtctbuhfuzyfaoziquq6bki22grib3g/share/nwchem/libraries/>
  


 Summary of "ao basis" -> "" (cartesian)
 ------------------------------------------------------------------------------
       Tag                 Description            Shells   Functions and Types
 ---------------- ------------------------------  ------  ---------------------
 *                        aug-cc-pvdz                 on all atoms 


                      Basis "ao basis" -> "ao basis" (cartesian)
                      -----
  H (Hydrogen)
  ------------
            Exponent  Coefficients 
       -------------- ---------------------------------------------------------
  1 S  1.30100000E+01  0.019685
  1 S  1.96200000E+00  0.137977
  1 S  4.44600000E-01  0.478148

  2 S  1.22000000E-01  1.000000

  3 S  2.97400000E-02  1.000000

  4 P  7.27000000E-01  1.000000

  5 P  1.41000000E-01  1.000000

  C (Carbon)
  ----------
            Exponent  Coefficients 
       -------------- ---------------------------------------------------------
  1 S  6.66500000E+03  0.000692
  1 S  1.00000000E+03  0.005329
  1 S  2.28000000E+02  0.027077
  1 S  6.47100000E+01  0.101718
  1 S  2.10600000E+01  0.274740
  1 S  7.49500000E+00  0.448564
  1 S  2.79700000E+00  0.285074
  1 S  5.21500000E-01  0.015204

  2 S  6.66500000E+03 -0.000146
  2 S  1.00000000E+03 -0.001154
  2 S  2.28000000E+02 -0.005725
  2 S  6.47100000E+01 -0.023312
  2 S  2.10600000E+01 -0.063955
  2 S  7.49500000E+00 -0.149981
  2 S  2.79700000E+00 -0.127262
  2 S  5.21500000E-01  0.544529

  3 S  1.59600000E-01  1.000000

  4 S  4.69000000E-02  1.000000

  5 P  9.43900000E+00  0.038109
  5 P  2.00200000E+00  0.209480
  5 P  5.45600000E-01  0.508557

  6 P  1.51700000E-01  1.000000

  7 P  4.04100000E-02  1.000000

  8 D  5.50000000E-01  1.000000

  9 D  1.51000000E-01  1.000000

  O (Oxygen)
  ----------
            Exponent  Coefficients 
       -------------- ---------------------------------------------------------
  1 S  1.17200000E+04  0.000710
  1 S  1.75900000E+03  0.005470
  1 S  4.00800000E+02  0.027837
  1 S  1.13700000E+02  0.104800
  1 S  3.70300000E+01  0.283062
  1 S  1.32700000E+01  0.448719
  1 S  5.02500000E+00  0.270952
  1 S  1.01300000E+00  0.015458

  2 S  1.17200000E+04 -0.000160
  2 S  1.75900000E+03 -0.001263
  2 S  4.00800000E+02 -0.006267
  2 S  1.13700000E+02 -0.025716
  2 S  3.70300000E+01 -0.070924
  2 S  1.32700000E+01 -0.165411
  2 S  5.02500000E+00 -0.116955
  2 S  1.01300000E+00  0.557368

  3 S  3.02300000E-01  1.000000

  4 S  7.89600000E-02  1.000000

  5 P  1.77000000E+01  0.043018
  5 P  3.85400000E+00  0.228913
  5 P  1.04600000E+00  0.508728

  6 P  2.75300000E-01  1.000000

  7 P  6.85600000E-02  1.000000

  8 D  1.18500000E+00  1.000000

  9 D  3.32000000E-01  1.000000

  N (Nitrogen)
  ------------
            Exponent  Coefficients 
       -------------- ---------------------------------------------------------
  1 S  9.04600000E+03  0.000700
  1 S  1.35700000E+03  0.005389
  1 S  3.09300000E+02  0.027406
  1 S  8.77300000E+01  0.103207
  1 S  2.85600000E+01  0.278723
  1 S  1.02100000E+01  0.448540
  1 S  3.83800000E+00  0.278238
  1 S  7.46600000E-01  0.015440

  2 S  9.04600000E+03 -0.000153
  2 S  1.35700000E+03 -0.001208
  2 S  3.09300000E+02 -0.005992
  2 S  8.77300000E+01 -0.024544
  2 S  2.85600000E+01 -0.067459
  2 S  1.02100000E+01 -0.158078
  2 S  3.83800000E+00 -0.121831
  2 S  7.46600000E-01  0.549003

  3 S  2.24800000E-01  1.000000

  4 S  6.12400000E-02  1.000000

  5 P  1.35500000E+01  0.039919
  5 P  2.91700000E+00  0.217169
  5 P  7.97300000E-01  0.510319

  6 P  2.18500000E-01  1.000000

  7 P  5.61100000E-02  1.000000

  8 D  8.17000000E-01  1.000000

  9 D  2.30000000E-01  1.000000



 Summary of "ao basis" -> "ao basis" (cartesian)
 ------------------------------------------------------------------------------
       Tag                 Description            Shells   Functions and Types
 ---------------- ------------------------------  ------  ---------------------
 H                        aug-cc-pvdz                5        9   3s2p
 C                        aug-cc-pvdz                9       25   4s3p2d
 O                        aug-cc-pvdz                9       25   4s3p2d
 N                        aug-cc-pvdz                9       25   4s3p2d


                                 NWChem SCF Module
                                 -----------------



  ao basis        = "ao basis"
  functions       =   485
  atoms           =    29
  closed shells   =    54
  open shells     =     0
  charge          =   0.00
  wavefunction    = RHF 
  input vectors   = atomic
  output vectors  = ./ALA_ALA_5.movecs
  use symmetry    = F
  symmetry adapt  = F


 Summary of "ao basis" -> "ao basis" (cartesian)
 ------------------------------------------------------------------------------
       Tag                 Description            Shells   Functions and Types
 ---------------- ------------------------------  ------  ---------------------
 H                        aug-cc-pvdz                5        9   3s2p
 C                        aug-cc-pvdz                9       25   4s3p2d
 O                        aug-cc-pvdz                9       25   4s3p2d
 N                        aug-cc-pvdz                9       25   4s3p2d



 Forming initial guess at       0.8s


 !! The overlap matrix has   3 vectors deemed linearly dependent with
    eigenvalues:
 3.30D-06 6.54D-06 9.60D-06


      Superposition of Atomic Density Guess
      -------------------------------------

 Sum of atomic energies:        -696.03477360

      Non-variational initial energy
      ------------------------------

 Total energy =    -704.976644
 1-e energy   =   -2876.201533
 2-e energy   =    1199.114189
 HOMO         =      -0.310959
 LUMO         =       0.011267


 Starting SCF solution at     134.4s



 ----------------------------------------------
         Quadratically convergent ROHF

 Convergence threshold     :          1.000E-04
 Maximum no. of iterations :           30
 Final Fock-matrix accuracy:          1.000E-10
 ----------------------------------------------


              iter       energy          gnorm     gmax       time
             ----- ------------------- --------- --------- --------
                 1     -699.4307054735  2.35D+00  1.80D-01    252.7
                 2     -699.7251208583  7.75D-01  4.59D-02    560.2
                 3     -699.7778005344  6.29D-02  5.24D-03   1010.6
                 4     -699.7784021139  1.63D-03  9.23D-05   1644.1
                 5     -699.7784024868  4.22D-06  3.47D-07   2717.7


       Final RHF  results 
       ------------------ 

         Total SCF energy =   -699.778402486800
      One-electron energy =  -2886.636357426211
      Two-electron energy =   1214.747254606458
 Nuclear repulsion energy =    972.110700332953

        Time for solution =   2585.8s


             Final eigenvalues
             -----------------

              1      
    1  -20.5456
    2  -20.5338
    3  -20.5039
    4  -15.6178
    5  -15.6089
    6  -15.5667
    7  -11.3746
    8  -11.3661
    9  -11.3430
   10  -11.3135
   11  -11.2971
   12  -11.2589
   13  -11.2559
   14  -11.2206
   15   -1.4096
   16   -1.3909
   17   -1.3655
   18   -1.2653
   19   -1.2523
   20   -1.1930
   21   -1.0810
   22   -1.0351
   23   -1.0078
   24   -0.9164
   25   -0.8833
   26   -0.8327
   27   -0.8105
   28   -0.7644
   29   -0.7403
   30   -0.7223
   31   -0.7008
   32   -0.6879
   33   -0.6712
   34   -0.6399
   35   -0.6275
   36   -0.6156
   37   -0.6018
   38   -0.5959
   39   -0.5877
   40   -0.5777
   41   -0.5720
   42   -0.5560
   43   -0.5521
   44   -0.5473
   45   -0.5301
   46   -0.5222
   47   -0.5114
   48   -0.4996
   49   -0.4452
   50   -0.4437
   51   -0.4251
   52   -0.4094
   53   -0.3911
   54   -0.3829
   55    0.0211
   56    0.0303
   57    0.0376
   58    0.0427
   59    0.0500
   60    0.0527
   61    0.0589
   62    0.0647
   63    0.0673
   64    0.0725

                       ROHF Final Molecular Orbital Analysis
                       -------------------------------------

 Vector   15  Occ=2.000000D+00  E=-1.409575D+00
              MO Center=  9.3D-01, -1.6D+00, -4.5D-01, r^2= 1.8D+00
   Bfn.  Coefficient  Atom+Function         Bfn.  Coefficient  Atom+Function  
  ----- ------------  ---------------      ----- ------------  ---------------
    80      0.335528   6 O  s                79      0.327481   6 O  s         
    54      0.231857   5 C  s                12      0.200921   2 C  s         

 Vector   16  Occ=2.000000D+00  E=-1.390918D+00
              MO Center= -5.5D-01,  2.1D-02,  5.5D-01, r^2= 2.1D+00
   Bfn.  Coefficient  Atom+Function         Bfn.  Coefficient  Atom+Function  
  ----- ------------  ---------------      ----- ------------  ---------------
   250      0.348211  16 O  s               249      0.325877  16 O  s         
   224      0.231932  15 C  s         

 Vector   17  Occ=2.000000D+00  E=-1.365509D+00
              MO Center=  1.3D+00,  2.9D+00,  2.8D-01, r^2= 1.2D+00
   Bfn.  Coefficient  Atom+Function         Bfn.  Coefficient  Atom+Function  
  ----- ------------  ---------------      ----- ------------  ---------------
   420      0.376064  26 O  s               419      0.349808  26 O  s         
   394      0.243939  25 C  s         

 Vector   18  Occ=2.000000D+00  E=-1.265299D+00
              MO Center= -2.7D-02, -2.2D+00, -1.9D-02, r^2= 1.7D+00
   Bfn.  Coefficient  Atom+Function         Bfn.  Coefficient  Atom+Function  
  ----- ------------  ---------------      ----- ------------  ---------------
   105      0.422642   7 N  s               104      0.343420   7 N  s         
    80     -0.217912   6 O  s                79     -0.182671   6 O  s         
   128      0.157609   8 H  s               139     -0.156814   9 C  s         
    57     -0.153576   5 C  px        

 Vector   19  Occ=2.000000D+00  E=-1.252347D+00
              MO Center= -7.0D-01,  8.3D-01, -4.4D-01, r^2= 1.9D+00
   Bfn.  Coefficient  Atom+Function         Bfn.  Coefficient  Atom+Function  
  ----- ------------  ---------------      ----- ------------  ---------------
   275      0.358596  17 N  s               274      0.341717  17 N  s         
   250     -0.221921  16 O  s               229     -0.183058  15 C  pz        
   249     -0.179515  16 O  s               298      0.157929  18 H  s         

 Vector   20  Occ=2.000000D+00  E=-1.192966D+00
              MO Center=  1.6D+00,  1.7D+00,  7.8D-02, r^2= 1.5D+00
   Bfn.  Coefficient  Atom+Function         Bfn.  Coefficient  Atom+Function  
  ----- ------------  ---------------      ----- ------------  ---------------
   445      0.385251  27 N  s               444      0.369712  27 N  s         
   420     -0.210398  26 O  s               398     -0.202828  25 C  py        
   419     -0.174737  26 O  s               468      0.163833  28 H  s         
   477      0.159330  29 H  s         

 Vector   21  Occ=2.000000D+00  E=-1.080981D+00
              MO Center= -8.6D-01, -1.4D+00, -8.8D-02, r^2= 5.2D+00
   Bfn.  Coefficient  Atom+Function         Bfn.  Coefficient  Atom+Function  
  ----- ------------  ---------------      ----- ------------  ---------------
   138      0.236114   9 C  s               172      0.198365  11 C  s         
    12     -0.152327   2 C  s         

 Vector   22  Occ=2.000000D+00  E=-1.035075D+00
              MO Center= -6.0D-01,  1.4D+00, -2.6D-01, r^2= 6.4D+00
   Bfn.  Coefficient  Atom+Function         Bfn.  Coefficient  Atom+Function  
  ----- ------------  ---------------      ----- ------------  ---------------
   308      0.248742  19 C  s               342      0.218181  21 C  s         

 Vector   23  Occ=2.000000D+00  E=-1.007780D+00
              MO Center=  6.7D-01, -2.7D+00,  2.8D-01, r^2= 5.8D+00
   Bfn.  Coefficient  Atom+Function         Bfn.  Coefficient  Atom+Function  
  ----- ------------  ---------------      ----- ------------  ---------------
    11      0.308722   2 C  s               172      0.179524  11 C  s         
   174      0.170854  11 C  s               144     -0.162875   9 C  px        

 Vector   24  Occ=2.000000D+00  E=-9.163997D-01
              MO Center= -1.5D+00, -6.2D-02, -5.6D-02, r^2= 7.2D+00
   Bfn.  Coefficient  Atom+Function         Bfn.  Coefficient  Atom+Function  
  ----- ------------  ---------------      ----- ------------  ---------------
   139      0.295784   9 C  s               145      0.277011   9 C  py        
   231      0.226506  15 C  py              172     -0.205993  11 C  s         
   342      0.201676  21 C  s               225     -0.199240  15 C  s         
   144      0.179423   9 C  px              276      0.156147  17 N  s         

 Vector   25  Occ=2.000000D+00  E=-8.832855D-01
              MO Center= -7.1D-01,  1.0D+00, -1.0D-01, r^2= 8.1D+00
   Bfn.  Coefficient  Atom+Function         Bfn.  Coefficient  Atom+Function  
  ----- ------------  ---------------      ----- ------------  ---------------
   314      0.299276  19 C  px              342     -0.207373  21 C  s         
   309      0.162181  19 C  s         

 Vector   26  Occ=2.000000D+00  E=-8.326783D-01
              MO Center=  4.5D-02, -1.1D+00, -6.5D-02, r^2= 6.3D+00
   Bfn.  Coefficient  Atom+Function         Bfn.  Coefficient  Atom+Function  
  ----- ------------  ---------------      ----- ------------  ---------------
   107      0.272684   7 N  px              309      0.198150  19 C  s         
    54      0.181491   5 C  s               128     -0.178050   8 H  s         
   139      0.170907   9 C  s               314      0.162237  19 C  px        

 Vector   27  Occ=2.000000D+00  E=-8.105142D-01
              MO Center= -2.1D-01, -3.6D-01, -2.5D-01, r^2= 5.7D+00
   Bfn.  Coefficient  Atom+Function         Bfn.  Coefficient  Atom+Function  
  ----- ------------  ---------------      ----- ------------  ---------------
   279      0.240764  17 N  pz              128      0.218553   8 H  s         
   309      0.191839  19 C  s               298     -0.183380  18 H  s         
   105      0.153577   7 N  s         

 Vector   28  Occ=2.000000D+00  E=-7.644116D-01
              MO Center=  6.8D-01,  1.5D+00, -1.4D-01, r^2= 4.2D+00
   Bfn.  Coefficient  Atom+Function         Bfn.  Coefficient  Atom+Function  
  ----- ------------  ---------------      ----- ------------  ---------------
   448      0.284878  27 N  py              468     -0.208764  28 H  s         
   298      0.192977  18 H  s               279     -0.183147  17 N  pz        
   394      0.175138  25 C  s               400      0.168864  25 C  px        
   396     -0.165460  25 C  s               420     -0.163208  26 O  s         
   446      0.154826  27 N  s               447     -0.153549  27 N  px        

 Vector   29  Occ=2.000000D+00  E=-7.402826D-01
              MO Center= -6.4D-01, -6.2D-01, -2.0D-01, r^2= 5.0D+00
   Bfn.  Coefficient  Atom+Function         Bfn.  Coefficient  Atom+Function  
  ----- ------------  ---------------      ----- ------------  ---------------
   225      0.320370  15 C  s               145     -0.289522   9 C  py        
   228      0.211056  15 C  py              142     -0.207479   9 C  py        
   109     -0.197224   7 N  pz               55      0.190700   5 C  s         
   279      0.189742  17 N  pz              163      0.160823  10 H  s         
   128     -0.155400   8 H  s               298     -0.153989  18 H  s         

 Vector   30  Occ=2.000000D+00  E=-7.222953D-01
              MO Center=  7.5D-01,  7.1D-01, -1.1D-01, r^2= 5.5D+00
   Bfn.  Coefficient  Atom+Function         Bfn.  Coefficient  Atom+Function  
  ----- ------------  ---------------      ----- ------------  ---------------
   468     -0.237978  28 H  s               448      0.219271  27 N  py        
   477      0.196633  29 H  s               469     -0.192300  28 H  s         
   396     -0.178302  25 C  s               447      0.169117  27 N  px        
   314     -0.167896  19 C  px        

 Vector   31  Occ=2.000000D+00  E=-7.007674D-01
              MO Center= -1.1D-01, -1.7D+00, -6.9D-03, r^2= 5.7D+00
   Bfn.  Coefficient  Atom+Function         Bfn.  Coefficient  Atom+Function  
  ----- ------------  ---------------      ----- ------------  ---------------
   139      0.270616   9 C  s               231      0.234088  15 C  py        
   108     -0.216774   7 N  py              143     -0.191223   9 C  pz        
   162      0.192084  10 H  s                56      0.165389   5 C  s         
   145      0.158766   9 C  py        

 Vector   32  Occ=2.000000D+00  E=-6.879107D-01
              MO Center=  9.4D-01, -7.1D-01, -2.5D-01, r^2= 7.1D+00
   Bfn.  Coefficient  Atom+Function         Bfn.  Coefficient  Atom+Function  
  ----- ------------  ---------------      ----- ------------  ---------------
    80     -0.206963   6 O  s                57      0.203004   5 C  px        
    84      0.195502   6 O  pz               83     -0.174856   6 O  py        
   447     -0.166134  27 N  px              477     -0.166330  29 H  s         

 Vector   33  Occ=2.000000D+00  E=-6.711734D-01
              MO Center=  1.7D-01,  3.8D-01, -2.2D-01, r^2= 7.6D+00
   Bfn.  Coefficient  Atom+Function         Bfn.  Coefficient  Atom+Function  
  ----- ------------  ---------------      ----- ------------  ---------------
   139      0.360669   9 C  s               225     -0.250303  15 C  s         
   145      0.247014   9 C  py              278      0.211750  17 N  py        
   315     -0.178673  19 C  py              447     -0.175032  27 N  px        
   477     -0.160256  29 H  s               312     -0.159095  19 C  py        

 Vector   34  Occ=2.000000D+00  E=-6.399152D-01
              MO Center=  3.5D-01, -2.8D-01,  1.9D-01, r^2= 9.3D+00
   Bfn.  Coefficient  Atom+Function         Bfn.  Coefficient  Atom+Function  
  ----- ------------  ---------------      ----- ------------  ---------------
   225     -0.302864  15 C  s               139      0.278762   9 C  s         
   254      0.206700  16 O  pz              145      0.175772   9 C  py        
   313      0.157451  19 C  pz               59      0.150547   5 C  pz        

 Vector   35  Occ=2.000000D+00  E=-6.275149D-01
              MO Center=  3.2D-01, -6.1D-01, -5.4D-03, r^2= 1.1D+01
   Bfn.  Coefficient  Atom+Function         Bfn.  Coefficient  Atom+Function  
  ----- ------------  ---------------      ----- ------------  ---------------
    44      0.174090   4 H  s               313      0.164635  19 C  pz        
   332     -0.165343  20 H  s                16     -0.163412   2 C  pz        
    15     -0.158092   2 C  py               35     -0.155814   3 H  s         

 Vector   36  Occ=2.000000D+00  E=-6.156227D-01
              MO Center= -4.8D-01,  1.7D-01,  4.4D-01, r^2= 6.9D+00
   Bfn.  Coefficient  Atom+Function         Bfn.  Coefficient  Atom+Function  
  ----- ------------  ---------------      ----- ------------  ---------------
   254      0.324965  16 O  pz              229     -0.255492  15 C  pz        
   250      0.235816  16 O  s               257      0.157696  16 O  pz        

 Vector   37  Occ=2.000000D+00  E=-6.017669D-01
              MO Center=  2.3D-01, -1.2D+00,  4.2D-02, r^2= 6.8D+00
   Bfn.  Coefficient  Atom+Function         Bfn.  Coefficient  Atom+Function  
  ----- ------------  ---------------      ----- ------------  ---------------
    58      0.220661   5 C  py              139      0.200060   9 C  s         
    82     -0.186729   6 O  px               84      0.158406   6 O  pz        

 Vector   38  Occ=2.000000D+00  E=-5.959018D-01
              MO Center= -9.0D-02,  5.9D-01,  4.1D-02, r^2= 8.4D+00
   Bfn.  Coefficient  Atom+Function         Bfn.  Coefficient  Atom+Function  
  ----- ------------  ---------------      ----- ------------  ---------------
   145      0.276563   9 C  py              139      0.272068   9 C  s         
   225     -0.237064  15 C  s               277      0.195713  17 N  px        
   423      0.193675  26 O  py              398     -0.154682  25 C  py        
   280      0.152582  17 N  px        

 Vector   39  Occ=2.000000D+00  E=-5.876894D-01
              MO Center=  5.8D-01, -2.4D+00,  1.9D-01, r^2= 8.4D+00
   Bfn.  Coefficient  Atom+Function         Bfn.  Coefficient  Atom+Function  
  ----- ------------  ---------------      ----- ------------  ---------------
     1      0.277673   1 H  s                 2      0.258860   1 H  s         
    14      0.237607   2 C  px              205      0.216414  13 H  s         
   206      0.192911  13 H  s               175     -0.190570  11 C  px        
    16     -0.185421   2 C  pz               35     -0.164616   3 H  s         
   139      0.164597   9 C  s         

 Vector   40  Occ=2.000000D+00  E=-5.777168D-01
              MO Center=  3.3D-01,  9.2D-01,  1.5D-01, r^2= 1.0D+01
   Bfn.  Coefficient  Atom+Function         Bfn.  Coefficient  Atom+Function  
  ----- ------------  ---------------      ----- ------------  ---------------
   423      0.263554  26 O  py              398     -0.203464  25 C  py        
   420      0.155111  26 O  s               366     -0.152909  22 H  s         

 Vector   41  Occ=2.000000D+00  E=-5.719759D-01
              MO Center= -1.2D+00,  2.6D-01, -5.4D-02, r^2= 9.5D+00
   Bfn.  Coefficient  Atom+Function         Bfn.  Coefficient  Atom+Function  
  ----- ------------  ---------------      ----- ------------  ---------------
   176      0.258964  11 C  py              214     -0.251102  14 H  s         
   215     -0.217740  14 H  s               343      0.213280  21 C  s         
   309     -0.172465  19 C  s               226     -0.171413  15 C  s         
   346      0.159818  21 C  py              311      0.158081  19 C  px        

 Vector   42  Occ=2.000000D+00  E=-5.560459D-01
              MO Center= -3.6D-01, -4.8D-01,  9.0D-02, r^2= 1.1D+01
   Bfn.  Coefficient  Atom+Function         Bfn.  Coefficient  Atom+Function  
  ----- ------------  ---------------      ----- ------------  ---------------
   206      0.248366  13 H  s               205      0.203793  13 H  s         
    55     -0.201474   5 C  s                12      0.193520   2 C  s         
    14     -0.190439   2 C  px              176      0.186098  11 C  py        
     1     -0.182801   1 H  s         

 Vector   43  Occ=2.000000D+00  E=-5.521453D-01
              MO Center= -6.9D-01, -1.1D+00,  1.8D-01, r^2= 9.1D+00
   Bfn.  Coefficient  Atom+Function         Bfn.  Coefficient  Atom+Function  
  ----- ------------  ---------------      ----- ------------  ---------------
   177      0.261899  11 C  pz              196      0.246086  12 H  s         
   197      0.201314  12 H  s               108     -0.167121   7 N  py        
   163      0.167108  10 H  s         

 Vector   44  Occ=2.000000D+00  E=-5.472648D-01
              MO Center= -4.8D-01, -4.5D-01,  9.7D-02, r^2= 1.1D+01
   Bfn.  Coefficient  Atom+Function         Bfn.  Coefficient  Atom+Function  
  ----- ------------  ---------------      ----- ------------  ---------------
   175     -0.232597  11 C  px              141      0.231078   9 C  px        
   346     -0.171584  21 C  py              384     -0.165065  24 H  s         
   178     -0.164029  11 C  px              385     -0.154368  24 H  s         

 Vector   45  Occ=2.000000D+00  E=-5.300789D-01
              MO Center= -2.3D-01, -7.1D-01,  4.4D-02, r^2= 9.2D+00
   Bfn.  Coefficient  Atom+Function         Bfn.  Coefficient  Atom+Function  
  ----- ------------  ---------------      ----- ------------  ---------------
    84      0.196130   6 O  pz              197      0.163676  12 H  s         
   177      0.159628  11 C  pz              162      0.155659  10 H  s         
   196      0.154903  12 H  s         

 Vector   46  Occ=2.000000D+00  E=-5.221724D-01
              MO Center= -8.2D-01,  2.5D+00, -2.9D-02, r^2= 5.0D+00
   Bfn.  Coefficient  Atom+Function         Bfn.  Coefficient  Atom+Function  
  ----- ------------  ---------------      ----- ------------  ---------------
   367      0.300820  22 H  s               366      0.298307  22 H  s         
   345     -0.272669  21 C  px              385     -0.261249  24 H  s         
   384     -0.217674  24 H  s               397     -0.179585  25 C  px        
   346     -0.163270  21 C  py        

 Vector   47  Occ=2.000000D+00  E=-5.114387D-01
              MO Center= -8.3D-01,  9.2D-01,  2.9D-02, r^2= 7.8D+00
   Bfn.  Coefficient  Atom+Function         Bfn.  Coefficient  Atom+Function  
  ----- ------------  ---------------      ----- ------------  ---------------
   346      0.213818  21 C  py              376     -0.212723  23 H  s         
   174      0.207647  11 C  s               375     -0.190893  23 H  s         
   252     -0.186003  16 O  px              384      0.181857  24 H  s         
   178     -0.150483  11 C  px        

 Vector   48  Occ=2.000000D+00  E=-4.996407D-01
              MO Center= -3.2D-01,  2.0D+00,  1.6D-02, r^2= 4.8D+00
   Bfn.  Coefficient  Atom+Function         Bfn.  Coefficient  Atom+Function  
  ----- ------------  ---------------      ----- ------------  ---------------
   313      0.257318  19 C  pz              332     -0.216588  20 H  s         
   347     -0.215867  21 C  pz              333     -0.202162  20 H  s         
   276      0.181934  17 N  s               252      0.178954  16 O  px        
   375     -0.178989  23 H  s               424     -0.173396  26 O  pz        
   376     -0.159546  23 H  s         

 Vector   49  Occ=2.000000D+00  E=-4.451718D-01
              MO Center= -1.2D-01, -7.1D-01,  2.5D-01, r^2= 5.0D+00
   Bfn.  Coefficient  Atom+Function         Bfn.  Coefficient  Atom+Function  
  ----- ------------  ---------------      ----- ------------  ---------------
   253      0.357430  16 O  py              256      0.273191  16 O  py        
   109      0.247999   7 N  pz               84     -0.209471   6 O  pz        
   112      0.200379   7 N  pz               83     -0.177970   6 O  py        
   111      0.171410   7 N  py              108      0.169314   7 N  py        
    87     -0.161864   6 O  pz              173     -0.151122  11 C  s         

 Vector   50  Occ=2.000000D+00  E=-4.437020D-01
              MO Center=  1.2D+00, -1.8D+00, -4.8D-01, r^2= 2.7D+00
   Bfn.  Coefficient  Atom+Function         Bfn.  Coefficient  Atom+Function  
  ----- ------------  ---------------      ----- ------------  ---------------
    82      0.475740   6 O  px               85      0.389777   6 O  px        
   226     -0.295315  15 C  s                13      0.269088   2 C  s         
   276      0.263107  17 N  s                83     -0.199990   6 O  py        
   140     -0.171097   9 C  s                15     -0.169040   2 C  py        
    63     -0.166785   5 C  px               18     -0.156035   2 C  py        

 Vector   51  Occ=2.000000D+00  E=-4.251095D-01
              MO Center= -2.7D-02,  1.5D+00,  2.2D-01, r^2= 5.4D+00
   Bfn.  Coefficient  Atom+Function         Bfn.  Coefficient  Atom+Function  
  ----- ------------  ---------------      ----- ------------  ---------------
   422      0.302343  26 O  px              253      0.247086  16 O  py        
   277      0.245121  17 N  px              425      0.237993  26 O  px        
   280      0.221129  17 N  px              252     -0.203130  16 O  px        
   256      0.198066  16 O  py              333     -0.170599  20 H  s         
   255     -0.160614  16 O  px              396      0.155188  25 C  s         

 Vector   52  Occ=2.000000D+00  E=-4.093983D-01
              MO Center= -1.9D-01, -8.7D-01,  1.4D-01, r^2= 5.1D+00
   Bfn.  Coefficient  Atom+Function         Bfn.  Coefficient  Atom+Function  
  ----- ------------  ---------------      ----- ------------  ---------------
   253      0.283729  16 O  py              109     -0.250103   7 N  pz        
   256      0.236612  16 O  py              108     -0.223102   7 N  py        
   112     -0.221391   7 N  pz              231     -0.215850  15 C  py        
   111     -0.206071   7 N  py              234     -0.200506  15 C  py        
    84      0.176930   6 O  pz              174     -0.171423  11 C  s         

 Vector   53  Occ=2.000000D+00  E=-3.911394D-01
              MO Center=  8.5D-01,  2.2D+00,  9.4D-02, r^2= 3.8D+00
   Bfn.  Coefficient  Atom+Function         Bfn.  Coefficient  Atom+Function  
  ----- ------------  ---------------      ----- ------------  ---------------
   422      0.390220  26 O  px              425      0.303282  26 O  px        
   449      0.247924  27 N  pz              277     -0.234217  17 N  px        
   280     -0.215019  17 N  px              452      0.204076  27 N  pz        
   448     -0.159784  27 N  py        

 Vector   54  Occ=2.000000D+00  E=-3.829223D-01
              MO Center=  8.9D-01,  2.0D+00,  1.6D-01, r^2= 4.0D+00
   Bfn.  Coefficient  Atom+Function         Bfn.  Coefficient  Atom+Function  
  ----- ------------  ---------------      ----- ------------  ---------------
   424      0.338170  26 O  pz              449     -0.311431  27 N  pz        
   452     -0.266114  27 N  pz              427      0.261938  26 O  pz        
   276      0.219647  17 N  s               277     -0.220109  17 N  px        
   280     -0.207036  17 N  px              252      0.197190  16 O  px        
   226     -0.169849  15 C  s               447      0.166365  27 N  px        

 Vector   55  Occ=0.000000D+00  E= 2.110345D-02
              MO Center= -1.7D+00, -3.9D+00, -6.1D-01, r^2= 2.1D+01
   Bfn.  Coefficient  Atom+Function         Bfn.  Coefficient  Atom+Function  
  ----- ------------  ---------------      ----- ------------  ---------------
    56      2.850600   5 C  s               106     -2.746424   7 N  s         
   216     -2.555167  14 H  s               233     -2.234019  15 C  px        
   234     -2.151204  15 C  py              173      1.785156  11 C  s         
   226      1.757466  15 C  s                46     -1.541309   4 H  s         
   215     -1.354108  14 H  s               182     -1.169988  11 C  py        

 Vector   56  Occ=0.000000D+00  E= 3.032233D-02
              MO Center= -1.3D+00, -1.4D+00, -1.2D+00, r^2= 3.1D+01
   Bfn.  Coefficient  Atom+Function         Bfn.  Coefficient  Atom+Function  
  ----- ------------  ---------------      ----- ------------  ---------------
    63      2.968202   5 C  px              234     -2.407001  15 C  py        
    64     -2.287635   5 C  py              164      2.026818  10 H  s         
   207      1.788188  13 H  s               147      1.752932   9 C  px        
   226      1.632557  15 C  s                12      1.557881   2 C  s         
   344     -1.519644  21 C  s                13     -1.496729   2 C  s         

 Vector   57  Occ=0.000000D+00  E= 3.761103D-02
              MO Center= -1.5D-01, -2.3D+00, -4.8D-01, r^2= 3.6D+01
   Bfn.  Coefficient  Atom+Function         Bfn.  Coefficient  Atom+Function  
  ----- ------------  ---------------      ----- ------------  ---------------
   147      4.281108   9 C  px              276     -3.250720  17 N  s         
   174      2.660984  11 C  s                63      2.569622   5 C  px        
    64     -2.404881   5 C  py              216      2.366586  14 H  s         
   226      2.241060  15 C  s               234      2.105550  15 C  py        
     3     -1.955679   1 H  s                12      1.859567   2 C  s         

 Vector   58  Occ=0.000000D+00  E= 4.270653D-02
              MO Center= -1.6D+00, -1.6D+00,  3.7D-01, r^2= 3.2D+01
   Bfn.  Coefficient  Atom+Function         Bfn.  Coefficient  Atom+Function  
  ----- ------------  ---------------      ----- ------------  ---------------
   164      3.504623  10 H  s               226     -3.355457  15 C  s         
   344      2.829867  21 C  s               106      2.352159   7 N  s         
   198     -2.247263  12 H  s                56     -2.223066   5 C  s         
    37     -2.164137   3 H  s               216      2.154593  14 H  s         
    13      2.095889   2 C  s               149      1.710793   9 C  pz        

 Vector   59  Occ=0.000000D+00  E= 4.995899D-02
              MO Center=  4.2D-01, -1.2D+00, -4.9D-01, r^2= 3.9D+01
   Bfn.  Coefficient  Atom+Function         Bfn.  Coefficient  Atom+Function  
  ----- ------------  ---------------      ----- ------------  ---------------
   130     -3.355909   8 H  s                 3      3.291931   1 H  s         
    63     -2.654915   5 C  px              207      2.595332  13 H  s         
   334     -2.254330  20 H  s               319     -2.063735  19 C  pz        
   106     -2.030537   7 N  s               344      1.824333  21 C  s         
    13      1.717415   2 C  s               233      1.681256  15 C  px        

 Vector   60  Occ=0.000000D+00  E= 5.272611D-02
              MO Center= -3.9D-01, -9.6D-01, -2.7D-01, r^2= 4.1D+01
   Bfn.  Coefficient  Atom+Function         Bfn.  Coefficient  Atom+Function  
  ----- ------------  ---------------      ----- ------------  ---------------
    46      3.496626   4 H  s               368      2.807483  22 H  s         
   276      2.393995  17 N  s               207      2.057394  13 H  s         
   334     -1.893827  20 H  s               234     -1.864667  15 C  py        
   403      1.782584  25 C  px              446     -1.704675  27 N  s         
    37     -1.618704   3 H  s               164     -1.586065  10 H  s         

 Vector   61  Occ=0.000000D+00  E= 5.890535D-02
              MO Center=  5.5D-02,  1.4D-01, -5.1D-01, r^2= 4.0D+01
   Bfn.  Coefficient  Atom+Function         Bfn.  Coefficient  Atom+Function  
  ----- ------------  ---------------      ----- ------------  ---------------
   216      3.672140  14 H  s                13      3.224232   2 C  s         
   164     -3.219032  10 H  s               396     -2.872989  25 C  s         
    37     -2.677668   3 H  s               334      2.263322  20 H  s         
    63     -2.105806   5 C  px                3      2.024654   1 H  s         
   386      2.002373  24 H  s               148      1.920871   9 C  py        

 Vector   62  Occ=0.000000D+00  E= 6.465331D-02
              MO Center= -8.2D-01,  8.4D-01,  2.3D-01, r^2= 4.0D+01
   Bfn.  Coefficient  Atom+Function         Bfn.  Coefficient  Atom+Function  
  ----- ------------  ---------------      ----- ------------  ---------------
   164     -4.437403  10 H  s                56      4.306980   5 C  s         
   226      3.666844  15 C  s               174     -3.522254  11 C  s         
   334      2.841766  20 H  s               319      2.736401  19 C  pz        
   386     -2.652525  24 H  s               106     -2.464293   7 N  s         
   343      2.453937  21 C  s               140      2.262546   9 C  s         

 Vector   63  Occ=0.000000D+00  E= 6.726444D-02
              MO Center= -1.7D+00, -1.5D+00,  1.4D+00, r^2= 3.1D+01
   Bfn.  Coefficient  Atom+Function         Bfn.  Coefficient  Atom+Function  
  ----- ------------  ---------------      ----- ------------  ---------------
   198      5.478567  12 H  s               164      4.908826  10 H  s         
   226      4.211398  15 C  s               276     -3.866116  17 N  s         
   149      3.724552   9 C  pz              216     -3.435968  14 H  s         
   235     -3.169857  15 C  pz               37     -2.910239   3 H  s         
   377      2.724110  23 H  s               207     -2.654947  13 H  s         

 Vector   64  Occ=0.000000D+00  E= 7.253474D-02
              MO Center=  1.3D+00, -2.0D-01,  5.4D-01, r^2= 4.1D+01
   Bfn.  Coefficient  Atom+Function         Bfn.  Coefficient  Atom+Function  
  ----- ------------  ---------------      ----- ------------  ---------------
   174     -4.072544  11 C  s                56      4.039669   5 C  s         
   446     -3.657367  27 N  s               130     -3.097455   8 H  s         
   479     -2.979737  29 H  s               310      2.914715  19 C  s         
   386      2.726530  24 H  s               207     -2.625155  13 H  s         
    37      2.540612   3 H  s               403      2.400605  25 C  px        

 Vector   65  Occ=0.000000D+00  E= 7.553664D-02
              MO Center=  2.3D-02, -7.6D-01, -5.1D-02, r^2= 4.4D+01
   Bfn.  Coefficient  Atom+Function         Bfn.  Coefficient  Atom+Function  
  ----- ------------  ---------------      ----- ------------  ---------------
    13      5.590508   2 C  s               368      4.780744  22 H  s         
     3      4.563161   1 H  s               226     -4.332694  15 C  s         
   234      4.281960  15 C  py               46     -3.415495   4 H  s         
   140     -3.430387   9 C  s               147     -3.301999   9 C  px        
   396      3.315678  25 C  s                63     -3.284397   5 C  px        

 Vector   66  Occ=0.000000D+00  E= 8.814707D-02
              MO Center= -1.6D+00,  4.8D-01, -5.6D-01, r^2= 3.6D+01
   Bfn.  Coefficient  Atom+Function         Bfn.  Coefficient  Atom+Function  
  ----- ------------  ---------------      ----- ------------  ---------------
   300     -7.431886  18 H  s               164      7.255428  10 H  s         
   216     -4.966735  14 H  s               377     -4.245574  23 H  s         
   207      3.383831  13 H  s               344      3.321759  21 C  s         
   334      3.045290  20 H  s               276     -2.858688  17 N  s         
    56     -2.722368   5 C  s                63      2.709091   5 C  px        

 Vector   67  Occ=0.000000D+00  E= 8.897364D-02
              MO Center= -1.5D+00,  7.7D-01, -1.0D-01, r^2= 4.0D+01
   Bfn.  Coefficient  Atom+Function         Bfn.  Coefficient  Atom+Function  
  ----- ------------  ---------------      ----- ------------  ---------------
   234      6.141438  15 C  py              368      5.398175  22 H  s         
   386     -5.314151  24 H  s               174      4.939254  11 C  s         
   130     -4.821150   8 H  s               300     -4.835066  18 H  s         
   147      4.505957   9 C  px              198      4.327149  12 H  s         
   164      4.123082  10 H  s               207     -3.907397  13 H  s         

 Vector   68  Occ=0.000000D+00  E= 9.292474D-02
              MO Center=  5.4D-02,  7.5D-01,  2.2D-01, r^2= 3.6D+01
   Bfn.  Coefficient  Atom+Function         Bfn.  Coefficient  Atom+Function  
  ----- ------------  ---------------      ----- ------------  ---------------
   470      7.269998  28 H  s               396     -5.302065  25 C  s         
   377      4.473022  23 H  s               198     -4.006120  12 H  s         
   386     -3.559754  24 H  s               234     -3.485641  15 C  py        
   479     -3.352986  29 H  s                56     -2.962308   5 C  s         
   226      2.682050  15 C  s               334      2.663320  20 H  s         

 Vector   69  Occ=0.000000D+00  E= 1.037509D-01
              MO Center=  2.6D-01,  6.6D-01, -1.1D+00, r^2= 3.3D+01
   Bfn.  Coefficient  Atom+Function         Bfn.  Coefficient  Atom+Function  
  ----- ------------  ---------------      ----- ------------  ---------------
   470      8.010757  28 H  s               334     -5.647531  20 H  s         
   226      5.478672  15 C  s                13     -4.963243   2 C  s         
   140      4.559348   9 C  s               300      4.096634  18 H  s         
   164     -3.966432  10 H  s               396     -3.776587  25 C  s         
   377     -3.735876  23 H  s               386      3.288478  24 H  s         

 Vector   70  Occ=0.000000D+00  E= 1.107756D-01
              MO Center=  1.1D+00, -1.5D+00,  1.8D-01, r^2= 3.2D+01
   Bfn.  Coefficient  Atom+Function         Bfn.  Coefficient  Atom+Function  
  ----- ------------  ---------------      ----- ------------  ---------------
   226     21.484029  15 C  s                13    -16.542146   2 C  s         
    56     11.413124   5 C  s               276    -10.964476  17 N  s         
   140     10.888118   9 C  s               174     -9.608382  11 C  s         
   396     -9.578450  25 C  s                63      8.454817   5 C  px        
   235     -7.568393  15 C  pz              164      7.487009  10 H  s         

 Vector   71  Occ=0.000000D+00  E= 1.268465D-01
              MO Center= -5.5D-01, -7.5D-01, -7.5D-01, r^2= 2.8D+01
   Bfn.  Coefficient  Atom+Function         Bfn.  Coefficient  Atom+Function  
  ----- ------------  ---------------      ----- ------------  ---------------
   396     13.114878  25 C  s               344     -9.328025  21 C  s         
    56      8.824481   5 C  s               317     -7.772584  19 C  px        
   106     -5.103806   7 N  s               470      4.904467  28 H  s         
   148     -4.633472   9 C  py              147     -4.581217   9 C  px        
    63     -4.464484   5 C  px              276     -4.237067  17 N  s         

 Vector   72  Occ=0.000000D+00  E= 1.287091D-01
              MO Center= -1.3D+00, -1.4D+00, -3.6D-01, r^2= 2.9D+01
   Bfn.  Coefficient  Atom+Function         Bfn.  Coefficient  Atom+Function  
  ----- ------------  ---------------      ----- ------------  ---------------
   226     18.753500  15 C  s                56     14.269858   5 C  s         
    13    -10.461904   2 C  s               174    -10.375513  11 C  s         
   106    -10.075546   7 N  s               140      9.017419   9 C  s         
   148     -7.831558   9 C  py              310      7.620033  19 C  s         
   344     -7.332124  21 C  s               276     -6.318133  17 N  s         

 Vector   73  Occ=0.000000D+00  E= 1.309746D-01
              MO Center=  6.4D-01,  1.1D+00, -1.9D-01, r^2= 3.1D+01
   Bfn.  Coefficient  Atom+Function         Bfn.  Coefficient  Atom+Function  
  ----- ------------  ---------------      ----- ------------  ---------------
   344     15.511767  21 C  s               396    -15.419608  25 C  s         
   317      8.650290  19 C  px               56      5.466190   5 C  s         
   106     -5.179183   7 N  s               446      5.032463  27 N  s         
   403      4.589456  25 C  px               63     -4.158437   5 C  px        
   404      3.873147  25 C  py              164     -3.732764  10 H  s         

 Vector   74  Occ=0.000000D+00  E= 1.369128D-01
              MO Center= -8.7D-01, -1.3D+00,  2.9D-01, r^2= 2.8D+01
   Bfn.  Coefficient  Atom+Function         Bfn.  Coefficient  Atom+Function  
  ----- ------------  ---------------      ----- ------------  ---------------
   234     11.540113  15 C  py              174     11.036016  11 C  s         
    56     -8.405683   5 C  s               233      6.608179  15 C  px        
   147      5.669049   9 C  px              344     -5.406387  21 C  s         
   182      5.225094  11 C  py              216      5.232516  14 H  s         
   181      5.156048  11 C  px              276     -5.053904  17 N  s         

 Vector   75  Occ=0.000000D+00  E= 1.400937D-01
              MO Center= -2.9D-01, -5.3D-01, -9.5D-01, r^2= 2.9D+01
   Bfn.  Coefficient  Atom+Function         Bfn.  Coefficient  Atom+Function  
  ----- ------------  ---------------      ----- ------------  ---------------
   174      8.477622  11 C  s               396     -7.744187  25 C  s         
   147      7.002896   9 C  px              317      5.471599  19 C  px        
    56     -5.261403   5 C  s                64     -4.626981   5 C  py        
   106     -4.406410   7 N  s               181      3.995679  11 C  px        
    65      3.829828   5 C  pz              234      3.743927  15 C  py        

 Vector   76  Occ=0.000000D+00  E= 1.428064D-01
              MO Center= -3.1D-01, -1.0D+00,  4.1D-01, r^2= 3.0D+01
   Bfn.  Coefficient  Atom+Function         Bfn.  Coefficient  Atom+Function  
  ----- ------------  ---------------      ----- ------------  ---------------
   147      8.637729   9 C  px               63      8.343505   5 C  px        
   226      7.947026  15 C  s               276     -7.742946  17 N  s         
    64     -7.292548   5 C  py               13     -6.769256   2 C  s         
   140      5.167809   9 C  s                12      3.866200   2 C  s         
   174      3.847794  11 C  s               319     -3.773414  19 C  pz        

 Vector   77  Occ=0.000000D+00  E= 1.457541D-01
              MO Center= -8.6D-01, -6.5D-01, -1.1D-01, r^2= 2.8D+01
   Bfn.  Coefficient  Atom+Function         Bfn.  Coefficient  Atom+Function  
  ----- ------------  ---------------      ----- ------------  ---------------
   226      8.854464  15 C  s               148      8.177928   9 C  py        
   344     -7.964713  21 C  s                56      7.454762   5 C  s         
   276     -7.446260  17 N  s               284      5.865849  17 N  py        
    64     -5.361860   5 C  py              140      4.555690   9 C  s         
   182     -4.284855  11 C  py              310      4.221650  19 C  s         

 Vector   78  Occ=0.000000D+00  E= 1.479100D-01
              MO Center= -4.9D-01, -4.6D-01, -1.1D+00, r^2= 2.7D+01
   Bfn.  Coefficient  Atom+Function         Bfn.  Coefficient  Atom+Function  
  ----- ------------  ---------------      ----- ------------  ---------------
   234     11.635268  15 C  py              276    -10.991167  17 N  s         
   300     -7.977176  18 H  s               148      6.516231   9 C  py        
   233      6.184527  15 C  px              174      6.005255  11 C  s         
   319     -5.524414  19 C  pz              164      4.533456  10 H  s         
   106      4.006253   7 N  s               310     -3.768035  19 C  s         

 Vector   79  Occ=0.000000D+00  E= 1.518232D-01
              MO Center= -3.8D-01, -4.3D-01,  7.6D-03, r^2= 3.1D+01
   Bfn.  Coefficient  Atom+Function         Bfn.  Coefficient  Atom+Function  
  ----- ------------  ---------------      ----- ------------  ---------------
   174     11.522982  11 C  s               147      9.272420   9 C  px        
   106     -6.871532   7 N  s               470     -6.138126  28 H  s         
   164     -5.744306  10 H  s               396      5.310693  25 C  s         
   276     -4.606394  17 N  s               181      4.494397  11 C  px        
    56     -4.230755   5 C  s               446     -3.976834  27 N  s         

 Vector   80  Occ=0.000000D+00  E= 1.568094D-01
              MO Center= -3.8D-01, -8.3D-01, -1.9D-01, r^2= 3.1D+01
   Bfn.  Coefficient  Atom+Function         Bfn.  Coefficient  Atom+Function  
  ----- ------------  ---------------      ----- ------------  ---------------
   147      8.405782   9 C  px              174      6.175374  11 C  s         
   148      5.636723   9 C  py              470     -5.051564  28 H  s         
   284      4.550616  17 N  py              318      4.428152  19 C  py        
    63      4.383616   5 C  px               12      4.359540   2 C  s         
   317      3.192811  19 C  px               45     -3.067266   4 H  s         

 Vector   81  Occ=0.000000D+00  E= 1.606272D-01
              MO Center= -3.9D-01, -1.8D-01, -1.0D+00, r^2= 2.9D+01
   Bfn.  Coefficient  Atom+Function         Bfn.  Coefficient  Atom+Function  
  ----- ------------  ---------------      ----- ------------  ---------------
   396      9.858051  25 C  s               164      7.847837  10 H  s         
   149      6.734416   9 C  pz               63     -6.129785   5 C  px        
   234      5.816462  15 C  py              319     -5.742733  19 C  pz        
   284     -4.751552  17 N  py              140     -4.384414   9 C  s         
   317     -4.236489  19 C  px              446     -3.591811  27 N  s         

 Vector   82  Occ=0.000000D+00  E= 1.624562D-01
              MO Center=  1.7D-01, -1.7D+00,  3.2D-02, r^2= 2.1D+01
   Bfn.  Coefficient  Atom+Function         Bfn.  Coefficient  Atom+Function  
  ----- ------------  ---------------      ----- ------------  ---------------
   344     10.656588  21 C  s               276      9.748628  17 N  s         
   226     -8.974158  15 C  s               234     -8.007199  15 C  py        
   235      7.346839  15 C  pz              317      7.018124  19 C  px        
    13      5.704929   2 C  s               396     -5.191983  25 C  s         
    56     -3.623549   5 C  s               470     -3.544974  28 H  s         

 Vector   83  Occ=0.000000D+00  E= 1.689615D-01
              MO Center=  7.0D-01, -1.7D+00,  6.2D-02, r^2= 2.8D+01
   Bfn.  Coefficient  Atom+Function         Bfn.  Coefficient  Atom+Function  
  ----- ------------  ---------------      ----- ------------  ---------------
   174      6.634021  11 C  s               113      5.626563   7 N  px        
   149      5.414104   9 C  pz                3     -4.784219   1 H  s         
   404     -3.824952  25 C  py              164      3.624268  10 H  s         
   226     -3.602244  15 C  s               396      3.434785  25 C  s         
    56     -3.395501   5 C  s                20      3.303807   2 C  px        

 Vector   84  Occ=0.000000D+00  E= 1.695971D-01
              MO Center= -1.1D+00, -6.3D-01, -1.0D-01, r^2= 2.7D+01
   Bfn.  Coefficient  Atom+Function         Bfn.  Coefficient  Atom+Function  
  ----- ------------  ---------------      ----- ------------  ---------------
    13      9.569959   2 C  s               148      9.216335   9 C  py        
    63     -8.858429   5 C  px              226     -6.645864  15 C  s         
   207      5.563276  13 H  s               276      5.314304  17 N  s         
    64      4.902332   5 C  py              310     -4.777989  19 C  s         
   396     -4.552303  25 C  s               235      4.408823  15 C  pz        

 Vector   85  Occ=0.000000D+00  E= 1.717403D-01
              MO Center= -7.8D-02, -1.0D+00,  6.1D-01, r^2= 2.9D+01
   Bfn.  Coefficient  Atom+Function         Bfn.  Coefficient  Atom+Function  
  ----- ------------  ---------------      ----- ------------  ---------------
   446      8.584612  27 N  s               174      8.255421  11 C  s         
   276     -7.878095  17 N  s               396     -7.029707  25 C  s         
   130     -6.843418   8 H  s               147      6.598317   9 C  px        
   149      6.231573   9 C  pz              164      6.033871  10 H  s         
   235     -5.810997  15 C  pz               56     -5.397515   5 C  s         

 Vector   86  Occ=0.000000D+00  E= 1.741108D-01
              MO Center= -3.7D-01,  1.3D+00,  4.0D-01, r^2= 2.6D+01
   Bfn.  Coefficient  Atom+Function         Bfn.  Coefficient  Atom+Function  
  ----- ------------  ---------------      ----- ------------  ---------------
   396      6.875737  25 C  s               226     -6.054243  15 C  s         
   446     -5.768492  27 N  s               470     -5.721609  28 H  s         
   405     -4.402090  25 C  pz              404     -3.695670  25 C  py        
    13      3.553671   2 C  s               377      3.446292  23 H  s         
   235      3.266457  15 C  pz              351      3.180500  21 C  px        

 Vector   87  Occ=0.000000D+00  E= 1.779775D-01
              MO Center=  7.9D-01, -5.7D-02,  3.2D-01, r^2= 3.1D+01
   Bfn.  Coefficient  Atom+Function         Bfn.  Coefficient  Atom+Function  
  ----- ------------  ---------------      ----- ------------  ---------------
   446     11.244359  27 N  s               404      8.327548  25 C  py        
   403     -7.575307  25 C  px              396     -6.506165  25 C  s         
   310     -5.092694  19 C  s               318     -5.083026  19 C  py        
   470      4.508208  28 H  s               147      4.114295   9 C  px        
   149      4.110264   9 C  pz              174      3.818344  11 C  s         

 Vector   88  Occ=0.000000D+00  E= 1.812814D-01
              MO Center=  3.0D-01, -4.9D-01, -5.8D-01, r^2= 2.9D+01
   Bfn.  Coefficient  Atom+Function         Bfn.  Coefficient  Atom+Function  
  ----- ------------  ---------------      ----- ------------  ---------------
    56      9.920516   5 C  s               174     -8.542868  11 C  s         
    63     -8.172564   5 C  px              147     -6.706850   9 C  px        
   396     -6.704820  25 C  s               470      6.221686  28 H  s         
   276     -6.126564  17 N  s               113     -5.882358   7 N  px        
    13      5.750352   2 C  s               226     -5.390440  15 C  s         

 Vector   89  Occ=0.000000D+00  E= 1.842977D-01
              MO Center= -3.7D-01,  2.0D-01, -3.6D-02, r^2= 2.4D+01
   Bfn.  Coefficient  Atom+Function         Bfn.  Coefficient  Atom+Function  
  ----- ------------  ---------------      ----- ------------  ---------------
   344     -7.647096  21 C  s               226      7.488782  15 C  s         
   234      7.090046  15 C  py               56      6.511416   5 C  s         
   318      6.439094  19 C  py              235     -5.622073  15 C  pz        
   470      5.197992  28 H  s               106     -5.075195   7 N  s         
   317     -3.328228  19 C  px              351     -3.286615  21 C  px        

 Vector   90  Occ=0.000000D+00  E= 1.861863D-01
              MO Center=  4.2D-01, -6.3D-01, -8.4D-01, r^2= 2.7D+01
   Bfn.  Coefficient  Atom+Function         Bfn.  Coefficient  Atom+Function  
  ----- ------------  ---------------      ----- ------------  ---------------
   396      8.708740  25 C  s               446     -7.414081  27 N  s         
    63     -6.825428   5 C  px               13      6.662515   2 C  s         
   148      6.683476   9 C  py              276     -6.431927  17 N  s         
   470     -5.304532  28 H  s               403      4.975119  25 C  px        
   106     -4.912685   7 N  s                56      4.528447   5 C  s         

 Vector   91  Occ=0.000000D+00  E= 1.895473D-01
              MO Center= -1.1D+00,  6.9D-01, -5.2D-01, r^2= 2.8D+01
   Bfn.  Coefficient  Atom+Function         Bfn.  Coefficient  Atom+Function  
  ----- ------------  ---------------      ----- ------------  ---------------
   234     10.133002  15 C  py              317      8.202668  19 C  px        
   300      6.704740  18 H  s               318      6.350928  19 C  py        
   174      6.191530  11 C  s               396     -6.222094  25 C  s         
   198      5.570422  12 H  s               149      5.245464   9 C  pz        
   276     -4.644953  17 N  s               183     -4.616694  11 C  pz        

 Vector   92  Occ=0.000000D+00  E= 1.966469D-01
              MO Center= -1.6D-01, -8.4D-01,  3.3D-01, r^2= 2.8D+01
   Bfn.  Coefficient  Atom+Function         Bfn.  Coefficient  Atom+Function  
  ----- ------------  ---------------      ----- ------------  ---------------
[...]
   174      4.420621  11 C  s               285      4.085765  17 N  pz        

 Vector  135  Occ=0.000000D+00  E= 4.182429D-01
              MO Center= -1.7D-01,  3.8D-01, -1.2D-01, r^2= 1.9D+01
   Bfn.  Coefficient  Atom+Function         Bfn.  Coefficient  Atom+Function  
  ----- ------------  ---------------      ----- ------------  ---------------
   284     11.444038  17 N  py              226      9.934346  15 C  s         
    56      9.409744   5 C  s               276     -8.008206  17 N  s         
    13     -6.034145   2 C  s               235     -5.979868  15 C  pz        
   344     -5.642416  21 C  s               396     -5.571807  25 C  s         
   140      5.522137   9 C  s               106     -5.162975   7 N  s         

 Vector  136  Occ=0.000000D+00  E= 4.252858D-01
              MO Center=  2.2D-01,  1.1D-01, -1.0D-01, r^2= 1.8D+01
   Bfn.  Coefficient  Atom+Function         Bfn.  Coefficient  Atom+Function  
  ----- ------------  ---------------      ----- ------------  ---------------
   276     15.550106  17 N  s               226    -10.900866  15 C  s         
   106     10.380890   7 N  s               446      9.669229  27 N  s         
    13      7.844876   2 C  s               140     -6.849684   9 C  s         
   285      6.684211  17 N  pz              310     -6.474462  19 C  s         
   147     -6.366859   9 C  px               56     -5.985462   5 C  s         

 Vector  137  Occ=0.000000D+00  E= 4.266749D-01
              MO Center=  8.6D-01, -2.1D+00,  8.7D-02, r^2= 1.7D+01
   Bfn.  Coefficient  Atom+Function         Bfn.  Coefficient  Atom+Function  
  ----- ------------  ---------------      ----- ------------  ---------------
    12     -8.756930   2 C  s                 2      8.482210   1 H  s         
   106     -5.627287   7 N  s               148     -5.318761   9 C  py        
   174     -5.294502  11 C  s               233     -4.232713  15 C  px        
    13     -4.164071   2 C  s               310      4.051950  19 C  s         
   226      3.946217  15 C  s               235     -3.817895  15 C  pz        

 Vector  138  Occ=0.000000D+00  E= 4.303144D-01
              MO Center= -3.3D-01,  1.8D-01, -1.3D-01, r^2= 2.0D+01
   Bfn.  Coefficient  Atom+Function         Bfn.  Coefficient  Atom+Function  
  ----- ------------  ---------------      ----- ------------  ---------------
   234     10.931957  15 C  py              396      8.324736  25 C  s         
   446     -7.916828  27 N  s               233      7.439755  15 C  px        
    13      6.626482   2 C  s                56      6.341220   5 C  s         
    12      5.164748   2 C  s               174      4.820603  11 C  s         
   385     -4.762435  24 H  s               343      4.660870  21 C  s         

 Vector  139  Occ=0.000000D+00  E= 4.344764D-01
              MO Center= -1.1D-01, -1.1D+00, -3.2D-01, r^2= 1.9D+01
   Bfn.  Coefficient  Atom+Function         Bfn.  Coefficient  Atom+Function  
  ----- ------------  ---------------      ----- ------------  ---------------
   396    -20.085748  25 C  s               226     19.440180  15 C  s         
   140     11.442726   9 C  s               173     10.911901  11 C  s         
    13    -10.147851   2 C  s               446     10.056106  27 N  s         
   276     -9.269018  17 N  s               174      7.779231  11 C  s         
   215     -7.332692  14 H  s               206     -6.965609  13 H  s         

 Vector  140  Occ=0.000000D+00  E= 4.417141D-01
              MO Center= -1.7D-01, -4.2D-01,  1.6D-01, r^2= 2.1D+01
   Bfn.  Coefficient  Atom+Function         Bfn.  Coefficient  Atom+Function  
  ----- ------------  ---------------      ----- ------------  ---------------
    13     13.057402   2 C  s               226    -12.071259  15 C  s         
   148      8.496719   9 C  py              234      8.536322  15 C  py        
   140     -7.734342   9 C  s                12      7.663372   2 C  s         
    36     -7.124018   3 H  s               174      6.728882  11 C  s         
   396      6.653483  25 C  s               106      6.466704   7 N  s         

 Vector  141  Occ=0.000000D+00  E= 4.480585D-01
              MO Center=  1.5D-01, -4.3D-02,  1.2D-01, r^2= 2.0D+01
   Bfn.  Coefficient  Atom+Function         Bfn.  Coefficient  Atom+Function  
  ----- ------------  ---------------      ----- ------------  ---------------
   344      9.565524  21 C  s               396     -8.940080  25 C  s         
   174     -8.612580  11 C  s                13     -7.053828   2 C  s         
   226      6.220539  15 C  s                56      5.802012   5 C  s         
   235     -4.806393  15 C  pz              140      4.435838   9 C  s         
   343      4.380973  21 C  s               454      4.241277  27 N  py        

 Vector  142  Occ=0.000000D+00  E= 4.554419D-01
              MO Center=  1.1D-01, -7.5D-01,  2.6D-01, r^2= 2.0D+01
   Bfn.  Coefficient  Atom+Function         Bfn.  Coefficient  Atom+Function  
  ----- ------------  ---------------      ----- ------------  ---------------
   174     18.886782  11 C  s               446    -12.614225  27 N  s         
   396     12.345193  25 C  s                56    -10.098903   5 C  s         
    13      8.618284   2 C  s               226     -7.998188  15 C  s         
   197     -7.767253  12 H  s               173      7.286282  11 C  s         
   147      6.825302   9 C  px              206     -6.427107  13 H  s         

 Vector  143  Occ=0.000000D+00  E= 4.575060D-01
              MO Center= -3.5D-01, -9.3D-01,  3.3D-01, r^2= 1.9D+01
   Bfn.  Coefficient  Atom+Function         Bfn.  Coefficient  Atom+Function  
  ----- ------------  ---------------      ----- ------------  ---------------
   226     28.204087  15 C  s                13    -21.344194   2 C  s         
   276    -19.122972  17 N  s               106    -14.535891   7 N  s         
   140     13.691474   9 C  s               284     11.310388  17 N  py        
    56      9.224782   5 C  s               310      9.097752  19 C  s         
   173     -8.530371  11 C  s               319      8.549292  19 C  pz        

 Vector  144  Occ=0.000000D+00  E= 4.631987D-01
              MO Center= -5.1D-02,  5.3D-01, -9.1D-02, r^2= 1.9D+01
   Bfn.  Coefficient  Atom+Function         Bfn.  Coefficient  Atom+Function  
  ----- ------------  ---------------      ----- ------------  ---------------
   276     19.541235  17 N  s                13     11.365061   2 C  s         
   226    -10.566756  15 C  s                63     -9.683465   5 C  px        
   174     -9.010051  11 C  s                56      8.355749   5 C  s         
   147     -8.244557   9 C  px              344     -8.159667  21 C  s         
   113     -7.962946   7 N  px              140     -7.490564   9 C  s         

 Vector  145  Occ=0.000000D+00  E= 4.681287D-01
              MO Center= -1.2D-01, -5.6D-01, -3.1D-02, r^2= 1.7D+01
   Bfn.  Coefficient  Atom+Function         Bfn.  Coefficient  Atom+Function  
  ----- ------------  ---------------      ----- ------------  ---------------
   174     26.704519  11 C  s               147     15.603291   9 C  px        
    56    -14.943724   5 C  s                12     10.704122   2 C  s         
   284      9.574070  17 N  py              310     -6.632075  19 C  s         
   113      6.389073   7 N  px              396     -6.418590  25 C  s         
   215     -6.095929  14 H  s               234      5.856315  15 C  py        

 Vector  146  Occ=0.000000D+00  E= 4.727171D-01
              MO Center= -8.6D-01,  7.7D-01,  4.2D-01, r^2= 2.0D+01
   Bfn.  Coefficient  Atom+Function         Bfn.  Coefficient  Atom+Function  
  ----- ------------  ---------------      ----- ------------  ---------------
   226     18.583387  15 C  s                56     16.972379   5 C  s         
   174    -16.332035  11 C  s               344    -16.245300  21 C  s         
    13    -13.896907   2 C  s               106    -11.770448   7 N  s         
   310     11.117643  19 C  s               318      9.415969  19 C  py        
   343     -8.410463  21 C  s               446     -8.207994  27 N  s         

 Vector  147  Occ=0.000000D+00  E= 4.749485D-01
              MO Center= -9.4D-01, -1.5D-01,  9.9D-02, r^2= 1.9D+01
   Bfn.  Coefficient  Atom+Function         Bfn.  Coefficient  Atom+Function  
  ----- ------------  ---------------      ----- ------------  ---------------
   396     15.417577  25 C  s               344    -13.446302  21 C  s         
   367      9.072055  22 H  s               174      8.987224  11 C  s         
   343     -8.506069  21 C  s               446     -8.073937  27 N  s         
   276     -6.998990  17 N  s               317     -6.131316  19 C  px        
   197     -5.490135  12 H  s               113      4.729975   7 N  px        

 Vector  148  Occ=0.000000D+00  E= 4.827475D-01
              MO Center= -9.3D-01,  7.8D-01, -7.3D-02, r^2= 1.8D+01
   Bfn.  Coefficient  Atom+Function         Bfn.  Coefficient  Atom+Function  
  ----- ------------  ---------------      ----- ------------  ---------------
   174     25.490482  11 C  s                56    -20.297324   5 C  s         
   226    -15.676666  15 C  s                13     14.277451   2 C  s         
   276     12.446467  17 N  s               140    -10.621698   9 C  s         
   234     10.105357  15 C  py              310     -8.647801  19 C  s         
   309     -7.267633  19 C  s               147      7.177291   9 C  px        

 Vector  149  Occ=0.000000D+00  E= 4.909812D-01
              MO Center= -8.0D-01,  1.3D-01, -9.5D-02, r^2= 1.7D+01
   Bfn.  Coefficient  Atom+Function         Bfn.  Coefficient  Atom+Function  
  ----- ------------  ---------------      ----- ------------  ---------------
   234      8.621283  15 C  py              284     -8.156080  17 N  py        
   226     -7.975873  15 C  s               140     -7.753041   9 C  s         
   446      6.768082  27 N  s               310     -6.423222  19 C  s         
   148     -6.170559   9 C  py              276      6.067883  17 N  s         
   367      5.838482  22 H  s               333      5.564466  20 H  s         

 Vector  150  Occ=0.000000D+00  E= 4.952669D-01
              MO Center= -1.3D+00,  1.2D+00,  5.9D-01, r^2= 1.6D+01
   Bfn.  Coefficient  Atom+Function         Bfn.  Coefficient  Atom+Function  
  ----- ------------  ---------------      ----- ------------  ---------------
   226     28.501642  15 C  s               344    -17.383221  21 C  s         
    13    -12.909184   2 C  s               140     12.518280   9 C  s         
   276    -12.441904  17 N  s               376     11.834186  23 H  s         
    56     11.313665   5 C  s               396    -10.634281  25 C  s         
   284      9.430509  17 N  py              343     -9.433009  21 C  s         

 Vector  151  Occ=0.000000D+00  E= 4.959234D-01
              MO Center=  2.0D-01, -6.1D-01,  2.6D-01, r^2= 2.0D+01
   Bfn.  Coefficient  Atom+Function         Bfn.  Coefficient  Atom+Function  
  ----- ------------  ---------------      ----- ------------  ---------------
   234     19.179765  15 C  py              174     18.467049  11 C  s         
    56    -12.396718   5 C  s               173     11.743589  11 C  s         
   344    -11.537346  21 C  s                13     11.021209   2 C  s         
   233     10.656860  15 C  px               12     -9.402839   2 C  s         
   215     -8.317313  14 H  s               343     -7.597562  21 C  s         

 Vector  152  Occ=0.000000D+00  E= 5.015478D-01
              MO Center= -1.1D+00, -9.5D-02,  3.4D-02, r^2= 1.7D+01
   Bfn.  Coefficient  Atom+Function         Bfn.  Coefficient  Atom+Function  
  ----- ------------  ---------------      ----- ------------  ---------------
   276     19.788039  17 N  s               226    -13.991011  15 C  s         
   174    -10.536388  11 C  s                13      9.306601   2 C  s         
   140     -8.204137   9 C  s               206      7.686803  13 H  s         
   235      7.063231  15 C  pz              233     -6.528305  15 C  px        
   147     -6.456201   9 C  px              197      5.665474  12 H  s         


 center of mass
 --------------
 x =   0.05805293 y =   0.06238525 z =   0.00377403

 moments of inertia (a.u.)
 ------------------
        3777.407495667988           0.000000000001           0.000000000000
           0.000000000001        1757.646679713541          -0.000000000000
           0.000000000000          -0.000000000000        4972.519107247474

  Mulliken analysis of the total density
  --------------------------------------

    Atom       Charge   Shell Charges
 -----------   ------   -------------------------------------------------------
    1 H    1     0.99   0.76  0.24  0.01  0.03 -0.05
    2 C    6     6.31   2.01  0.66  0.24  0.12  2.07  1.04  0.01  0.06  0.10
    3 H    1     0.83   0.76  0.11 -0.00  0.03 -0.06
    4 H    1     0.84   0.76  0.11  0.00  0.03 -0.06
    5 C    6     5.06   2.01  0.68  0.07 -0.09  1.89  0.32 -0.06  0.24  0.01
    6 O    8     8.78   2.01  0.82  1.00  0.15  2.80  1.86  0.14  0.01 -0.01
    7 N    7     7.59   2.01  0.72  0.82 -0.11  2.45  1.45  0.16  0.05  0.04
    8 H    1     0.97   0.77  0.21 -0.03  0.05 -0.04
    9 C    6     6.67   2.01  0.66  0.23  0.06  2.00  1.40 -0.05  0.14  0.22
   10 H    1     1.17   0.79  0.31  0.02  0.03  0.02
   11 C    6     5.64   2.01  0.66  0.14  0.19  2.04  0.57 -0.03  0.07 -0.01
   12 H    1     0.91   0.77  0.16  0.03  0.03 -0.07
   13 H    1     0.97   0.77  0.25 -0.00  0.03 -0.08
   14 H    1     1.00   0.77  0.27  0.01  0.03 -0.09
   15 C    6     4.37   2.01  0.68 -0.14  0.17  1.89  0.09 -0.07  0.23 -0.48
   16 O    8     8.85   2.01  0.82  1.05  0.17  2.78  1.87  0.14  0.01  0.00
   17 N    7     7.30   2.01  0.72  0.79 -0.25  2.45  1.45  0.02  0.05  0.07
   18 H    1     1.10   0.77  0.29 -0.00  0.05 -0.01
   19 C    6     6.33   2.01  0.66  0.03  0.01  1.98  1.44 -0.07  0.14  0.13
   20 H    1     1.17   0.79  0.37 -0.00  0.03 -0.02
   21 C    6     5.68   2.01  0.66  0.24  0.25  2.04  0.46 -0.05  0.07  0.01
   22 H    1     0.97   0.78  0.24  0.01  0.03 -0.08
   23 H    1     0.95   0.76  0.21  0.01  0.03 -0.06
   24 H    1     0.94   0.77  0.21  0.02  0.03 -0.08
   25 C    6     4.75   2.01  0.68  0.15  0.01  1.88 -0.11  0.02  0.24 -0.13
   26 O    8     8.79   2.01  0.82  1.03  0.17  2.79  1.83  0.14  0.01 -0.01
   27 N    7     7.13   2.01  0.72  0.80 -0.21  2.47  1.23  0.10  0.04 -0.02
   28 H    1     0.91   0.74  0.28 -0.04  0.06 -0.12
   29 H    1     1.02   0.76  0.24 -0.00  0.05 -0.03

       Multipole analysis of the density wrt the origin
       ------------------------------------------------

     L   x y z        total         open         nuclear
     -   - - -        -----         ----         -------
     0   0 0 0     -0.000000      0.000000    108.000000

     1   1 0 0     -1.252976      0.000000     -0.000000
     1   0 1 0     -2.844156      0.000000      0.000000
     1   0 0 1     -0.947140      0.000000      0.000000

     2   2 0 0    -59.521177      0.000000    854.142400
     2   1 1 0     -5.163212      0.000000    -24.990214
     2   1 0 1      5.177538      0.000000     10.634389
     2   0 2 0    -64.823913      0.000000   1940.551000
     2   0 1 1     -8.195826      0.000000    -18.929340
     2   0 0 2    -64.355757      0.000000    166.302604


 Task  times  cpu:     2721.2s     wall:     3238.1s


                                NWChem Input Module
                                -------------------


 Summary of allocated global arrays
-----------------------------------
  No active global arrays


MA_summarize_allocated_blocks: starting scan ...
MA_summarize_allocated_blocks: scan completed: 0 heap blocks, 0 stack blocks
MA usage statistics:

	allocation statistics:
					      heap	     stack
					      ----	     -----
	current number of blocks	         0	         0
	maximum number of blocks	        16	        14
	current total bytes		         0	         0
	maximum total bytes		    102112	  24147784
	maximum total K-bytes		       103	     24148
	maximum total M-bytes		         1	        25


                                     CITATION
                                     --------
                Please cite the following reference when publishing
                           results obtained with NWChem:

          E. Apra, E. J. Bylaska, W. A. de Jong, N. Govind, K. Kowalski,
       T. P. Straatsma, M. Valiev, H. J. J. van Dam, Y. Alexeev, J. Anchell,
       V. Anisimov, F. W. Aquino, R. Atta-Fynn, J. Autschbach, N. P. Bauman,
     J. C. Becca, D. E. Bernholdt, K. Bhaskaran-Nair, S. Bogatko, P. Borowski,
         J. Boschen, J. Brabec, A. Bruner, E. Cauet, Y. Chen, G. N. Chuev,
      C. J. Cramer, J. Daily, M. J. O. Deegan, T. H. Dunning Jr., M. Dupuis,
   K. G. Dyall, G. I. Fann, S. A. Fischer, A. Fonari, H. Fruchtl, L. Gagliardi,
      J. Garza, N. Gawande, S. Ghosh, K. Glaesemann, A. W. Gotz, J. Hammond,
       V. Helms, E. D. Hermes, K. Hirao, S. Hirata, M. Jacquelin, L. Jensen,
   B. G. Johnson, H. Jonsson, R. A. Kendall, M. Klemm, R. Kobayashi, V. Konkov,
      S. Krishnamoorthy, M. Krishnan, Z. Lin, R. D. Lins, R. J. Littlefield,
      A. J. Logsdail, K. Lopata, W. Ma, A. V. Marenich, J. Martin del Campo,
   D. Mejia-Rodriguez, J. E. Moore, J. M. Mullin, T. Nakajima, D. R. Nascimento,
    J. A. Nichols, P. J. Nichols, J. Nieplocha, A. Otero-de-la-Roza, B. Palmer,
    A. Panyala, T. Pirojsirikul, B. Peng, R. Peverati, J. Pittner, L. Pollack,
   R. M. Richard, P. Sadayappan, G. C. Schatz, W. A. Shelton, D. W. Silverstein,
   D. M. A. Smith, T. A. Soares, D. Song, M. Swart, H. L. Taylor, G. S. Thomas,
            V. Tipparaju, D. G. Truhlar, K. Tsemekhman, T. Van Voorhis,
      A. Vazquez-Mayagoitia, P. Verma, O. Villa, A. Vishnu, K. D. Vogiatzis,
        D. Wang, J. H. Weare, M. J. Williamson, T. L. Windus, K. Wolinski,
        A. T. Wong, Q. Wu, C. Yang, Q. Yu, M. Zacharias, Z. Zhang, Y. Zhao,
                                and R. J. Harrison
                        "NWChem: Past, present, and future
                         J. Chem. Phys. 152, 184102 (2020)
                               doi:10.1063/5.0004997

                                      AUTHORS
                                      -------
  E. Apra, E. J. Bylaska, N. Govind, K. Kowalski, M. Valiev, D. Mejia-Rodriguez,
       A. Kunitsa, N. P. Bauman, A. Panyala, W. A. de Jong, T. P. Straatsma,
   H. J. J. van Dam, D. Wang, T. L. Windus, J. Hammond, J. Autschbach, A. Woods,
    K. Bhaskaran-Nair, J. Brabec, K. Lopata, S. A. Fischer, S. Krishnamoorthy,
     M. Jacquelin, W. Ma, M. Klemm, O. Villa, Y. Chen, V. Anisimov, F. Aquino,
     S. Hirata, M. T. Hackler, E. Hermes, L. Jensen, J. E. Moore, J. C. Becca,
      V. Konjkov, T. Risthaus, M. Malagoli, A. Marenich, A. Otero-de-la-Roza,
        J. Mullin, P. Nichols, R. Peverati, J. Pittner, Y. Zhao, P.-D. Fan,
        A. Fonari, M. J. Williamson, R. J. Harrison, J. R. Rehr, M. Dupuis,
     D. Silverstein, D. M. A. Smith, J. Nieplocha, V. Tipparaju, M. Krishnan,
     B. E. Van Kuiken, A. Vazquez-Mayagoitia, M. Swart, Q. Wu, T. Van Voorhis,
     A. A. Auer, M. Nooijen, L. D. Crosby, E. Brown, G. Cisneros, G. I. Fann,
   H. Fruchtl, J. Garza, K. Hirao, R. A. Kendall, J. A. Nichols, K. Tsemekhman,
    K. Wolinski, J. Anchell, D. E. Bernholdt, P. Borowski, T. Clark, D. Clerc,
   H. Dachsel, M. J. O. Deegan, K. Dyall, D. Elwood, E. Glendening, M. Gutowski,
   A. C. Hess, J. Jaffe, B. G. Johnson, J. Ju, R. Kobayashi, R. Kutteh, Z. Lin,
   R. Littlefield, X. Long, B. Meng, T. Nakajima, S. Niu, L. Pollack, M. Rosing,
   K. Glaesemann, G. Sandrone, M. Stave, H. Taylor, G. Thomas, J. H. van Lenthe,
                               A. T. Wong, Z. Zhang.

 Total times  cpu:     2721.3s     wall:     3238.3s
