export TMOUT=5400
export TMPDIR=/tmp
export PTMPDIR=/tmp/ptmp
 argument  1 = ALA_CYS_5.nw
                                         
                                         


             Northwest Computational Chemistry Package (NWChem) 7.2.0
             --------------------------------------------------------


                    Environmental Molecular Sciences Laboratory
                       Pacific Northwest National Laboratory
                                Richland, WA 99352

                              Copyright (c) 1994-2022
                       Pacific Northwest National Laboratory
                            Battelle Memorial Institute

             NWChem is an open-source computational chemistry package
                        distributed under the terms of the
                      Educational Community License (ECL) 2.0
             A copy of the license is included with this distribution
                              in the LICENSE.TXT file

                                  ACKNOWLEDGMENT
                                  --------------

            This software and its documentation were developed at the
            EMSL at Pacific Northwest National Laboratory, a multiprogram
            national laboratory, operated for the U.S. Department of Energy
            by Battelle under Contract Number DE-AC05-76RL01830. Support
            for this work was provided by the Department of Energy Office
            of Biological and Environmental Research, Office of Basic
            Energy Sciences, and the Office of Advanced Scientific Computing.


           Job information
           ---------------

    hostname        = nova18-61
    program         = /opt/rit/el9/20230413/app/linux-rhel9-x86_64_v3/gcc-11.2.1/nwchem-7.2.0-oxtctbuhfuzyfaoziquq6bki22grib3g/bin/nwchem
    date            = Thu Jun 26 09:37:12 2025

    compiled        = Wed_May_17_23:46:39_2023
    source          = /tmp/root/spack-stage/spack-stage-nwchem-7.2.0-oxtctbuhfuzyfaoziquq6bki22grib3g/spack-src
    nwchem branch   = 7.2.0
    nwchem revision = d0d141fd
    ga revision     = 5.8.0
    use scalapack   = T
    input           = ALA_CYS_5.nw
    prefix          = ALA_CYS_5.
    data base       = ./ALA_CYS_5.db
    status          = startup
    nproc           =        8
    time left       =     -1s



           Memory information
           ------------------

    heap     =   26214398 doubles =    200.0 Mbytes
    stack    =   26214395 doubles =    200.0 Mbytes
    global   =   52428800 doubles =    400.0 Mbytes (distinct from heap & stack)
    total    =  104857593 doubles =    800.0 Mbytes
    verify   = yes
    hardfail = no 


           Directory information
           ---------------------

  0 permanent = .
  0 scratch   = .




                                NWChem Input Module
                                -------------------



 Scaling coordinates for geometry "geometry" by  1.889725989
 (inverse scale =  0.529177249)

 C1  symmetry detected

          ------
          auto-z
          ------
  no constraints, skipping    0.0000000000000000     
  no constraints, skipping    0.0000000000000000     


                             Geometry "geometry" -> ""
                             -------------------------

 Output coordinates in angstroms (scale by  1.889725989 to convert to a.u.)

  No.       Tag          Charge          X              Y              Z
 ---- ---------------- ---------- -------------- -------------- --------------
    1 H                    1.0000     1.03339929    -2.83516587     3.14453565
    2 C                    6.0000     0.21120384    -3.02265896     2.45364349
    3 H                    1.0000    -0.70851394    -2.60580205     2.86096464
    4 H                    1.0000     0.10140296    -4.09496350     2.30650833
    5 C                    6.0000     0.52465538    -2.36473223     1.13174957
    6 O                    8.0000     1.56559127    -1.73758956     0.98566212
    7 N                    7.0000    -0.39474039    -2.47957742     0.17333473
    8 H                    1.0000    -1.22911060    -3.00574712     0.37673778
    9 C                    6.0000    -0.21502010    -2.00035185    -1.20518820
   10 H                    1.0000     0.66996413    -2.48517776    -1.62024212
   11 C                    6.0000    -1.43329779    -2.45350190    -2.02077297
   12 H                    1.0000    -2.33900314    -1.97993713    -1.63790323
   13 H                    1.0000    -1.29914222    -2.16667632    -3.06463473
   14 H                    1.0000    -1.53714071    -3.53838060    -1.96737037
   15 C                    6.0000     0.01440026    -0.47631554    -1.34806093
   16 O                    8.0000     0.43046348    -0.01942695    -2.40778600
   17 N                    7.0000    -0.23274485     0.30970546    -0.29550582
   18 H                    1.0000    -0.59327267    -0.11878550     0.53906065
   19 C                    6.0000     0.06875295     1.74394306    -0.24555990
   20 H                    1.0000    -0.24911664     2.20021517    -1.18488874
   21 C                    6.0000    -0.73239610     2.37528330     0.90385852
   22 H                    1.0000    -0.35384415     1.99833407     1.85609205
   23 H                    1.0000    -0.59406152     3.45865863     0.88681614
   24 S                   16.0000    -2.50364351     1.98140710     0.76769637
   25 H                    1.0000    -2.75003629     2.71487043    -0.32514175
   26 C                    6.0000     1.57261892     2.06327295    -0.09013609
   27 O                    8.0000     1.95975439     3.22321541    -0.15501773
   28 N                    7.0000     2.43703428     1.08312685     0.15134623
   29 H                    1.0000     3.41031544     1.31699898     0.24321911
   30 H                    1.0000     2.11763555     0.12703667     0.23881065

      Atomic Mass 
      ----------- 

      H                  1.007825
      C                 12.000000
      O                 15.994910
      N                 14.003070
      S                 31.972070


 Effective nuclear repulsion energy (a.u.)    1194.2182947154

            Nuclear Dipole moment (a.u.) 
            ----------------------------
        X                 Y               Z
 ---------------- ---------------- ----------------
     0.0000000000     0.0000000000     0.0000000000



                                Z-matrix (autoz)
                                -------- 

 Units are Angstrom for bonds and degrees for angles

      Type          Name      I     J     K     L     M      Value
      ----------- --------  ----- ----- ----- ----- ----- ----------
    1 Stretch                  1     2                       1.09018
    2 Stretch                  2     3                       1.08883
    3 Stretch                  2     4                       1.08791
    4 Stretch                  2     5                       1.50948
    5 Stretch                  5     6                       1.22401
    6 Stretch                  5     7                       1.33306
    7 Stretch                  7     8                       1.00717
    8 Stretch                  7     9                       1.47047
    9 Stretch                  9    10                       1.09111
   10 Stretch                  9    11                       1.53451
   11 Stretch                  9    15                       1.54782
   12 Stretch                 11    12                       1.09140
   13 Stretch                 11    13                       1.09083
   14 Stretch                 11    14                       1.09114
   15 Stretch                 15    16                       1.22673
   16 Stretch                 15    17                       1.33671
   17 Stretch                 17    18                       1.00503
   18 Stretch                 17    19                       1.46644
   19 Stretch                 19    20                       1.09159
   20 Stretch                 19    21                       1.53675
   21 Stretch                 19    26                       1.54523
   22 Stretch                 21    22                       1.09185
   23 Stretch                 21    23                       1.09230
   24 Stretch                 21    24                       1.81961
   25 Stretch                 24    25                       1.33902
   26 Stretch                 26    27                       1.22456
   27 Stretch                 26    28                       1.32899
   28 Stretch                 28    29                       1.00519
   29 Stretch                 28    30                       1.01182
   30 Bend                     1     2     3               109.51935
   31 Bend                     1     2     4               109.35055
   32 Bend                     1     2     5               108.86953
   33 Bend                     2     5     6               120.29414
   34 Bend                     2     5     7               116.66971
   35 Bend                     3     2     4               110.04132
   36 Bend                     3     2     5               109.64154
   37 Bend                     4     2     5               109.39824
   38 Bend                     5     7     8               118.11016
   39 Bend                     5     7     9               124.16891
   40 Bend                     6     5     7               123.01558
   41 Bend                     7     9    10               108.11527
   42 Bend                     7     9    11               107.75747
   43 Bend                     7     9    15               115.18502
   44 Bend                     8     7     9               117.44087
   45 Bend                     9    11    12               110.13616
   46 Bend                     9    11    13               109.47048
   47 Bend                     9    11    14               110.06915
   48 Bend                     9    15    16               119.78407
   49 Bend                     9    15    17               118.61394
   50 Bend                    10     9    11               108.09185
   51 Bend                    10     9    15               106.39045
   52 Bend                    11     9    15               111.06244
   53 Bend                    12    11    13               108.88490
   54 Bend                    12    11    14               109.58886
   55 Bend                    13    11    14               108.66116
   56 Bend                    15    17    18               118.00120
   57 Bend                    15    17    19               124.32755
   58 Bend                    16    15    17               121.59594
   59 Bend                    17    19    20               108.64072
   60 Bend                    17    19    21               108.66891
   61 Bend                    17    19    26               113.93115
   62 Bend                    18    17    19               117.54569
   63 Bend                    19    21    22               109.25241
   64 Bend                    19    21    23               109.25526
   65 Bend                    19    21    24               111.25824
   66 Bend                    19    26    27               119.87437
   67 Bend                    19    26    28               119.92620
   68 Bend                    20    19    21               108.66868
   69 Bend                    20    19    26               106.47383
   70 Bend                    21    19    26               110.31862
   71 Bend                    21    24    25                96.98573
   72 Bend                    22    21    23               108.18672
   73 Bend                    22    21    24               109.14871
   74 Bend                    23    21    24               109.68220
   75 Bend                    26    28    29               118.34608
   76 Bend                    26    28    30               120.48278
   77 Bend                    27    26    28               120.17172
   78 Bend                    29    28    30               121.17112
   79 Torsion                  1     2     5     6          -0.55122
   80 Torsion                  1     2     5     7        -178.95062
   81 Torsion                  2     5     7     8          -1.04157
   82 Torsion                  2     5     7     9        -174.79529
   83 Torsion                  3     2     5     6         119.24384
   84 Torsion                  3     2     5     7         -59.15555
   85 Torsion                  4     2     5     6        -119.99628
   86 Torsion                  4     2     5     7          61.60433
   87 Torsion                  5     7     9    10          57.52266
   88 Torsion                  5     7     9    11         174.12846
   89 Torsion                  5     7     9    15         -61.28853
   90 Torsion                  6     5     7     8        -179.39337
   91 Torsion                  6     5     7     9           6.85291
   92 Torsion                  7     9    11    12          63.86369
   93 Torsion                  7     9    11    13        -176.44812
   94 Torsion                  7     9    11    14         -57.07603
   95 Torsion                  7     9    15    16         165.76808
   96 Torsion                  7     9    15    17         -13.35202
   97 Torsion                  8     7     9    10        -116.26953
   98 Torsion                  8     7     9    11           0.33627
   99 Torsion                  8     7     9    15         124.91928
  100 Torsion                  9    15    17    18          -2.33403
  101 Torsion                  9    15    17    19         173.48348
  102 Torsion                 10     9    11    12        -179.51523
  103 Torsion                 10     9    11    13         -59.82704
  104 Torsion                 10     9    11    14          59.54505
  105 Torsion                 10     9    15    16          46.00186
  106 Torsion                 10     9    15    17        -133.11825
  107 Torsion                 11     9    15    16         -71.39469
  108 Torsion                 11     9    15    17         109.48520
  109 Torsion                 12    11     9    15         -63.16060
  110 Torsion                 13    11     9    15          56.52760
  111 Torsion                 14    11     9    15         175.89969
  112 Torsion                 15    17    19    20          44.49084
  113 Torsion                 15    17    19    21         162.56108
  114 Torsion                 15    17    19    26         -74.00712
  115 Torsion                 16    15    17    18         178.56254
  116 Torsion                 16    15    17    19          -5.61995
  117 Torsion                 17    19    21    22          67.50381
  118 Torsion                 17    19    21    23        -174.31912
  119 Torsion                 17    19    21    24         -53.07344
  120 Torsion                 17    19    26    27         173.56222
  121 Torsion                 17    19    26    28          -8.34899
  122 Torsion                 18    17    19    20        -139.67414
  123 Torsion                 18    17    19    21         -21.60390
  124 Torsion                 18    17    19    26         101.82790
  125 Torsion                 19    21    24    25         -68.86263
  126 Torsion                 19    26    28    29         179.67151
  127 Torsion                 19    26    28    30          -0.28034
  128 Torsion                 20    19    21    22        -174.44366
  129 Torsion                 20    19    21    23         -56.26659
  130 Torsion                 20    19    21    24          64.97909
  131 Torsion                 20    19    26    27          53.83307
  132 Torsion                 20    19    26    28        -128.07815
  133 Torsion                 21    19    26    27         -63.90592
  134 Torsion                 21    19    26    28         114.18287
  135 Torsion                 22    21    19    26         -58.06542
  136 Torsion                 22    21    24    25         170.49908
  137 Torsion                 23    21    19    26          60.11166
  138 Torsion                 23    21    24    25          52.13306
  139 Torsion                 24    21    19    26        -178.64266
  140 Torsion                 27    26    28    29          -2.24545
  141 Torsion                 27    26    28    30         177.80271


            XYZ format geometry
            -------------------
    30
 geometry
 H                     1.03339929    -2.83516587     3.14453565
 C                     0.21120384    -3.02265896     2.45364349
 H                    -0.70851394    -2.60580205     2.86096464
 H                     0.10140296    -4.09496350     2.30650833
 C                     0.52465538    -2.36473223     1.13174957
 O                     1.56559127    -1.73758956     0.98566212
 N                    -0.39474039    -2.47957742     0.17333473
 H                    -1.22911060    -3.00574712     0.37673778
 C                    -0.21502010    -2.00035185    -1.20518820
 H                     0.66996413    -2.48517776    -1.62024212
 C                    -1.43329779    -2.45350190    -2.02077297
 H                    -2.33900314    -1.97993713    -1.63790323
 H                    -1.29914222    -2.16667632    -3.06463473
 H                    -1.53714071    -3.53838060    -1.96737037
 C                     0.01440026    -0.47631554    -1.34806093
 O                     0.43046348    -0.01942695    -2.40778600
 N                    -0.23274485     0.30970546    -0.29550582
 H                    -0.59327267    -0.11878550     0.53906065
 C                     0.06875295     1.74394306    -0.24555990
 H                    -0.24911664     2.20021517    -1.18488874
 C                    -0.73239610     2.37528330     0.90385852
 H                    -0.35384415     1.99833407     1.85609205
 H                    -0.59406152     3.45865863     0.88681614
 S                    -2.50364351     1.98140710     0.76769637
 H                    -2.75003629     2.71487043    -0.32514175
 C                     1.57261892     2.06327295    -0.09013609
 O                     1.95975439     3.22321541    -0.15501773
 N                     2.43703428     1.08312685     0.15134623
 H                     3.41031544     1.31699898     0.24321911
 H                     2.11763555     0.12703667     0.23881065

 ==============================================================================
                                internuclear distances
 ------------------------------------------------------------------------------
       center one      |      center two      | atomic units |  angstroms
 ------------------------------------------------------------------------------
    2 C                |   1 H                |     2.06014  |     1.09018
    3 H                |   2 C                |     2.05760  |     1.08883
    4 H                |   2 C                |     2.05585  |     1.08791
    5 C                |   2 C                |     2.85250  |     1.50948
    6 O                |   5 C                |     2.31304  |     1.22401
    7 N                |   5 C                |     2.51911  |     1.33306
    8 H                |   7 N                |     1.90328  |     1.00717
    9 C                |   7 N                |     2.77879  |     1.47047
   10 H                |   9 C                |     2.06190  |     1.09111
   11 C                |   9 C                |     2.89981  |     1.53451
   12 H                |  11 C                |     2.06245  |     1.09140
   13 H                |  11 C                |     2.06137  |     1.09083
   14 H                |  11 C                |     2.06196  |     1.09114
   15 C                |   9 C                |     2.92495  |     1.54782
   16 O                |  15 C                |     2.31819  |     1.22673
   17 N                |  15 C                |     2.52601  |     1.33671
   18 H                |  17 N                |     1.89923  |     1.00503
   19 C                |  17 N                |     2.77116  |     1.46644
   20 H                |  19 C                |     2.06280  |     1.09159
   21 C                |  19 C                |     2.90403  |     1.53675
   22 H                |  21 C                |     2.06330  |     1.09185
   23 H                |  21 C                |     2.06416  |     1.09230
   24 S                |  21 C                |     3.43857  |     1.81961
   25 H                |  24 S                |     2.53038  |     1.33902
   26 C                |  19 C                |     2.92006  |     1.54523
   27 O                |  26 C                |     2.31409  |     1.22456
   28 N                |  26 C                |     2.51143  |     1.32899
   29 H                |  28 N                |     1.89954  |     1.00519
   30 H                |  28 N                |     1.91206  |     1.01182
 ------------------------------------------------------------------------------
                         number of included internuclear distances:         29
 ==============================================================================



 ==============================================================================
                                 internuclear angles
 ------------------------------------------------------------------------------
        center 1       |       center 2       |       center 3       |  degrees
 ------------------------------------------------------------------------------
    1 H                |   2 C                |   3 H                |   109.52
    1 H                |   2 C                |   4 H                |   109.35
    1 H                |   2 C                |   5 C                |   108.87
    3 H                |   2 C                |   4 H                |   110.04
    3 H                |   2 C                |   5 C                |   109.64
    4 H                |   2 C                |   5 C                |   109.40
    2 C                |   5 C                |   6 O                |   120.29
    2 C                |   5 C                |   7 N                |   116.67
    6 O                |   5 C                |   7 N                |   123.02
    5 C                |   7 N                |   8 H                |   118.11
    5 C                |   7 N                |   9 C                |   124.17
    8 H                |   7 N                |   9 C                |   117.44
    7 N                |   9 C                |  10 H                |   108.12
    7 N                |   9 C                |  11 C                |   107.76
    7 N                |   9 C                |  15 C                |   115.19
   10 H                |   9 C                |  11 C                |   108.09
   10 H                |   9 C                |  15 C                |   106.39
   11 C                |   9 C                |  15 C                |   111.06
    9 C                |  11 C                |  12 H                |   110.14
    9 C                |  11 C                |  13 H                |   109.47
    9 C                |  11 C                |  14 H                |   110.07
   12 H                |  11 C                |  13 H                |   108.88
   12 H                |  11 C                |  14 H                |   109.59
   13 H                |  11 C                |  14 H                |   108.66
    9 C                |  15 C                |  16 O                |   119.78
    9 C                |  15 C                |  17 N                |   118.61
   16 O                |  15 C                |  17 N                |   121.60
   15 C                |  17 N                |  18 H                |   118.00
   15 C                |  17 N                |  19 C                |   124.33
   18 H                |  17 N                |  19 C                |   117.55
   17 N                |  19 C                |  20 H                |   108.64
   17 N                |  19 C                |  21 C                |   108.67
   17 N                |  19 C                |  26 C                |   113.93
   20 H                |  19 C                |  21 C                |   108.67
   20 H                |  19 C                |  26 C                |   106.47
   21 C                |  19 C                |  26 C                |   110.32
   19 C                |  21 C                |  22 H                |   109.25
   19 C                |  21 C                |  23 H                |   109.26
   19 C                |  21 C                |  24 S                |   111.26
   22 H                |  21 C                |  23 H                |   108.19
   22 H                |  21 C                |  24 S                |   109.15
   23 H                |  21 C                |  24 S                |   109.68
   21 C                |  24 S                |  25 H                |    96.99
   19 C                |  26 C                |  27 O                |   119.87
   19 C                |  26 C                |  28 N                |   119.93
   27 O                |  26 C                |  28 N                |   120.17
   26 C                |  28 N                |  29 H                |   118.35
   26 C                |  28 N                |  30 H                |   120.48
   29 H                |  28 N                |  30 H                |   121.17
 ------------------------------------------------------------------------------
                            number of included internuclear angles:         49
 ==============================================================================



  library name resolved from: environment
  library file name is: </opt/rit/el9/20230413/app/linux-rhel9-x86_64_v3/gcc-11.2.1/nwchem-7.2.0-oxtctbuhfuzyfaoziquq6bki22grib3g/share/nwchem/libraries/>
  


 Summary of "ao basis" -> "" (cartesian)
 ------------------------------------------------------------------------------
       Tag                 Description            Shells   Functions and Types
 ---------------- ------------------------------  ------  ---------------------
 *                        aug-cc-pvdz                 on all atoms 


                      Basis "ao basis" -> "ao basis" (cartesian)
                      -----
  H (Hydrogen)
  ------------
            Exponent  Coefficients 
       -------------- ---------------------------------------------------------
  1 S  1.30100000E+01  0.019685
  1 S  1.96200000E+00  0.137977
  1 S  4.44600000E-01  0.478148

  2 S  1.22000000E-01  1.000000

  3 S  2.97400000E-02  1.000000

  4 P  7.27000000E-01  1.000000

  5 P  1.41000000E-01  1.000000

  C (Carbon)
  ----------
            Exponent  Coefficients 
       -------------- ---------------------------------------------------------
  1 S  6.66500000E+03  0.000692
  1 S  1.00000000E+03  0.005329
  1 S  2.28000000E+02  0.027077
  1 S  6.47100000E+01  0.101718
  1 S  2.10600000E+01  0.274740
  1 S  7.49500000E+00  0.448564
  1 S  2.79700000E+00  0.285074
  1 S  5.21500000E-01  0.015204

  2 S  6.66500000E+03 -0.000146
  2 S  1.00000000E+03 -0.001154
  2 S  2.28000000E+02 -0.005725
  2 S  6.47100000E+01 -0.023312
  2 S  2.10600000E+01 -0.063955
  2 S  7.49500000E+00 -0.149981
  2 S  2.79700000E+00 -0.127262
  2 S  5.21500000E-01  0.544529

  3 S  1.59600000E-01  1.000000

  4 S  4.69000000E-02  1.000000

  5 P  9.43900000E+00  0.038109
  5 P  2.00200000E+00  0.209480
  5 P  5.45600000E-01  0.508557

  6 P  1.51700000E-01  1.000000

  7 P  4.04100000E-02  1.000000

  8 D  5.50000000E-01  1.000000

  9 D  1.51000000E-01  1.000000

  O (Oxygen)
  ----------
            Exponent  Coefficients 
       -------------- ---------------------------------------------------------
  1 S  1.17200000E+04  0.000710
  1 S  1.75900000E+03  0.005470
  1 S  4.00800000E+02  0.027837
  1 S  1.13700000E+02  0.104800
  1 S  3.70300000E+01  0.283062
  1 S  1.32700000E+01  0.448719
  1 S  5.02500000E+00  0.270952
  1 S  1.01300000E+00  0.015458

  2 S  1.17200000E+04 -0.000160
  2 S  1.75900000E+03 -0.001263
  2 S  4.00800000E+02 -0.006267
  2 S  1.13700000E+02 -0.025716
  2 S  3.70300000E+01 -0.070924
  2 S  1.32700000E+01 -0.165411
  2 S  5.02500000E+00 -0.116955
  2 S  1.01300000E+00  0.557368

  3 S  3.02300000E-01  1.000000

  4 S  7.89600000E-02  1.000000

  5 P  1.77000000E+01  0.043018
  5 P  3.85400000E+00  0.228913
  5 P  1.04600000E+00  0.508728

  6 P  2.75300000E-01  1.000000

  7 P  6.85600000E-02  1.000000

  8 D  1.18500000E+00  1.000000

  9 D  3.32000000E-01  1.000000

  N (Nitrogen)
  ------------
            Exponent  Coefficients 
       -------------- ---------------------------------------------------------
  1 S  9.04600000E+03  0.000700
  1 S  1.35700000E+03  0.005389
  1 S  3.09300000E+02  0.027406
  1 S  8.77300000E+01  0.103207
  1 S  2.85600000E+01  0.278723
  1 S  1.02100000E+01  0.448540
  1 S  3.83800000E+00  0.278238
  1 S  7.46600000E-01  0.015440

  2 S  9.04600000E+03 -0.000153
  2 S  1.35700000E+03 -0.001208
  2 S  3.09300000E+02 -0.005992
  2 S  8.77300000E+01 -0.024544
  2 S  2.85600000E+01 -0.067459
  2 S  1.02100000E+01 -0.158078
  2 S  3.83800000E+00 -0.121831
  2 S  7.46600000E-01  0.549003

  3 S  2.24800000E-01  1.000000

  4 S  6.12400000E-02  1.000000

  5 P  1.35500000E+01  0.039919
  5 P  2.91700000E+00  0.217169
  5 P  7.97300000E-01  0.510319

  6 P  2.18500000E-01  1.000000

  7 P  5.61100000E-02  1.000000

  8 D  8.17000000E-01  1.000000

  9 D  2.30000000E-01  1.000000

  S (Sulphur)
  -----------
            Exponent  Coefficients 
       -------------- ---------------------------------------------------------
  1 S  1.10800000E+05  0.000248
  1 S  1.66100000E+04  0.001920
  1 S  3.78100000E+03  0.009962
  1 S  1.07100000E+03  0.040298
  1 S  3.49800000E+02  0.128604
  1 S  1.26300000E+02  0.303480
  1 S  4.92600000E+01  0.421432
  1 S  2.01600000E+01  0.230781
  1 S  5.72000000E+00  0.017897
  1 S  2.18200000E+00 -0.002975
  1 S  4.32700000E-01  0.000850

  2 S  1.10800000E+05 -0.000069
  2 S  1.66100000E+04 -0.000528
  2 S  3.78100000E+03 -0.002797
  2 S  1.07100000E+03 -0.011265
  2 S  3.49800000E+02 -0.038883
  2 S  1.26300000E+02 -0.099503
  2 S  4.92600000E+01 -0.199740
  2 S  2.01600000E+01 -0.123360
  2 S  5.72000000E+00  0.513194
  2 S  2.18200000E+00  0.607120
  2 S  4.32700000E-01  0.039675

  3 S  1.10800000E+05  0.000020
  3 S  1.66100000E+04  0.000153
  3 S  3.78100000E+03  0.000810
  3 S  1.07100000E+03  0.003290
  3 S  3.49800000E+02  0.011297
  3 S  1.26300000E+02  0.029639
  3 S  4.92600000E+01  0.059985
  3 S  2.01600000E+01  0.041325
  3 S  5.72000000E+00 -0.207474
  3 S  2.18200000E+00 -0.392889
  3 S  4.32700000E-01  0.632840

  4 S  1.57000000E-01  1.000000

  5 S  5.07000000E-02  1.000000

  6 P  3.99700000E+02  0.004475
  6 P  9.41900000E+01  0.034171
  6 P  2.97500000E+01  0.144250
  6 P  1.07700000E+01  0.353928
  6 P  4.11900000E+00  0.459085
  6 P  1.62500000E+00  0.206383
  6 P  4.72600000E-01  0.010214

  7 P  3.99700000E+02 -0.001163
  7 P  9.41900000E+01 -0.008657
  7 P  2.97500000E+01 -0.039089
  7 P  1.07700000E+01 -0.093463
  7 P  4.11900000E+00 -0.147994
  7 P  1.62500000E+00  0.030190
  7 P  4.72600000E-01  0.561573

  8 P  1.40700000E-01  1.000000

  9 P  3.99000000E-02  1.000000

 10 D  4.79000000E-01  1.000000

 11 D  1.52000000E-01  1.000000



 Summary of "ao basis" -> "ao basis" (cartesian)
 ------------------------------------------------------------------------------
       Tag                 Description            Shells   Functions and Types
 ---------------- ------------------------------  ------  ---------------------
 H                        aug-cc-pvdz                5        9   3s2p
 C                        aug-cc-pvdz                9       25   4s3p2d
 O                        aug-cc-pvdz                9       25   4s3p2d
 N                        aug-cc-pvdz                9       25   4s3p2d
 S                        aug-cc-pvdz               11       29   5s4p2d


                                 NWChem SCF Module
                                 -----------------



  ao basis        = "ao basis"
  functions       =   514
  atoms           =    30
  closed shells   =    62
  open shells     =     0
  charge          =   0.00
  wavefunction    = RHF 
  input vectors   = atomic
  output vectors  = ./ALA_CYS_5.movecs
  use symmetry    = F
  symmetry adapt  = F


 Summary of "ao basis" -> "ao basis" (cartesian)
 ------------------------------------------------------------------------------
       Tag                 Description            Shells   Functions and Types
 ---------------- ------------------------------  ------  ---------------------
 H                        aug-cc-pvdz                5        9   3s2p
 C                        aug-cc-pvdz                9       25   4s3p2d
 O                        aug-cc-pvdz                9       25   4s3p2d
 N                        aug-cc-pvdz                9       25   4s3p2d
 S                        aug-cc-pvdz               11       29   5s4p2d



 Forming initial guess at       1.1s


 !! The overlap matrix has   3 vectors deemed linearly dependent with
    eigenvalues:
 4.49D-06 6.09D-06 8.17D-06


      Superposition of Atomic Density Guess
      -------------------------------------

 Sum of atomic energies:       -1093.51360735

      Non-variational initial energy
      ------------------------------

 Total energy =   -1102.799647
 1-e energy   =   -3869.521682
 2-e energy   =    1572.503741
 HOMO         =      -0.289355
 LUMO         =       0.010011


 Starting SCF solution at     170.1s



 ----------------------------------------------
         Quadratically convergent ROHF

 Convergence threshold     :          1.000E-04
 Maximum no. of iterations :           30
 Final Fock-matrix accuracy:          1.000E-10
 ----------------------------------------------


              iter       energy          gnorm     gmax       time
             ----- ------------------- --------- --------- --------
                 1    -1096.9455137907  2.39D+00  1.89D-01    346.5
                 2    -1097.2527625052  7.99D-01  5.50D-02    680.1
                 3    -1097.3102112765  6.69D-02  4.23D-03   1167.8
                 4    -1097.3108892883  4.22D-03  4.51D-04   1822.2
                 5    -1097.3108928393  8.61D-06  5.39D-07   2926.5


       Final RHF  results 
       ------------------ 

         Total SCF energy =  -1097.310892839309
      One-electron energy =  -3879.543315902912
      Two-electron energy =   1588.014128348197
 Nuclear repulsion energy =   1194.218294715406

        Time for solution =   2760.9s


             Final eigenvalues
             -----------------

              1      
    1  -91.9699
    2  -20.5552
    3  -20.5324
    4  -20.5112
    5  -15.6285
    6  -15.6045
    7  -15.5747
    8  -11.3840
    9  -11.3672
   10  -11.3479
   11  -11.3155
   12  -11.3031
   13  -11.2894
   14  -11.2665
   15  -11.2592
   16   -8.9711
   17   -6.6535
   18   -6.6521
   19   -6.6500
   20   -1.4190
   21   -1.3930
   22   -1.3733
   23   -1.2774
   24   -1.2528
   25   -1.1995
   26   -1.0938
   27   -1.0738
   28   -1.0165
   29   -0.9805
   30   -0.9077
   31   -0.8592
   32   -0.8382
   33   -0.8129
   34   -0.7892
   35   -0.7399
   36   -0.7306
   37   -0.7093
   38   -0.6971
   39   -0.6694
   40   -0.6465
   41   -0.6408
   42   -0.6236
   43   -0.6060
   44   -0.6033
   45   -0.5962
   46   -0.5912
   47   -0.5906
   48   -0.5749
   49   -0.5619
   50   -0.5567
   51   -0.5418
   52   -0.5377
   53   -0.5290
   54   -0.5086
   55   -0.4688
   56   -0.4557
   57   -0.4536
   58   -0.4375
   59   -0.4129
   60   -0.3946
   61   -0.3876
   62   -0.3692
   63    0.0168
   64    0.0323
   65    0.0358
   66    0.0426
   67    0.0499
   68    0.0539
   69    0.0570
   70    0.0598
   71    0.0670
   72    0.0722

                       ROHF Final Molecular Orbital Analysis
                       -------------------------------------

 Vector   20  Occ=2.000000D+00  E=-1.419039D+00
              MO Center=  1.0D+00, -1.9D+00,  8.4D-01, r^2= 1.3D+00
   Bfn.  Coefficient  Atom+Function         Bfn.  Coefficient  Atom+Function  
  ----- ------------  ---------------      ----- ------------  ---------------
    79      0.342572   6 O  s                80      0.343881   6 O  s         
    54      0.242216   5 C  s                12      0.185830   2 C  s         

 Vector   21  Occ=2.000000D+00  E=-1.392967D+00
              MO Center=  3.2D-01, -7.9D-02, -1.7D+00, r^2= 1.8D+00
   Bfn.  Coefficient  Atom+Function         Bfn.  Coefficient  Atom+Function  
  ----- ------------  ---------------      ----- ------------  ---------------
   250      0.356257  16 O  s               249      0.333934  16 O  s         
   224      0.239459  15 C  s         

 Vector   22  Occ=2.000000D+00  E=-1.373272D+00
              MO Center=  1.8D+00,  2.6D+00, -1.9D-01, r^2= 1.4D+00
   Bfn.  Coefficient  Atom+Function         Bfn.  Coefficient  Atom+Function  
  ----- ------------  ---------------      ----- ------------  ---------------
   449      0.374180  27 O  s               448      0.347199  27 O  s         
   423      0.242245  26 C  s         

 Vector   23  Occ=2.000000D+00  E=-1.277398D+00
              MO Center= -4.8D-02, -2.1D+00,  1.1D-01, r^2= 2.3D+00
   Bfn.  Coefficient  Atom+Function         Bfn.  Coefficient  Atom+Function  
  ----- ------------  ---------------      ----- ------------  ---------------
   105      0.388995   7 N  s               104      0.329484   7 N  s         
    80     -0.213153   6 O  s                79     -0.178834   6 O  s         
   139     -0.175679   9 C  s                57     -0.165304   5 C  px        
   128      0.151761   8 H  s         

 Vector   24  Occ=2.000000D+00  E=-1.252793D+00
              MO Center=  6.4D-03,  2.6D-01, -4.6D-01, r^2= 2.8D+00
   Bfn.  Coefficient  Atom+Function         Bfn.  Coefficient  Atom+Function  
  ----- ------------  ---------------      ----- ------------  ---------------
   275      0.361102  17 N  s               274      0.320876  17 N  s         
   309     -0.199122  19 C  s               250     -0.193512  16 O  s         
   229      0.164061  15 C  pz              249     -0.161403  16 O  s         
   424      0.158982  26 C  s         

 Vector   25  Occ=2.000000D+00  E=-1.199458D+00
              MO Center=  2.1D+00,  1.4D+00,  5.8D-02, r^2= 1.7D+00
   Bfn.  Coefficient  Atom+Function         Bfn.  Coefficient  Atom+Function  
  ----- ------------  ---------------      ----- ------------  ---------------
   474      0.381968  28 N  s               473      0.368239  28 N  s         
   309     -0.235132  19 C  s               449     -0.198668  27 O  s         
   427     -0.197588  26 C  py              448     -0.168688  27 O  s         
   429     -0.161565  26 C  px              506      0.161330  30 H  s         
   497      0.159133  29 H  s         

 Vector   26  Occ=2.000000D+00  E=-1.093832D+00
              MO Center= -5.7D-01,  4.2D-01,  4.3D-02, r^2= 7.0D+00
   Bfn.  Coefficient  Atom+Function         Bfn.  Coefficient  Atom+Function  
  ----- ------------  ---------------      ----- ------------  ---------------
   342      0.211789  21 C  s               348     -0.175441  21 C  px        
   386      0.163642  24 S  s               308      0.161776  19 C  s         
   316      0.150838  19 C  pz        

 Vector   27  Occ=2.000000D+00  E=-1.073824D+00
              MO Center= -6.4D-01, -8.1D-01, -8.0D-02, r^2= 8.2D+00
   Bfn.  Coefficient  Atom+Function         Bfn.  Coefficient  Atom+Function  
  ----- ------------  ---------------      ----- ------------  ---------------
   138      0.189262   9 C  s               172      0.177782  11 C  s         
   342      0.168220  21 C  s                12     -0.155651   2 C  s         

 Vector   28  Occ=2.000000D+00  E=-1.016533D+00
              MO Center= -9.4D-02, -2.7D+00,  1.2D+00, r^2= 5.0D+00
   Bfn.  Coefficient  Atom+Function         Bfn.  Coefficient  Atom+Function  
  ----- ------------  ---------------      ----- ------------  ---------------
    11      0.315240   2 C  s               172      0.167319  11 C  s         
    59      0.162823   5 C  pz               55      0.160011   5 C  s         
   174      0.150097  11 C  s         

 Vector   29  Occ=2.000000D+00  E=-9.804765D-01
              MO Center= -8.9D-01,  1.5D+00,  2.3D-02, r^2= 5.1D+00
   Bfn.  Coefficient  Atom+Function         Bfn.  Coefficient  Atom+Function  
  ----- ------------  ---------------      ----- ------------  ---------------
   386      0.302619  24 S  s               308     -0.231339  19 C  s         
   314     -0.187887  19 C  px              387      0.178575  24 S  s         
   139      0.172034   9 C  s               145      0.155962   9 C  py        
   348     -0.155679  21 C  px        

 Vector   30  Occ=2.000000D+00  E=-9.076582D-01
              MO Center= -7.5D-01, -1.5D+00, -1.1D+00, r^2= 5.8D+00
   Bfn.  Coefficient  Atom+Function         Bfn.  Coefficient  Atom+Function  
  ----- ------------  ---------------      ----- ------------  ---------------
   139      0.279920   9 C  s               172     -0.238120  11 C  s         
   145      0.235613   9 C  py              138      0.192802   9 C  s         
   173     -0.165867  11 C  s         

 Vector   31  Occ=2.000000D+00  E=-8.592336D-01
              MO Center= -6.9D-01,  1.8D+00,  4.4D-01, r^2= 5.4D+00
   Bfn.  Coefficient  Atom+Function         Bfn.  Coefficient  Atom+Function  
  ----- ------------  ---------------      ----- ------------  ---------------
   387      0.333662  24 S  s               386      0.240683  24 S  s         
   342     -0.235338  21 C  s               309      0.223548  19 C  s         
   314      0.185499  19 C  px              366     -0.174704  22 H  s         
   375     -0.150596  23 H  s         

 Vector   32  Occ=2.000000D+00  E=-8.381862D-01
              MO Center= -4.0D-02, -1.9D+00,  2.3D-01, r^2= 4.7D+00
   Bfn.  Coefficient  Atom+Function         Bfn.  Coefficient  Atom+Function  
  ----- ------------  ---------------      ----- ------------  ---------------
   107      0.256742   7 N  px              128     -0.219027   8 H  s         
    54      0.205773   5 C  s               139      0.195014   9 C  s         
   105     -0.193925   7 N  s               109      0.192654   7 N  pz        
    56     -0.188274   5 C  s                62     -0.166630   5 C  pz        
    12      0.156434   2 C  s                80     -0.156605   6 O  s         

 Vector   33  Occ=2.000000D+00  E=-8.128835D-01
              MO Center= -8.7D-02, -3.1D-01, -3.5D-01, r^2= 4.6D+00
   Bfn.  Coefficient  Atom+Function         Bfn.  Coefficient  Atom+Function  
  ----- ------------  ---------------      ----- ------------  ---------------
   279      0.277126  17 N  pz              309     -0.256636  19 C  s         
   298      0.204011  18 H  s               275      0.186476  17 N  s         
   231     -0.172082  15 C  py              224     -0.170952  15 C  s         
   128     -0.170009   8 H  s               145     -0.169041   9 C  py        
   107      0.164698   7 N  px              245      0.157540  15 C  dyy       

 Vector   34  Occ=2.000000D+00  E=-7.891605D-01
              MO Center=  1.2D+00,  1.2D+00, -5.8D-02, r^2= 3.8D+00
   Bfn.  Coefficient  Atom+Function         Bfn.  Coefficient  Atom+Function  
  ----- ------------  ---------------      ----- ------------  ---------------
   429     -0.223759  26 C  px              314     -0.220892  19 C  px        
   476      0.219529  28 N  px              225      0.214191  15 C  s         
   423     -0.206500  26 C  s               477     -0.204736  28 N  py        
   497      0.183268  29 H  s               298     -0.174850  18 H  s         
   275     -0.164988  17 N  s               279     -0.163775  17 N  pz        

 Vector   35  Occ=2.000000D+00  E=-7.399379D-01
              MO Center=  1.2D+00,  2.2D-01,  8.6D-03, r^2= 5.2D+00
   Bfn.  Coefficient  Atom+Function         Bfn.  Coefficient  Atom+Function  
  ----- ------------  ---------------      ----- ------------  ---------------
   477      0.278061  28 N  py              506     -0.252818  30 H  s         
   424      0.223095  26 C  s               314     -0.210523  19 C  px        
   225      0.206768  15 C  s               426      0.190839  26 C  px        
    56      0.185324   5 C  s               425     -0.166715  26 C  s         
   315     -0.161602  19 C  py              507     -0.158874  30 H  s         

 Vector   36  Occ=2.000000D+00  E=-7.305841D-01
              MO Center=  1.7D-01, -1.1D+00, -8.4D-02, r^2= 6.7D+00
   Bfn.  Coefficient  Atom+Function         Bfn.  Coefficient  Atom+Function  
  ----- ------------  ---------------      ----- ------------  ---------------
   145      0.348725   9 C  py              225     -0.302212  15 C  s         
   107     -0.194423   7 N  px              139      0.191299   9 C  s         
   146     -0.190814   9 C  pz              128      0.181782   8 H  s         
   228     -0.173483  15 C  py              226      0.172597  15 C  s         
   142      0.161776   9 C  py              231      0.160185  15 C  py        

 Vector   37  Occ=2.000000D+00  E=-7.093213D-01
              MO Center=  1.9D-01, -7.4D-01, -2.0D-01, r^2= 7.5D+00
   Bfn.  Coefficient  Atom+Function         Bfn.  Coefficient  Atom+Function  
  ----- ------------  ---------------      ----- ------------  ---------------
   139     -0.191699   9 C  s               108      0.184958   7 N  py        
   162     -0.171090  10 H  s               143      0.158740   9 C  pz        
   312      0.154718  19 C  py              173      0.152836  11 C  s         

 Vector   38  Occ=2.000000D+00  E=-6.970806D-01
              MO Center=  8.9D-01, -1.4D+00,  7.2D-01, r^2= 5.8D+00
   Bfn.  Coefficient  Atom+Function         Bfn.  Coefficient  Atom+Function  
  ----- ------------  ---------------      ----- ------------  ---------------
    80      0.234673   6 O  s                82      0.204878   6 O  px        
    59     -0.180458   5 C  pz               84     -0.168630   6 O  pz        
    57     -0.164803   5 C  px               83      0.153340   6 O  py        
   477      0.152470  28 N  py        

 Vector   39  Occ=2.000000D+00  E=-6.693628D-01
              MO Center=  3.3D-01, -8.2D-02, -3.6D-01, r^2= 8.3D+00
   Bfn.  Coefficient  Atom+Function         Bfn.  Coefficient  Atom+Function  
  ----- ------------  ---------------      ----- ------------  ---------------
   276      0.192537  17 N  s               278      0.190067  17 N  py        
    56     -0.170826   5 C  s               315     -0.151540  19 C  py        

 Vector   40  Occ=2.000000D+00  E=-6.465280D-01
              MO Center=  7.0D-01,  1.3D+00, -1.3D-01, r^2= 6.5D+00
   Bfn.  Coefficient  Atom+Function         Bfn.  Coefficient  Atom+Function  
  ----- ------------  ---------------      ----- ------------  ---------------
   476      0.226478  28 N  px              497      0.191567  29 H  s         
   254      0.159499  16 O  pz              426     -0.159822  26 C  px        

 Vector   41  Occ=2.000000D+00  E=-6.408288D-01
              MO Center=  2.3D-01, -2.2D+00,  1.3D+00, r^2= 5.7D+00
   Bfn.  Coefficient  Atom+Function         Bfn.  Coefficient  Atom+Function  
  ----- ------------  ---------------      ----- ------------  ---------------
   139      0.267845   9 C  s                15      0.257268   2 C  py        
    44     -0.219958   4 H  s                35      0.210862   3 H  s         
    83      0.168251   6 O  py        

 Vector   42  Occ=2.000000D+00  E=-6.236492D-01
              MO Center= -9.1D-02, -2.9D-01, -4.0D-01, r^2= 8.9D+00
   Bfn.  Coefficient  Atom+Function         Bfn.  Coefficient  Atom+Function  
  ----- ------------  ---------------      ----- ------------  ---------------
   254      0.223591  16 O  pz              250     -0.179924  16 O  s         
   299      0.178400  18 H  s               276     -0.175101  17 N  s         
    82     -0.171091   6 O  px        

 Vector   43  Occ=2.000000D+00  E=-6.060273D-01
              MO Center=  4.4D-01, -8.9D-01, -8.2D-02, r^2= 8.7D+00
   Bfn.  Coefficient  Atom+Function         Bfn.  Coefficient  Atom+Function  
  ----- ------------  ---------------      ----- ------------  ---------------
    82      0.222501   6 O  px              254      0.188273  16 O  pz        
   145     -0.169570   9 C  py              225      0.162024  15 C  s         
    57     -0.153512   5 C  px        

 Vector   44  Occ=2.000000D+00  E=-6.032762D-01
              MO Center=  2.4D-01,  4.3D-01, -3.9D-02, r^2= 8.7D+00
   Bfn.  Coefficient  Atom+Function         Bfn.  Coefficient  Atom+Function  
  ----- ------------  ---------------      ----- ------------  ---------------
   277      0.175905  17 N  px              452      0.168573  27 O  py        
    82      0.166499   6 O  px        

 Vector   45  Occ=2.000000D+00  E=-5.962012D-01
              MO Center= -1.1D-01, -9.8D-01,  5.4D-01, r^2= 1.1D+01
   Bfn.  Coefficient  Atom+Function         Bfn.  Coefficient  Atom+Function  
  ----- ------------  ---------------      ----- ------------  ---------------
    14      0.245653   2 C  px                1      0.231205   1 H  s         
     2      0.192730   1 H  s               177     -0.163976  11 C  pz        

 Vector   46  Occ=2.000000D+00  E=-5.911896D-01
              MO Center= -3.1D-01, -1.1D+00,  2.7D-02, r^2= 1.2D+01
   Bfn.  Coefficient  Atom+Function         Bfn.  Coefficient  Atom+Function  
  ----- ------------  ---------------      ----- ------------  ---------------
     1      0.215841   1 H  s                 2      0.183892   1 H  s         
   214     -0.180364  14 H  s               176      0.179409  11 C  py        
   206      0.177222  13 H  s                14      0.173146   2 C  px        
   205      0.161951  13 H  s               215     -0.159171  14 H  s         

 Vector   47  Occ=2.000000D+00  E=-5.905988D-01
              MO Center=  1.7D-02,  1.4D+00, -9.9D-02, r^2= 7.0D+00
   Bfn.  Coefficient  Atom+Function         Bfn.  Coefficient  Atom+Function  
  ----- ------------  ---------------      ----- ------------  ---------------
   346      0.239732  21 C  py              375      0.200305  23 H  s         
   343     -0.193480  21 C  s               376      0.193819  23 H  s         
   284      0.172907  17 N  py              313     -0.168551  19 C  pz        
   428     -0.160091  26 C  pz        

 Vector   48  Occ=2.000000D+00  E=-5.749204D-01
              MO Center=  8.0D-01,  1.3D+00, -4.1D-01, r^2= 7.0D+00
   Bfn.  Coefficient  Atom+Function         Bfn.  Coefficient  Atom+Function  
  ----- ------------  ---------------      ----- ------------  ---------------
   452      0.305625  27 O  py              427     -0.221021  26 C  py        
   449      0.174849  27 O  s               252     -0.165064  16 O  px        
   455      0.156947  27 O  py        

 Vector   49  Occ=2.000000D+00  E=-5.618511D-01
              MO Center= -3.4D-01, -2.4D+00,  3.9D-01, r^2= 6.4D+00
   Bfn.  Coefficient  Atom+Function         Bfn.  Coefficient  Atom+Function  
  ----- ------------  ---------------      ----- ------------  ---------------
   196      0.222114  12 H  s                15      0.208867   2 C  py        
    44     -0.206768   4 H  s               108     -0.202815   7 N  py        
   111     -0.185415   7 N  py              175     -0.185580  11 C  px        
    35      0.176105   3 H  s               197      0.176659  12 H  s         
    83     -0.165398   6 O  py               36      0.164151   3 H  s         

 Vector   50  Occ=2.000000D+00  E=-5.567132D-01
              MO Center= -6.2D-01, -2.3D+00, -8.0D-01, r^2= 6.8D+00
   Bfn.  Coefficient  Atom+Function         Bfn.  Coefficient  Atom+Function  
  ----- ------------  ---------------      ----- ------------  ---------------
   177      0.293883  11 C  pz              205     -0.292031  13 H  s         
   206     -0.265634  13 H  s                12     -0.211532   2 C  s         
    55      0.205522   5 C  s               215      0.198496  14 H  s         
   109      0.195195   7 N  pz                1      0.185635   1 H  s         
   105     -0.166034   7 N  s               143     -0.165853   9 C  pz        

 Vector   51  Occ=2.000000D+00  E=-5.417862D-01
              MO Center= -3.9D-01, -9.8D-01, -8.2D-01, r^2= 7.7D+00
   Bfn.  Coefficient  Atom+Function         Bfn.  Coefficient  Atom+Function  
  ----- ------------  ---------------      ----- ------------  ---------------
   176      0.217123  11 C  py              214     -0.201270  14 H  s         
   215     -0.193857  14 H  s               254      0.180113  16 O  pz        
   197      0.162652  12 H  s               228      0.159954  15 C  py        

 Vector   52  Occ=2.000000D+00  E=-5.377470D-01
              MO Center= -2.7D-01,  2.0D+00,  3.0D-01, r^2= 6.2D+00
   Bfn.  Coefficient  Atom+Function         Bfn.  Coefficient  Atom+Function  
  ----- ------------  ---------------      ----- ------------  ---------------
   344      0.301597  21 C  s               413      0.224347  25 H  s         
   376     -0.219311  23 H  s               394     -0.211910  24 S  pz        
   345      0.194948  21 C  px              453     -0.191557  27 O  pz        
   478     -0.188613  28 N  pz              428     -0.170897  26 C  pz        
   366      0.164817  22 H  s               276     -0.162744  17 N  s         

 Vector   53  Occ=2.000000D+00  E=-5.290366D-01
              MO Center= -1.6D-01,  1.4D-01, -2.0D-01, r^2= 8.6D+00
   Bfn.  Coefficient  Atom+Function         Bfn.  Coefficient  Atom+Function  
  ----- ------------  ---------------      ----- ------------  ---------------
   141      0.216398   9 C  px              347      0.206256  21 C  pz        
   175     -0.192110  11 C  px              313     -0.191262  19 C  pz        
   344      0.184365  21 C  s               366      0.176039  22 H  s         
   162      0.165484  10 H  s               332      0.165052  20 H  s         
   350      0.158948  21 C  pz              174      0.157949  11 C  s         

 Vector   54  Occ=2.000000D+00  E=-5.085601D-01
              MO Center=  2.5D-01,  2.4D-01, -5.6D-01, r^2= 7.5D+00
   Bfn.  Coefficient  Atom+Function         Bfn.  Coefficient  Atom+Function  
  ----- ------------  ---------------      ----- ------------  ---------------
   309      0.288569  19 C  s               343     -0.248028  21 C  s         
   332      0.209805  20 H  s               313     -0.189282  19 C  pz        
   425     -0.189682  26 C  s               141     -0.187028   9 C  px        
   252      0.177254  16 O  px              344      0.174473  21 C  s         
   350      0.168730  21 C  pz              175      0.154843  11 C  px        

 Vector   55  Occ=2.000000D+00  E=-4.687716D-01
              MO Center= -1.8D+00,  2.0D+00,  7.3D-01, r^2= 3.8D+00
   Bfn.  Coefficient  Atom+Function         Bfn.  Coefficient  Atom+Function  
  ----- ------------  ---------------      ----- ------------  ---------------
   387      0.399030  24 S  s               348      0.284894  21 C  px        
   392     -0.284318  24 S  px              345      0.224294  21 C  px        
   393     -0.220379  24 S  py              394      0.188469  24 S  pz        
   376      0.176979  23 H  s               397      0.174070  24 S  pz        
   396     -0.166465  24 S  py              413     -0.163928  25 H  s         

 Vector   56  Occ=2.000000D+00  E=-4.556665D-01
              MO Center=  5.5D-01, -1.2D+00, -6.3D-02, r^2= 5.7D+00
   Bfn.  Coefficient  Atom+Function         Bfn.  Coefficient  Atom+Function  
  ----- ------------  ---------------      ----- ------------  ---------------
    83      0.264608   6 O  py              139     -0.243405   9 C  s         
   108     -0.231715   7 N  py              111     -0.220353   7 N  py        
   253     -0.211252  16 O  py               86      0.206321   6 O  py        
   140      0.194332   9 C  s               284      0.179879  17 N  py        
    84     -0.178333   6 O  pz              109     -0.174560   7 N  pz        

 Vector   57  Occ=2.000000D+00  E=-4.535975D-01
              MO Center=  8.1D-01, -1.6D+00,  2.9D-01, r^2= 4.5D+00
   Bfn.  Coefficient  Atom+Function         Bfn.  Coefficient  Atom+Function  
  ----- ------------  ---------------      ----- ------------  ---------------
    84      0.453736   6 O  pz               87      0.358461   6 O  pz        
   253     -0.233528  16 O  py               13      0.227343   2 C  s         
   256     -0.183286  16 O  py              107      0.178901   7 N  px        
   276      0.171030  17 N  s               110      0.151508   7 N  px        

 Vector   58  Occ=2.000000D+00  E=-4.375091D-01
              MO Center=  8.1D-01,  9.7D-01, -5.7D-01, r^2= 6.8D+00
   Bfn.  Coefficient  Atom+Function         Bfn.  Coefficient  Atom+Function  
  ----- ------------  ---------------      ----- ------------  ---------------
   451      0.336395  27 O  px              333     -0.270379  20 H  s         
   454      0.268445  27 O  px              252     -0.233194  16 O  px        
   253      0.210420  16 O  py              277      0.187665  17 N  px        
   255     -0.180900  16 O  px               84      0.171100   6 O  pz        
   280      0.171583  17 N  px              343     -0.171920  21 C  s         

 Vector   59  Occ=2.000000D+00  E=-4.129067D-01
              MO Center=  2.9D-01, -9.2D-01, -8.9D-01, r^2= 5.3D+00
   Bfn.  Coefficient  Atom+Function         Bfn.  Coefficient  Atom+Function  
  ----- ------------  ---------------      ----- ------------  ---------------
   253      0.349864  16 O  py              108     -0.274045   7 N  py        
   256      0.272394  16 O  py              111     -0.246582   7 N  py        
   145      0.226500   9 C  py              139      0.201255   9 C  s         
   142      0.196531   9 C  py              106      0.172307   7 N  s         
   163     -0.171687  10 H  s                83      0.166234   6 O  py        

 Vector   60  Occ=2.000000D+00  E=-3.946079D-01
              MO Center=  2.0D+00,  2.0D+00,  5.8D-03, r^2= 2.7D+00
   Bfn.  Coefficient  Atom+Function         Bfn.  Coefficient  Atom+Function  
  ----- ------------  ---------------      ----- ------------  ---------------
   478     -0.401171  28 N  pz              453      0.397873  27 O  pz        
   481     -0.349839  28 N  pz              456      0.311530  27 O  pz        

 Vector   61  Occ=2.000000D+00  E=-3.875959D-01
              MO Center=  8.4D-01,  1.4D+00, -4.8D-01, r^2= 4.8D+00
   Bfn.  Coefficient  Atom+Function         Bfn.  Coefficient  Atom+Function  
  ----- ------------  ---------------      ----- ------------  ---------------
   451      0.338594  27 O  px              277     -0.303131  17 N  px        
   280     -0.283704  17 N  px              454      0.262679  27 O  px        
   252      0.227250  16 O  px              429     -0.216668  26 C  px        
   255      0.179915  16 O  px              311      0.177963  19 C  px        
   478      0.168108  28 N  pz              424      0.152011  26 C  s         

 Vector   62  Occ=2.000000D+00  E=-3.691654D-01
              MO Center= -2.2D+00,  1.9D+00,  6.2D-01, r^2= 2.8D+00
   Bfn.  Coefficient  Atom+Function         Bfn.  Coefficient  Atom+Function  
  ----- ------------  ---------------      ----- ------------  ---------------
   393      0.410777  24 S  py              396      0.408724  24 S  py        
   394      0.296749  24 S  pz              397      0.280183  24 S  pz        
   343     -0.195848  21 C  s               314     -0.180233  19 C  px        

 Vector   63  Occ=0.000000D+00  E= 1.680689D-02
              MO Center= -1.7D+00, -4.1D+00,  1.5D+00, r^2= 1.8D+01
   Bfn.  Coefficient  Atom+Function         Bfn.  Coefficient  Atom+Function  
  ----- ------------  ---------------      ----- ------------  ---------------
   300      3.326053  18 H  s               234     -2.547176  15 C  py        
   226      2.509161  15 C  s                65      2.465501   5 C  pz        
    37     -1.967837   3 H  s               216     -1.653306  14 H  s         
    46     -1.514280   4 H  s               149      1.502461   9 C  pz        
    64     -1.453888   5 C  py              106     -1.413305   7 N  s         

 Vector   64  Occ=0.000000D+00  E= 3.231567D-02
              MO Center= -9.8D-01, -2.7D+00,  1.5D+00, r^2= 3.0D+01
   Bfn.  Coefficient  Atom+Function         Bfn.  Coefficient  Atom+Function  
  ----- ------------  ---------------      ----- ------------  ---------------
   106      4.754681   7 N  s               300      3.558325  18 H  s         
   234      3.074305  15 C  py               65      2.982743   5 C  pz        
   216      2.920562  14 H  s                37     -2.892536   3 H  s         
    56     -2.606415   5 C  s               318      2.588037  19 C  py        
   368     -2.339911  22 H  s               344     -2.281784  21 C  s         

 Vector   65  Occ=0.000000D+00  E= 3.582021D-02
              MO Center= -1.8D+00, -2.1D+00,  5.3D-01, r^2= 3.3D+01
   Bfn.  Coefficient  Atom+Function         Bfn.  Coefficient  Atom+Function  
  ----- ------------  ---------------      ----- ------------  ---------------
   344      3.877528  21 C  s               198      2.797506  12 H  s         
   300     -2.418256  18 H  s                46     -2.401603   4 H  s         
   149      2.109881   9 C  pz              234     -1.945606  15 C  py        
    65      1.928178   5 C  pz              173     -1.733559  11 C  s         
   425     -1.690868  26 C  s                37      1.669861   3 H  s         

 Vector   66  Occ=0.000000D+00  E= 4.258567D-02
              MO Center= -1.4D-01, -1.4D+00, -3.1D-01, r^2= 3.7D+01
   Bfn.  Coefficient  Atom+Function         Bfn.  Coefficient  Atom+Function  
  ----- ------------  ---------------      ----- ------------  ---------------
   425      4.151388  26 C  s               130      2.591113   8 H  s         
     3     -2.248058   1 H  s               310      2.213642  19 C  s         
   164     -2.191727  10 H  s               276      1.882487  17 N  s         
   207     -1.810153  13 H  s               318      1.791145  19 C  py        
   368     -1.763347  22 H  s               284     -1.737505  17 N  py        

 Vector   67  Occ=0.000000D+00  E= 4.991272D-02
              MO Center= -1.8D+00, -2.4D-01,  2.3D-01, r^2= 4.0D+01
   Bfn.  Coefficient  Atom+Function         Bfn.  Coefficient  Atom+Function  
  ----- ------------  ---------------      ----- ------------  ---------------
    46      3.379524   4 H  s               234     -2.626521  15 C  py        
   368     -2.597048  22 H  s               216     -2.355269  14 H  s         
   415      2.230361  25 H  s               226      1.878420  15 C  s         
   425     -1.763862  26 C  s               276      1.689956  17 N  s         
   317      1.611472  19 C  px              149      1.590054   9 C  pz        

 Vector   68  Occ=0.000000D+00  E= 5.390210D-02
              MO Center= -4.3D-01, -7.0D-01,  7.5D-01, r^2= 4.2D+01
   Bfn.  Coefficient  Atom+Function         Bfn.  Coefficient  Atom+Function  
  ----- ------------  ---------------      ----- ------------  ---------------
    56      5.133787   5 C  s                65     -3.309228   5 C  pz        
   174     -3.315825  11 C  s               106     -2.962503   7 N  s         
   234      2.962731  15 C  py                3      2.910995   1 H  s         
   149     -2.858028   9 C  pz              130     -2.756646   8 H  s         
   318      2.700971  19 C  py              207      2.283009  13 H  s         

 Vector   69  Occ=0.000000D+00  E= 5.702664D-02
              MO Center=  1.6D+00, -7.4D-01,  4.7D-01, r^2= 3.6D+01
   Bfn.  Coefficient  Atom+Function         Bfn.  Coefficient  Atom+Function  
  ----- ------------  ---------------      ----- ------------  ---------------
   226      3.496862  15 C  s               475     -3.283027  28 N  s         
    13     -2.919542   2 C  s               198     -2.803539  12 H  s         
   499     -2.811573  29 H  s                37      2.670745   3 H  s         
   235      2.438020  15 C  pz              140      2.399889   9 C  s         
   207      2.253707  13 H  s               432      2.085928  26 C  px        

 Vector   70  Occ=0.000000D+00  E= 5.983110D-02
              MO Center=  4.9D-01, -1.2D+00, -3.4D-02, r^2= 3.7D+01
   Bfn.  Coefficient  Atom+Function         Bfn.  Coefficient  Atom+Function  
  ----- ------------  ---------------      ----- ------------  ---------------
   164      4.847355  10 H  s                13     -3.900797   2 C  s         
   216     -3.656933  14 H  s                65      3.232646   5 C  pz        
   147     -2.660831   9 C  px              226      2.590925  15 C  s         
    37      2.394432   3 H  s               149      2.140022   9 C  pz        
     3     -2.076923   1 H  s               377     -2.081890  23 H  s         

 Vector   71  Occ=0.000000D+00  E= 6.704333D-02
              MO Center=  6.5D-03, -3.5D-01, -3.3D-01, r^2= 4.0D+01
   Bfn.  Coefficient  Atom+Function         Bfn.  Coefficient  Atom+Function  
  ----- ------------  ---------------      ----- ------------  ---------------
   207     -3.470401  13 H  s               300      3.435050  18 H  s         
    13      3.243877   2 C  s               276      2.919088  17 N  s         
   334     -2.844522  20 H  s               344      2.731716  21 C  s         
    56     -2.548754   5 C  s                 3      2.478059   1 H  s         
   140     -2.341617   9 C  s               226     -2.298063  15 C  s         

 Vector   72  Occ=0.000000D+00  E= 7.223057D-02
              MO Center= -1.2D+00, -1.3D+00,  3.2D-01, r^2= 4.0D+01
   Bfn.  Coefficient  Atom+Function         Bfn.  Coefficient  Atom+Function  
  ----- ------------  ---------------      ----- ------------  ---------------
   216      5.094124  14 H  s               149     -4.505305   9 C  pz        
   198     -4.144550  12 H  s                65     -3.831609   5 C  pz        
    46     -3.811429   4 H  s               368     -3.549388  22 H  s         
    13      3.403002   2 C  s                56      3.403569   5 C  s         
     3      3.104455   1 H  s               344     -2.774647  21 C  s         

 Vector   73  Occ=0.000000D+00  E= 7.689935D-02
              MO Center= -5.8D-01, -5.7D-03,  6.2D-01, r^2= 4.1D+01
   Bfn.  Coefficient  Atom+Function         Bfn.  Coefficient  Atom+Function  
  ----- ------------  ---------------      ----- ------------  ---------------
   216      4.222959  14 H  s               377     -3.812397  23 H  s         
   130     -3.681558   8 H  s               174      3.318019  11 C  s         
     3     -2.847338   1 H  s               475      2.849533  28 N  s         
   164     -2.733743  10 H  s                46      2.580692   4 H  s         
   234      2.301644  15 C  py              499      2.277529  29 H  s         

 Vector   74  Occ=0.000000D+00  E= 7.789734D-02
              MO Center= -8.6D-01,  1.1D+00,  5.1D-01, r^2= 3.5D+01
   Bfn.  Coefficient  Atom+Function         Bfn.  Coefficient  Atom+Function  
  ----- ------------  ---------------      ----- ------------  ---------------
    56      7.507809   5 C  s               344      5.855964  21 C  s         
   377      5.879978  23 H  s               300     -5.652852  18 H  s         
   174     -5.283266  11 C  s               276     -4.943456  17 N  s         
   334     -3.943727  20 H  s               164      3.801586  10 H  s         
   352     -3.686770  21 C  py              319     -3.393902  19 C  pz        

 Vector   75  Occ=0.000000D+00  E= 8.611079D-02
              MO Center= -1.6D+00, -3.7D-01, -1.8D+00, r^2= 3.4D+01
   Bfn.  Coefficient  Atom+Function         Bfn.  Coefficient  Atom+Function  
  ----- ------------  ---------------      ----- ------------  ---------------
   207      6.642770  13 H  s               234      5.760819  15 C  py        
   198     -5.455662  12 H  s               174      5.416474  11 C  s         
   334     -5.110789  20 H  s               300      4.770433  18 H  s         
    56     -4.637457   5 C  s               130      4.007545   8 H  s         
   147      3.672360   9 C  px              235      3.655303  15 C  pz        

 Vector   76  Occ=0.000000D+00  E= 9.340227D-02
              MO Center= -7.8D-01, -2.7D-01,  1.4D+00, r^2= 3.0D+01
   Bfn.  Coefficient  Atom+Function         Bfn.  Coefficient  Atom+Function  
  ----- ------------  ---------------      ----- ------------  ---------------
   300     14.245317  18 H  s                56     -7.706803   5 C  s         
   368     -7.086091  22 H  s               425      5.652945  26 C  s         
   226     -4.479979  15 C  s               276      4.433571  17 N  s         
   164     -4.386227  10 H  s               130     -4.133680   8 H  s         
   344     -4.038107  21 C  s               377      4.007941  23 H  s         

 Vector   77  Occ=0.000000D+00  E= 9.918731D-02
              MO Center= -1.2D+00,  1.1D+00,  9.3D-02, r^2= 3.5D+01
   Bfn.  Coefficient  Atom+Function         Bfn.  Coefficient  Atom+Function  
  ----- ------------  ---------------      ----- ------------  ---------------
   425     -8.438367  26 C  s               226      7.788651  15 C  s         
   388      7.101171  24 S  s               508      6.637830  30 H  s         
   334     -5.704184  20 H  s               174     -5.484721  11 C  s         
   140      5.082162   9 C  s                13     -4.895706   2 C  s         
   319     -4.183525  19 C  pz               65      3.941205   5 C  pz        

 Vector   78  Occ=0.000000D+00  E= 1.074425D-01
              MO Center=  1.2D+00,  3.5D-01,  6.8D-01, r^2= 3.1D+01
   Bfn.  Coefficient  Atom+Function         Bfn.  Coefficient  Atom+Function  
  ----- ------------  ---------------      ----- ------------  ---------------
   425     12.600298  26 C  s               508      7.692597  30 H  s         
   317     -7.475744  19 C  px              344     -7.389389  21 C  s         
    56     -5.352986   5 C  s               226     -5.144492  15 C  s         
   432     -5.135359  26 C  px              319      4.948540  19 C  pz        
   106      4.521470   7 N  s               388     -4.149928  24 S  s         

 Vector   79  Occ=0.000000D+00  E= 1.130266D-01
              MO Center=  3.6D-02, -5.1D-01,  7.7D-01, r^2= 3.1D+01
   Bfn.  Coefficient  Atom+Function         Bfn.  Coefficient  Atom+Function  
  ----- ------------  ---------------      ----- ------------  ---------------
   344     18.141038  21 C  s               425    -10.761870  26 C  s         
    56     -9.766115   5 C  s               318     -7.349437  19 C  py        
   319     -6.591663  19 C  pz              149      5.708973   9 C  pz        
   317      5.730924  19 C  px              234     -5.687607  15 C  py        
   148     -4.451919   9 C  py              508      3.881955  30 H  s         

 Vector   80  Occ=0.000000D+00  E= 1.197140D-01
              MO Center=  3.3D-01,  4.6D-01,  6.2D-01, r^2= 3.0D+01
   Bfn.  Coefficient  Atom+Function         Bfn.  Coefficient  Atom+Function  
  ----- ------------  ---------------      ----- ------------  ---------------
   425    -20.321549  26 C  s               344     19.805645  21 C  s         
   317      8.857125  19 C  px              174     -7.758871  11 C  s         
   508      7.234918  30 H  s               319     -5.531197  19 C  pz        
   432      5.511165  26 C  px              234     -4.364033  15 C  py        
   310     -4.074073  19 C  s               499     -3.978186  29 H  s         

 Vector   81  Occ=0.000000D+00  E= 1.271141D-01
              MO Center= -5.9D-01, -2.1D+00,  9.7D-01, r^2= 2.8D+01
   Bfn.  Coefficient  Atom+Function         Bfn.  Coefficient  Atom+Function  
  ----- ------------  ---------------      ----- ------------  ---------------
   226      9.020722  15 C  s               425      8.757672  26 C  s         
   234     -8.548933  15 C  py              106     -7.339369   7 N  s         
   148     -6.663837   9 C  py               13     -6.486042   2 C  s         
   310      6.028165  19 C  s                65      5.376263   5 C  pz        
   149      4.896090   9 C  pz              317     -4.818034  19 C  px        

 Vector   82  Occ=0.000000D+00  E= 1.291361D-01
              MO Center= -1.3D+00, -1.7D+00, -6.3D-01, r^2= 3.2D+01
   Bfn.  Coefficient  Atom+Function         Bfn.  Coefficient  Atom+Function  
  ----- ------------  ---------------      ----- ------------  ---------------
    56     16.543480   5 C  s               226     16.618552  15 C  s         
   174    -13.819070  11 C  s               106    -11.224086   7 N  s         
    13    -10.114841   2 C  s               140      9.259202   9 C  s         
   234     -8.468583  15 C  py              147     -4.971575   9 C  px        
    65      4.935948   5 C  pz              216     -4.879657  14 H  s         

 Vector   83  Occ=0.000000D+00  E= 1.361517D-01
              MO Center= -3.0D-02, -4.9D-01, -5.4D-01, r^2= 3.1D+01
   Bfn.  Coefficient  Atom+Function         Bfn.  Coefficient  Atom+Function  
  ----- ------------  ---------------      ----- ------------  ---------------
   226    -13.334680  15 C  s                13     12.340513   2 C  s         
   140    -10.538612   9 C  s               174     10.503283  11 C  s         
    56    -10.321306   5 C  s               276      7.412250  17 N  s         
    65     -6.910405   5 C  pz              284     -5.096785  17 N  py        
   147      4.880758   9 C  px              425      4.794941  26 C  s         

 Vector   84  Occ=0.000000D+00  E= 1.414860D-01
              MO Center=  4.3D-01, -1.0D+00,  9.0D-01, r^2= 3.1D+01
   Bfn.  Coefficient  Atom+Function         Bfn.  Coefficient  Atom+Function  
  ----- ------------  ---------------      ----- ------------  ---------------
   106      9.980605   7 N  s               300      9.720655  18 H  s         
    65      9.229232   5 C  pz              344     -9.105157  21 C  s         
   284      6.853652  17 N  py              318      6.255718  19 C  py        
    56     -5.597320   5 C  s                63      5.505560   5 C  px        
    13     -5.190109   2 C  s               353      4.819293  21 C  pz        

 Vector   85  Occ=0.000000D+00  E= 1.452797D-01
              MO Center= -3.8D-01, -1.9D+00, -3.1D-01, r^2= 2.6D+01
   Bfn.  Coefficient  Atom+Function         Bfn.  Coefficient  Atom+Function  
  ----- ------------  ---------------      ----- ------------  ---------------
    65      9.315985   5 C  pz              276     -6.557392  17 N  s         
    13     -6.467951   2 C  s               300     -5.732971  18 H  s         
   149      5.079125   9 C  pz              226      5.018900  15 C  s         
   235      4.786507  15 C  pz              140      4.741098   9 C  s         
   234      4.427589  15 C  py              319      4.133451  19 C  pz        

 Vector   86  Occ=0.000000D+00  E= 1.460214D-01
              MO Center=  2.1D-01, -6.4D-01,  6.7D-01, r^2= 2.4D+01
   Bfn.  Coefficient  Atom+Function         Bfn.  Coefficient  Atom+Function  
  ----- ------------  ---------------      ----- ------------  ---------------
   344     11.331422  21 C  s                13      7.610581   2 C  s         
   226     -7.434731  15 C  s               140     -6.447600   9 C  s         
    64      5.981451   5 C  py              319     -5.853895  19 C  pz        
   235     -5.807983  15 C  pz              284     -5.121141  17 N  py        
   334     -4.670754  20 H  s               276      4.452753  17 N  s         

 Vector   87  Occ=0.000000D+00  E= 1.485271D-01
              MO Center= -5.9D-01, -5.9D-02,  6.3D-01, r^2= 2.8D+01
   Bfn.  Coefficient  Atom+Function         Bfn.  Coefficient  Atom+Function  
  ----- ------------  ---------------      ----- ------------  ---------------
   425      9.412864  26 C  s               475     -6.830081  28 N  s         
   284     -6.151081  17 N  py              508     -5.246280  30 H  s         
   106      5.102241   7 N  s               147      4.490928   9 C  px        
   130      4.467920   8 H  s               433     -4.237463  26 C  py        
   234      4.203620  15 C  py              310      3.885403  19 C  s         

 Vector   88  Occ=0.000000D+00  E= 1.529051D-01
              MO Center= -8.1D-01, -7.3D-01, -5.3D-01, r^2= 3.2D+01
   Bfn.  Coefficient  Atom+Function         Bfn.  Coefficient  Atom+Function  
  ----- ------------  ---------------      ----- ------------  ---------------
   149      6.353115   9 C  pz              234     -5.747089  15 C  py        
   276      5.265774  17 N  s               198      4.928789  12 H  s         
   475     -4.841733  28 N  s               140     -4.383633   9 C  s         
   344     -4.126204  21 C  s               433     -3.889416  26 C  py        
   181      3.830473  11 C  px              235     -3.630005  15 C  pz        

 Vector   89  Occ=0.000000D+00  E= 1.555189D-01
              MO Center=  7.0D-01, -2.3D-01, -1.1D+00, r^2= 2.9D+01
   Bfn.  Coefficient  Atom+Function         Bfn.  Coefficient  Atom+Function  
  ----- ------------  ---------------      ----- ------------  ---------------
   234      7.286747  15 C  py              318      6.898554  19 C  py        
   226      6.311335  15 C  s               235      5.627065  15 C  pz        
   344     -5.462659  21 C  s               319      4.643225  19 C  pz        
   508      4.132928  30 H  s               174      3.872356  11 C  s         
   164     -3.583194  10 H  s               434     -3.502283  26 C  pz        

 Vector   90  Occ=0.000000D+00  E= 1.584843D-01
              MO Center= -1.0D-02, -9.6D-01,  2.3D-01, r^2= 2.8D+01
   Bfn.  Coefficient  Atom+Function         Bfn.  Coefficient  Atom+Function  
  ----- ------------  ---------------      ----- ------------  ---------------
   344     -9.837297  21 C  s               106      8.993097   7 N  s         
   508     -7.736880  30 H  s               425      7.393029  26 C  s         
    65      6.727992   5 C  pz               56     -5.363823   5 C  s         
    63      4.324455   5 C  px              235     -3.851893  15 C  pz        
   353      3.394277  21 C  pz              207     -3.332978  13 H  s         

 Vector   91  Occ=0.000000D+00  E= 1.604182D-01
              MO Center=  1.5D-01, -1.2D+00,  1.0D+00, r^2= 3.1D+01
   Bfn.  Coefficient  Atom+Function         Bfn.  Coefficient  Atom+Function  
  ----- ------------  ---------------      ----- ------------  ---------------
   106      8.308960   7 N  s               475      7.616552  28 N  s         
   174      5.633972  11 C  s               226     -5.360668  15 C  s         
    56     -4.973395   5 C  s                63      4.880756   5 C  px        
   432     -4.850661  26 C  px              130      4.596383   8 H  s         
     3     -4.272596   1 H  s               310     -4.110324  19 C  s         

 Vector   92  Occ=0.000000D+00  E= 1.663284D-01
              MO Center= -3.2D-01, -1.7D-01,  1.3D-01, r^2= 3.1D+01
   Bfn.  Coefficient  Atom+Function         Bfn.  Coefficient  Atom+Function  
  ----- ------------  ---------------      ----- ------------  ---------------
   234      9.170489  15 C  py              318      8.540054  19 C  py        
[...]

 Vector  151  Occ=0.000000D+00  E= 4.253726D-01
              MO Center= -3.1D-01, -1.9D-01,  5.9D-01, r^2= 2.2D+01
   Bfn.  Coefficient  Atom+Function         Bfn.  Coefficient  Atom+Function  
  ----- ------------  ---------------      ----- ------------  ---------------
   425      8.896056  26 C  s               318     -7.833017  19 C  py        
   226     -7.439760  15 C  s               234     -7.208131  15 C  py        
   344      6.798350  21 C  s               284     -6.605538  17 N  py        
   174     -6.393774  11 C  s               197      6.232970  12 H  s         
   475     -6.239484  28 N  s               173     -6.188320  11 C  s         

 Vector  152  Occ=0.000000D+00  E= 4.327689D-01
              MO Center=  6.1D-01,  1.2D-01,  4.5D-02, r^2= 2.1D+01
   Bfn.  Coefficient  Atom+Function         Bfn.  Coefficient  Atom+Function  
  ----- ------------  ---------------      ----- ------------  ---------------
   300      9.047343  18 H  s                12     -7.879679   2 C  s         
   344     -7.908027  21 C  s               173      6.463961  11 C  s         
    56     -6.262260   5 C  s               475      5.361542  28 N  s         
   115     -4.945000   7 N  pz               81      4.837510   6 O  s         
   163     -4.783584  10 H  s                45      4.613924   4 H  s         

 Vector  153  Occ=0.000000D+00  E= 4.359022D-01
              MO Center=  6.5D-02, -1.3D+00,  3.2D-01, r^2= 1.9D+01
   Bfn.  Coefficient  Atom+Function         Bfn.  Coefficient  Atom+Function  
  ----- ------------  ---------------      ----- ------------  ---------------
   344     12.487125  21 C  s               226    -10.983281  15 C  s         
    56    -10.524029   5 C  s               140    -10.087325   9 C  s         
   276      9.794994  17 N  s                13      8.850931   2 C  s         
   234     -7.503370  15 C  py              163      6.584206  10 H  s         
   284     -5.975058  17 N  py              318     -5.523107  19 C  py        

 Vector  154  Occ=0.000000D+00  E= 4.388732D-01
              MO Center=  1.4D-01, -7.1D-01,  2.1D-01, r^2= 2.1D+01
   Bfn.  Coefficient  Atom+Function         Bfn.  Coefficient  Atom+Function  
  ----- ------------  ---------------      ----- ------------  ---------------
   344     13.327445  21 C  s               425    -10.713497  26 C  s         
   226     -9.567329  15 C  s               234     -9.058456  15 C  py        
   233     -8.629632  15 C  px              276      7.554504  17 N  s         
   285     -7.082352  17 N  pz              475      7.008844  28 N  s         
   140     -6.860786   9 C  s               283      6.683136  17 N  px        

 Vector  155  Occ=0.000000D+00  E= 4.428526D-01
              MO Center=  4.6D-02, -3.0D-01,  4.2D-01, r^2= 1.9D+01
   Bfn.  Coefficient  Atom+Function         Bfn.  Coefficient  Atom+Function  
  ----- ------------  ---------------      ----- ------------  ---------------
   234     16.112290  15 C  py              174     11.328323  11 C  s         
   344    -11.359403  21 C  s               284     -7.684956  17 N  py        
   235      7.179267  15 C  pz              106      6.852823   7 N  s         
   376      6.472113  23 H  s               115      6.327636   7 N  pz        
   149     -6.129816   9 C  pz              319      6.122531  19 C  pz        

 Vector  156  Occ=0.000000D+00  E= 4.466884D-01
              MO Center=  4.3D-01,  1.4D-02,  1.0D-01, r^2= 1.7D+01
   Bfn.  Coefficient  Atom+Function         Bfn.  Coefficient  Atom+Function  
  ----- ------------  ---------------      ----- ------------  ---------------
   276     26.306028  17 N  s                13     16.102741   2 C  s         
   140    -14.730552   9 C  s               226    -13.052172  15 C  s         
    56    -11.047646   5 C  s               344    -10.934616  21 C  s         
   106      9.551150   7 N  s               284     -8.311514  17 N  py        
    65     -7.343333   5 C  pz              283      7.338100  17 N  px        

 Vector  157  Occ=0.000000D+00  E= 4.532425D-01
              MO Center= -2.1D-01, -6.2D-02, -5.0D-01, r^2= 1.9D+01
   Bfn.  Coefficient  Atom+Function         Bfn.  Coefficient  Atom+Function  
  ----- ------------  ---------------      ----- ------------  ---------------
    65     11.127201   5 C  pz              276      9.926693  17 N  s         
    13     -9.429796   2 C  s               226      8.943900  15 C  s         
   284      8.612223  17 N  py              425     -8.506524  26 C  s         
   234     -6.736363  15 C  py              344     -6.051334  21 C  s         
   318      5.593672  19 C  py              140      5.545482   9 C  s         

 Vector  158  Occ=0.000000D+00  E= 4.560102D-01
              MO Center= -3.0D-01,  2.3D-01, -2.1D-01, r^2= 1.7D+01
   Bfn.  Coefficient  Atom+Function         Bfn.  Coefficient  Atom+Function  
  ----- ------------  ---------------      ----- ------------  ---------------
    56     13.368801   5 C  s               115    -13.242929   7 N  pz        
   234     13.101064  15 C  py              149    -12.029313   9 C  pz        
   425     -9.283098  26 C  s               174     -8.064011  11 C  s         
   317      7.782630  19 C  px              235      6.739924  15 C  pz        
   148      6.259344   9 C  py              319      6.236881  19 C  pz        

 Vector  159  Occ=0.000000D+00  E= 4.614348D-01
              MO Center= -5.4D-01, -8.8D-01,  1.9D-01, r^2= 2.0D+01
   Bfn.  Coefficient  Atom+Function         Bfn.  Coefficient  Atom+Function  
  ----- ------------  ---------------      ----- ------------  ---------------
   174     28.202240  11 C  s                13     24.260556   2 C  s         
   226    -22.597328  15 C  s               234     18.165140  15 C  py        
    56    -14.547585   5 C  s               140    -10.662513   9 C  s         
   106     10.019565   7 N  s                65     -9.616858   5 C  pz        
   147      9.425341   9 C  px              344      9.441998  21 C  s         

 Vector  160  Occ=0.000000D+00  E= 4.673726D-01
              MO Center= -2.4D-01, -1.1D+00, -8.7D-01, r^2= 1.9D+01
   Bfn.  Coefficient  Atom+Function         Bfn.  Coefficient  Atom+Function  
  ----- ------------  ---------------      ----- ------------  ---------------
   425     25.395410  26 C  s               344    -13.611186  21 C  s         
   174     12.231910  11 C  s                56    -11.315284   5 C  s         
   475    -11.029514  28 N  s               317    -10.485170  19 C  px        
   226     -8.884794  15 C  s               140     -8.498888   9 C  s         
   234     -7.321056  15 C  py              197     -7.078448  12 H  s         

 Vector  161  Occ=0.000000D+00  E= 4.719747D-01
              MO Center= -5.9D-01, -2.2D-02,  3.7D-01, r^2= 1.9D+01
   Bfn.  Coefficient  Atom+Function         Bfn.  Coefficient  Atom+Function  
  ----- ------------  ---------------      ----- ------------  ---------------
   425     14.657892  26 C  s                12      8.070597   2 C  s         
   284     -7.620209  17 N  py              173     -7.155883  11 C  s         
   285     -7.075935  17 N  pz              197      6.915961  12 H  s         
   148     -6.365401   9 C  py               13     -6.010264   2 C  s         
   115      6.011765   7 N  pz              317     -5.958740  19 C  px        

 Vector  162  Occ=0.000000D+00  E= 4.768497D-01
              MO Center= -5.7D-01, -8.7D-01, -8.1D-01, r^2= 1.8D+01
   Bfn.  Coefficient  Atom+Function         Bfn.  Coefficient  Atom+Function  
  ----- ------------  ---------------      ----- ------------  ---------------
   425    -16.143101  26 C  s               226     15.179739  15 C  s         
   344     14.651108  21 C  s               149     11.856713   9 C  pz        
   234    -10.723986  15 C  py               13    -10.055801   2 C  s         
   106    -10.068758   7 N  s               284     10.040966  17 N  py        
   140      9.813187   9 C  s               317      7.197421  19 C  px        

 Vector  163  Occ=0.000000D+00  E= 4.776884D-01
              MO Center= -2.1D-01,  4.6D-01,  2.9D-01, r^2= 1.7D+01
   Bfn.  Coefficient  Atom+Function         Bfn.  Coefficient  Atom+Function  
  ----- ------------  ---------------      ----- ------------  ---------------
   344     15.795277  21 C  s               367     -9.456007  22 H  s         
   276     -8.245706  17 N  s               174     -7.553136  11 C  s         
    56      6.750947   5 C  s               333     -6.389384  20 H  s         
   475     -5.994420  28 N  s               352     -5.535551  21 C  py        
   343      5.347664  21 C  s               317      5.229940  19 C  px        

 Vector  164  Occ=0.000000D+00  E= 4.821591D-01
              MO Center= -2.4D-01, -4.0D-01,  1.8D-01, r^2= 1.7D+01
   Bfn.  Coefficient  Atom+Function         Bfn.  Coefficient  Atom+Function  
  ----- ------------  ---------------      ----- ------------  ---------------
    56    -15.658011   5 C  s                13     15.562012   2 C  s         
   174     15.390877  11 C  s               226    -14.259185  15 C  s         
   173     10.232898  11 C  s               234      7.640075  15 C  py        
   147      7.266977   9 C  px              140     -6.746882   9 C  s         
   139     -6.693824   9 C  s               148      6.396833   9 C  py        

 Vector  165  Occ=0.000000D+00  E= 4.856651D-01
              MO Center= -4.5D-01, -5.0D-02,  8.4D-02, r^2= 1.9D+01
   Bfn.  Coefficient  Atom+Function         Bfn.  Coefficient  Atom+Function  
  ----- ------------  ---------------      ----- ------------  ---------------
   344     12.146912  21 C  s                56    -10.589166   5 C  s         
   425     -9.464190  26 C  s               115      9.137397   7 N  pz        
   174      9.014267  11 C  s               475      7.854027  28 N  s         
   318     -6.342766  19 C  py              226     -5.768618  15 C  s         
   173     -5.297876  11 C  s               317      5.110221  19 C  px        

 Vector  166  Occ=0.000000D+00  E= 4.947928D-01
              MO Center=  1.0D-01,  2.8D-02,  3.7D-01, r^2= 1.9D+01
   Bfn.  Coefficient  Atom+Function         Bfn.  Coefficient  Atom+Function  
  ----- ------------  ---------------      ----- ------------  ---------------
   344     14.861517  21 C  s               174      9.904521  11 C  s         
   300     -9.817109  18 H  s               318     -9.661949  19 C  py        
   276     -8.367777  17 N  s               425      8.383134  26 C  s         
   149      7.859144   9 C  pz              376     -6.054319  23 H  s         
   226     -5.922089  15 C  s               388     -5.089425  24 S  s         

 Vector  167  Occ=0.000000D+00  E= 4.997726D-01
              MO Center= -2.5D-01,  9.6D-02, -8.8D-03, r^2= 1.8D+01
   Bfn.  Coefficient  Atom+Function         Bfn.  Coefficient  Atom+Function  
  ----- ------------  ---------------      ----- ------------  ---------------
   344     16.234579  21 C  s               425    -13.992266  26 C  s         
    56    -13.904315   5 C  s               174     12.567032  11 C  s         
   234     11.747001  15 C  py              235     10.263529  15 C  pz        
   376     -8.727470  23 H  s               173      8.645457  11 C  s         
   343      8.163746  21 C  s               310     -6.931018  19 C  s         

 Vector  168  Occ=0.000000D+00  E= 5.022247D-01
              MO Center= -2.3D-01, -7.6D-01, -2.5D-02, r^2= 1.9D+01
   Bfn.  Coefficient  Atom+Function         Bfn.  Coefficient  Atom+Function  
  ----- ------------  ---------------      ----- ------------  ---------------
   425    -15.625811  26 C  s               344     15.234200  21 C  s         
   174      7.173586  11 C  s                12      5.945489   2 C  s         
     2     -5.909592   1 H  s               319     -5.925758  19 C  pz        
   310     -5.889566  19 C  s               226     -5.591308  15 C  s         
   318     -5.592994  19 C  py              450      5.351678  27 O  s         


 center of mass
 --------------
 x =   0.03520332 y =   0.08806535 z =  -0.02144544

 moments of inertia (a.u.)
 ------------------
        4862.127284464358          -0.000000000001           0.000000000001
          -0.000000000001        3062.965118659845           0.000000000000
           0.000000000001           0.000000000000        5321.499164612849

  Mulliken analysis of the total density
  --------------------------------------

    Atom       Charge   Shell Charges
 -----------   ------   -------------------------------------------------------
    1 H    1     0.96   0.76  0.22  0.01  0.03 -0.06
    2 C    6     6.36   2.01  0.66  0.29  0.14  2.07  1.03 -0.01  0.06  0.11
    3 H    1     0.86   0.76  0.12  0.01  0.03 -0.07
    4 H    1     0.82   0.76  0.09  0.00  0.03 -0.06
    5 C    6     5.13   2.01  0.68  0.08 -0.04  1.90  0.38 -0.08  0.24 -0.03
    6 O    8     8.79   2.01  0.82  0.99  0.17  2.80  1.85  0.15  0.01 -0.01
    7 N    7     7.51   2.01  0.72  0.81 -0.16  2.45  1.44  0.15  0.05  0.04
    8 H    1     0.96   0.77  0.21 -0.03  0.05 -0.04
    9 C    6     6.40   2.01  0.66  0.12  0.05  1.99  1.32 -0.04  0.14  0.15
   10 H    1     1.12   0.78  0.26  0.02  0.03  0.03
   11 C    6     5.73   2.01  0.66  0.26  0.14  2.04  0.60 -0.04  0.07  0.00
   12 H    1     0.94   0.77  0.19  0.03  0.03 -0.08
   13 H    1     0.94   0.76  0.22 -0.01  0.03 -0.07
   14 H    1     0.98   0.77  0.26  0.01  0.03 -0.08
   15 C    6     4.72   2.01  0.68  0.02 -0.02  1.89  0.10  0.08  0.24 -0.27
   16 O    8     8.86   2.01  0.82  1.05  0.20  2.78  1.84  0.14  0.01 -0.01
   17 N    7     7.43   2.01  0.72  0.80 -0.09  2.45  1.44  0.01  0.06  0.03
   18 H    1     0.94   0.77  0.21 -0.02  0.05 -0.08
   19 C    6     6.26   2.01  0.66  0.12  0.00  1.99  1.17  0.05  0.14  0.12
   20 H    1     1.05   0.78  0.22 -0.00  0.03  0.03
   21 C    6     6.00   2.01  0.66  0.09 -0.03  1.99  1.11  0.04  0.10  0.05
   22 H    1     1.11   0.77  0.35 -0.00  0.03 -0.03
   23 H    1     1.08   0.76  0.33 -0.00  0.03 -0.04
   24 S   16    15.56   2.00  2.03  0.87  0.70  0.05  6.00  2.31  1.63  0.04  0.10 -0.17
   25 H    1     1.04   0.71  0.24  0.01  0.03  0.05
   26 C    6     4.54   2.01  0.68  0.11 -0.05  1.89 -0.20 -0.02  0.24 -0.11
   27 O    8     8.82   2.01  0.82  1.03  0.19  2.79  1.84  0.14  0.01 -0.01
   28 N    7     7.18   2.01  0.72  0.81 -0.18  2.46  1.22  0.11  0.04 -0.02
   29 H    1     1.01   0.76  0.24 -0.01  0.05 -0.03
   30 H    1     0.89   0.73  0.24 -0.01  0.06 -0.13

       Multipole analysis of the density wrt the origin
       ------------------------------------------------

     L   x y z        total         open         nuclear
     -   - - -        -----         ----         -------
     0   0 0 0      0.000000      0.000000    124.000000

     1   1 0 0     -1.745002      0.000000      0.000000
     1   0 1 0     -2.746027      0.000000      0.000000
     1   0 0 1      1.257986      0.000000      0.000000

     2   2 0 0    -76.405687      0.000000    947.731557
     2   1 1 0     -1.899145      0.000000     13.361461
     2   1 0 1      4.189191      0.000000     20.659339
     2   0 2 0    -71.282649      0.000000   1954.736495
     2   0 1 1     -0.954801      0.000000     -4.597490
     2   0 0 2    -75.809952      0.000000    736.526345


 Task  times  cpu:     2932.5s     wall:     2976.7s


                                NWChem Input Module
                                -------------------


 Summary of allocated global arrays
-----------------------------------
  No active global arrays


MA_summarize_allocated_blocks: starting scan ...
MA_summarize_allocated_blocks: scan completed: 0 heap blocks, 0 stack blocks
MA usage statistics:

	allocation statistics:
					      heap	     stack
					      ----	     -----
	current number of blocks	         0	         0
	maximum number of blocks	        16	        14
	current total bytes		         0	         0
	maximum total bytes		    118712	  31124984
	maximum total K-bytes		       119	     31125
	maximum total M-bytes		         1	        32


                                     CITATION
                                     --------
                Please cite the following reference when publishing
                           results obtained with NWChem:

          E. Apra, E. J. Bylaska, W. A. de Jong, N. Govind, K. Kowalski,
       T. P. Straatsma, M. Valiev, H. J. J. van Dam, Y. Alexeev, J. Anchell,
       V. Anisimov, F. W. Aquino, R. Atta-Fynn, J. Autschbach, N. P. Bauman,
     J. C. Becca, D. E. Bernholdt, K. Bhaskaran-Nair, S. Bogatko, P. Borowski,
         J. Boschen, J. Brabec, A. Bruner, E. Cauet, Y. Chen, G. N. Chuev,
      C. J. Cramer, J. Daily, M. J. O. Deegan, T. H. Dunning Jr., M. Dupuis,
   K. G. Dyall, G. I. Fann, S. A. Fischer, A. Fonari, H. Fruchtl, L. Gagliardi,
      J. Garza, N. Gawande, S. Ghosh, K. Glaesemann, A. W. Gotz, J. Hammond,
       V. Helms, E. D. Hermes, K. Hirao, S. Hirata, M. Jacquelin, L. Jensen,
   B. G. Johnson, H. Jonsson, R. A. Kendall, M. Klemm, R. Kobayashi, V. Konkov,
      S. Krishnamoorthy, M. Krishnan, Z. Lin, R. D. Lins, R. J. Littlefield,
      A. J. Logsdail, K. Lopata, W. Ma, A. V. Marenich, J. Martin del Campo,
   D. Mejia-Rodriguez, J. E. Moore, J. M. Mullin, T. Nakajima, D. R. Nascimento,
    J. A. Nichols, P. J. Nichols, J. Nieplocha, A. Otero-de-la-Roza, B. Palmer,
    A. Panyala, T. Pirojsirikul, B. Peng, R. Peverati, J. Pittner, L. Pollack,
   R. M. Richard, P. Sadayappan, G. C. Schatz, W. A. Shelton, D. W. Silverstein,
   D. M. A. Smith, T. A. Soares, D. Song, M. Swart, H. L. Taylor, G. S. Thomas,
            V. Tipparaju, D. G. Truhlar, K. Tsemekhman, T. Van Voorhis,
      A. Vazquez-Mayagoitia, P. Verma, O. Villa, A. Vishnu, K. D. Vogiatzis,
        D. Wang, J. H. Weare, M. J. Williamson, T. L. Windus, K. Wolinski,
        A. T. Wong, Q. Wu, C. Yang, Q. Yu, M. Zacharias, Z. Zhang, Y. Zhao,
                                and R. J. Harrison
                        "NWChem: Past, present, and future
                         J. Chem. Phys. 152, 184102 (2020)
                               doi:10.1063/5.0004997

                                      AUTHORS
                                      -------
  E. Apra, E. J. Bylaska, N. Govind, K. Kowalski, M. Valiev, D. Mejia-Rodriguez,
       A. Kunitsa, N. P. Bauman, A. Panyala, W. A. de Jong, T. P. Straatsma,
   H. J. J. van Dam, D. Wang, T. L. Windus, J. Hammond, J. Autschbach, A. Woods,
    K. Bhaskaran-Nair, J. Brabec, K. Lopata, S. A. Fischer, S. Krishnamoorthy,
     M. Jacquelin, W. Ma, M. Klemm, O. Villa, Y. Chen, V. Anisimov, F. Aquino,
     S. Hirata, M. T. Hackler, E. Hermes, L. Jensen, J. E. Moore, J. C. Becca,
      V. Konjkov, T. Risthaus, M. Malagoli, A. Marenich, A. Otero-de-la-Roza,
        J. Mullin, P. Nichols, R. Peverati, J. Pittner, Y. Zhao, P.-D. Fan,
        A. Fonari, M. J. Williamson, R. J. Harrison, J. R. Rehr, M. Dupuis,
     D. Silverstein, D. M. A. Smith, J. Nieplocha, V. Tipparaju, M. Krishnan,
     B. E. Van Kuiken, A. Vazquez-Mayagoitia, M. Swart, Q. Wu, T. Van Voorhis,
     A. A. Auer, M. Nooijen, L. D. Crosby, E. Brown, G. Cisneros, G. I. Fann,
   H. Fruchtl, J. Garza, K. Hirao, R. A. Kendall, J. A. Nichols, K. Tsemekhman,
    K. Wolinski, J. Anchell, D. E. Bernholdt, P. Borowski, T. Clark, D. Clerc,
   H. Dachsel, M. J. O. Deegan, K. Dyall, D. Elwood, E. Glendening, M. Gutowski,
   A. C. Hess, J. Jaffe, B. G. Johnson, J. Ju, R. Kobayashi, R. Kutteh, Z. Lin,
   R. Littlefield, X. Long, B. Meng, T. Nakajima, S. Niu, L. Pollack, M. Rosing,
   K. Glaesemann, G. Sandrone, M. Stave, H. Taylor, G. Thomas, J. H. van Lenthe,
                               A. T. Wong, Z. Zhang.

 Total times  cpu:     2932.5s     wall:     2977.2s
