export TMOUT=5400
export TMPDIR=/tmp
export PTMPDIR=/tmp/ptmp
 argument  1 = ALA_THR_4.nw
                                         
                                         


             Northwest Computational Chemistry Package (NWChem) 7.2.0
             --------------------------------------------------------


                    Environmental Molecular Sciences Laboratory
                       Pacific Northwest National Laboratory
                                Richland, WA 99352

                              Copyright (c) 1994-2022
                       Pacific Northwest National Laboratory
                            Battelle Memorial Institute

             NWChem is an open-source computational chemistry package
                        distributed under the terms of the
                      Educational Community License (ECL) 2.0
             A copy of the license is included with this distribution
                              in the LICENSE.TXT file

                                  ACKNOWLEDGMENT
                                  --------------

            This software and its documentation were developed at the
            EMSL at Pacific Northwest National Laboratory, a multiprogram
            national laboratory, operated for the U.S. Department of Energy
            by Battelle under Contract Number DE-AC05-76RL01830. Support
            for this work was provided by the Department of Energy Office
            of Biological and Environmental Research, Office of Basic
            Energy Sciences, and the Office of Advanced Scientific Computing.


           Job information
           ---------------

    hostname        = nova18-41
    program         = /opt/rit/el9/20230413/app/linux-rhel9-x86_64_v3/gcc-11.2.1/nwchem-7.2.0-oxtctbuhfuzyfaoziquq6bki22grib3g/bin/nwchem
    date            = Mon Jun 30 14:25:28 2025

    compiled        = Wed_May_17_23:46:39_2023
    source          = /tmp/root/spack-stage/spack-stage-nwchem-7.2.0-oxtctbuhfuzyfaoziquq6bki22grib3g/spack-src
    nwchem branch   = 7.2.0
    nwchem revision = d0d141fd
    ga revision     = 5.8.0
    use scalapack   = T
    input           = ALA_THR_4.nw
    prefix          = ALA_THR_4.
    data base       = ./ALA_THR_4.db
    status          = startup
    nproc           =        8
    time left       =     -1s



           Memory information
           ------------------

    heap     =   26214396 doubles =    200.0 Mbytes
    stack    =   26214401 doubles =    200.0 Mbytes
    global   =   52428800 doubles =    400.0 Mbytes (distinct from heap & stack)
    total    =  104857597 doubles =    800.0 Mbytes
    verify   = yes
    hardfail = no 


           Directory information
           ---------------------

  0 permanent = .
  0 scratch   = .




                                NWChem Input Module
                                -------------------



 Scaling coordinates for geometry "geometry" by  1.889725989
 (inverse scale =  0.529177249)

 C1  symmetry detected

          ------
          auto-z
          ------
  no constraints, skipping    0.0000000000000000     
  no constraints, skipping    0.0000000000000000     


                             Geometry "geometry" -> ""
                             -------------------------

 Output coordinates in angstroms (scale by  1.889725989 to convert to a.u.)

  No.       Tag          Charge          X              Y              Z
 ---- ---------------- ---------- -------------- -------------- --------------
    1 H                    1.0000    -2.65121259    -4.23916172     0.52304794
    2 C                    6.0000    -1.67326962    -4.32397843     0.04937647
    3 H                    1.0000    -1.79307480    -4.33952718    -1.03180296
    4 H                    1.0000    -1.18308529    -5.23541617     0.38499615
    5 C                    6.0000    -0.83711141    -3.12941801     0.44087854
    6 O                    8.0000    -1.29923862    -2.26531124     1.17564785
    7 N                    7.0000     0.40032420    -3.07774678    -0.04764595
    8 H                    1.0000     0.70154650    -3.80194933    -0.67828831
    9 C                    6.0000     1.28746707    -1.93649770     0.16818750
   10 H                    1.0000     1.31757012    -1.72557282     1.23943234
   11 C                    6.0000     2.70423155    -2.30992618    -0.28576249
   12 H                    1.0000     2.70627438    -2.52905436    -1.35492228
   13 H                    1.0000     3.38134766    -1.47690929    -0.09392235
   14 H                    1.0000     3.05349240    -3.18387943     0.26453250
   15 C                    6.0000     0.76457467    -0.67885073    -0.55375892
   16 O                    8.0000     0.42825393    -0.72402750    -1.73707646
   17 N                    7.0000     0.71514387     0.45263261     0.15073739
   18 H                    1.0000     1.02378115     0.44723111     1.11295663
   19 C                    6.0000     0.22651329     1.73583147    -0.37493822
   20 H                    1.0000     0.58949487     1.84760450    -1.39575954
   21 C                    6.0000    -1.31480843     1.73428327    -0.42603574
   22 H                    1.0000    -1.65311216     0.80633109    -0.88847422
   23 C                    6.0000    -1.99016946     1.86313418     0.93896460
   24 H                    1.0000    -1.75294050     2.82179239     1.39997855
   25 H                    1.0000    -3.07101921     1.79047284     0.81225963
   26 H                    1.0000    -1.66184968     1.05249955     1.59026069
   27 O                    8.0000    -1.75883017     2.80210637    -1.23121866
   28 H                    1.0000    -1.86393204     2.45884837    -2.12341009
   29 C                    6.0000     0.78492878     2.91282386     0.43869932
   30 O                    8.0000     1.43317237     2.71853988     1.46307131
   31 N                    7.0000     0.57211805     4.14597435     0.00413119
   32 H                    1.0000    -0.03387648     4.29093298    -0.78991706
   33 H                    1.0000     0.93649410     4.91486566     0.54141533

      Atomic Mass 
      ----------- 

      H                  1.007825
      C                 12.000000
      O                 15.994910
      N                 14.003070


 Effective nuclear repulsion energy (a.u.)    1194.7997238753

            Nuclear Dipole moment (a.u.) 
            ----------------------------
        X                 Y               Z
 ---------------- ---------------- ----------------
    -0.0000000000    -0.0000000000     0.0000000000



                                Z-matrix (autoz)
                                -------- 

 Units are Angstrom for bonds and degrees for angles

      Type          Name      I     J     K     L     M      Value
      ----------- --------  ----- ----- ----- ----- ----- ----------
    1 Stretch                  1     2                       1.08992
    2 Stretch                  2     3                       1.08791
    3 Stretch                  2     4                       1.08795
    4 Stretch                  2     5                       1.50977
    5 Stretch                  5     6                       1.22480
    6 Stretch                  5     7                       1.33138
    7 Stretch                  7     8                       1.00644
    8 Stretch                  7     9                       1.46153
    9 Stretch                  9    10                       1.09223
   10 Stretch                  9    11                       1.53386
   11 Stretch                  9    15                       1.54152
   12 Stretch                 11    12                       1.09139
   13 Stretch                 11    13                       1.09051
   14 Stretch                 11    14                       1.09023
   15 Stretch                 15    16                       1.23101
   16 Stretch                 15    17                       1.33380
   17 Stretch                 17    18                       1.01052
   18 Stretch                 17    19                       1.47027
   19 Stretch                 19    20                       1.08919
   20 Stretch                 19    21                       1.54217
   21 Stretch                 19    29                       1.53595
   22 Stretch                 21    22                       1.09059
   23 Stretch                 21    23                       1.52838
   24 Stretch                 21    27                       1.40916
   25 Stretch                 23    24                       1.08988
   26 Stretch                 23    25                       1.09067
   27 Stretch                 23    26                       1.09046
   28 Stretch                 27    28                       0.96171
   29 Stretch                 29    30                       1.22772
   30 Stretch                 29    31                       1.32469
   31 Stretch                 31    32                       1.00933
   32 Stretch                 31    33                       1.00630
   33 Bend                     1     2     3               109.52427
   34 Bend                     1     2     4               109.59646
   35 Bend                     1     2     5               108.82406
   36 Bend                     2     5     6               120.31888
   37 Bend                     2     5     7               116.76355
   38 Bend                     3     2     4               110.13439
   39 Bend                     3     2     5               109.26920
   40 Bend                     4     2     5               109.47049
   41 Bend                     5     7     8               118.69668
   42 Bend                     5     7     9               122.70307
   43 Bend                     6     5     7               122.91747
   44 Bend                     7     9    10               108.20182
   45 Bend                     7     9    11               109.07752
   46 Bend                     7     9    15               111.22335
   47 Bend                     8     7     9               118.21290
   48 Bend                     9    11    12               109.90944
   49 Bend                     9    11    13               109.60179
   50 Bend                     9    11    14               109.97902
   51 Bend                     9    15    16               120.85849
   52 Bend                     9    15    17               117.21300
   53 Bend                    10     9    11               108.16919
   54 Bend                    10     9    15               108.12751
   55 Bend                    11     9    15               111.92097
   56 Bend                    12    11    13               108.93801
   57 Bend                    12    11    14               109.44626
   58 Bend                    13    11    14               108.94342
   59 Bend                    15    17    18               119.14940
   60 Bend                    15    17    19               124.32254
   61 Bend                    16    15    17               121.91978
   62 Bend                    17    19    20               108.29463
   63 Bend                    17    19    21               110.06758
   64 Bend                    17    19    29               111.01245
   65 Bend                    18    17    19               116.52684
   66 Bend                    19    21    22               108.96162
   67 Bend                    19    21    23               114.32812
   68 Bend                    19    21    27               109.45680
   69 Bend                    19    29    30               120.84300
   70 Bend                    19    29    31               118.76107
   71 Bend                    20    19    21               107.58532
   72 Bend                    20    19    29               107.25836
   73 Bend                    21    19    29               112.43807
   74 Bend                    21    23    24               110.83953
   75 Bend                    21    23    25               109.17964
   76 Bend                    21    23    26               109.73716
   77 Bend                    21    27    28               107.10108
   78 Bend                    22    21    23               108.26177
   79 Bend                    22    21    27               107.74243
   80 Bend                    23    21    27               107.89018
   81 Bend                    24    23    25               108.87134
   82 Bend                    24    23    26               109.61550
   83 Bend                    25    23    26               108.55599
   84 Bend                    29    31    32               119.22416
   85 Bend                    29    31    33               118.55190
   86 Bend                    30    29    31               120.38799
   87 Bend                    32    31    33               121.85028
   88 Torsion                  1     2     5     6          -0.30420
   89 Torsion                  1     2     5     7         179.58247
   90 Torsion                  2     5     7     8           2.76431
   91 Torsion                  2     5     7     9         175.48662
   92 Torsion                  3     2     5     6         119.24829
   93 Torsion                  3     2     5     7         -60.86504
   94 Torsion                  4     2     5     6        -120.06362
   95 Torsion                  4     2     5     7          59.82305
   96 Torsion                  5     7     9    10          51.69082
   97 Torsion                  5     7     9    11         169.14533
   98 Torsion                  5     7     9    15         -66.93226
   99 Torsion                  6     5     7     8        -177.35223
  100 Torsion                  6     5     7     9          -4.62992
  101 Torsion                  7     9    11    12          62.40466
  102 Torsion                  7     9    11    13        -177.89989
  103 Torsion                  7     9    11    14         -58.15484
  104 Torsion                  7     9    15    16         -49.27088
  105 Torsion                  7     9    15    17         131.78399
  106 Torsion                  8     7     9    10        -135.55346
  107 Torsion                  8     7     9    11         -18.09896
  108 Torsion                  8     7     9    15         105.82345
  109 Torsion                  9    15    17    18           0.49408
  110 Torsion                  9    15    17    19        -179.09024
  111 Torsion                 10     9    11    12         179.87978
  112 Torsion                 10     9    11    13         -60.42476
  113 Torsion                 10     9    11    14          59.32029
  114 Torsion                 10     9    15    16        -167.93860
  115 Torsion                 10     9    15    17          13.11626
  116 Torsion                 11     9    15    16          73.02098
  117 Torsion                 11     9    15    17        -105.92415
  118 Torsion                 12    11     9    15         -61.10443
  119 Torsion                 13    11     9    15          58.59103
  120 Torsion                 14    11     9    15         178.33608
  121 Torsion                 15    17    19    20         -40.37972
  122 Torsion                 15    17    19    21          76.97854
  123 Torsion                 15    17    19    29        -157.87835
  124 Torsion                 16    15    17    18        -178.43906
  125 Torsion                 16    15    17    19           1.97662
  126 Torsion                 17    19    21    22         -47.56424
  127 Torsion                 17    19    21    23          73.69847
  128 Torsion                 17    19    21    27        -165.15254
  129 Torsion                 17    19    29    30          -6.86158
  130 Torsion                 17    19    29    31         172.11732
  131 Torsion                 18    17    19    20         140.02602
  132 Torsion                 18    17    19    21        -102.61571
  133 Torsion                 18    17    19    29          22.52740
  134 Torsion                 19    21    23    24          63.57349
  135 Torsion                 19    21    23    25        -176.50390
  136 Torsion                 19    21    23    26         -57.63796
  137 Torsion                 19    21    27    28          92.69500
  138 Torsion                 19    29    31    32           6.66560
  139 Torsion                 19    29    31    33         179.78034
  140 Torsion                 20    19    21    22          70.23371
  141 Torsion                 20    19    21    23        -168.50358
  142 Torsion                 20    19    21    27         -47.35460
  143 Torsion                 20    19    29    30        -124.99001
  144 Torsion                 20    19    29    31          53.98889
  145 Torsion                 21    19    29    30         116.93850
  146 Torsion                 21    19    29    31         -64.08259
  147 Torsion                 22    21    19    29        -171.88797
  148 Torsion                 22    21    23    24        -174.77853
  149 Torsion                 22    21    23    25         -54.85591
  150 Torsion                 22    21    23    26          64.01003
  151 Torsion                 22    21    27    28         -25.65494
  152 Torsion                 23    21    19    29         -50.62526
  153 Torsion                 23    21    27    28        -142.33495
  154 Torsion                 24    23    21    27         -58.43685
  155 Torsion                 25    23    21    27          61.48577
  156 Torsion                 26    23    21    27        -179.64829
  157 Torsion                 27    21    19    29          70.52372
  158 Torsion                 30    29    31    32        -174.35071
  159 Torsion                 30    29    31    33          -1.23597


            XYZ format geometry
            -------------------
    33
 geometry
 H                    -2.65121259    -4.23916172     0.52304794
 C                    -1.67326962    -4.32397843     0.04937647
 H                    -1.79307480    -4.33952718    -1.03180296
 H                    -1.18308529    -5.23541617     0.38499615
 C                    -0.83711141    -3.12941801     0.44087854
 O                    -1.29923862    -2.26531124     1.17564785
 N                     0.40032420    -3.07774678    -0.04764595
 H                     0.70154650    -3.80194933    -0.67828831
 C                     1.28746707    -1.93649770     0.16818750
 H                     1.31757012    -1.72557282     1.23943234
 C                     2.70423155    -2.30992618    -0.28576249
 H                     2.70627438    -2.52905436    -1.35492228
 H                     3.38134766    -1.47690929    -0.09392235
 H                     3.05349240    -3.18387943     0.26453250
 C                     0.76457467    -0.67885073    -0.55375892
 O                     0.42825393    -0.72402750    -1.73707646
 N                     0.71514387     0.45263261     0.15073739
 H                     1.02378115     0.44723111     1.11295663
 C                     0.22651329     1.73583147    -0.37493822
 H                     0.58949487     1.84760450    -1.39575954
 C                    -1.31480843     1.73428327    -0.42603574
 H                    -1.65311216     0.80633109    -0.88847422
 C                    -1.99016946     1.86313418     0.93896460
 H                    -1.75294050     2.82179239     1.39997855
 H                    -3.07101921     1.79047284     0.81225963
 H                    -1.66184968     1.05249955     1.59026069
 O                    -1.75883017     2.80210637    -1.23121866
 H                    -1.86393204     2.45884837    -2.12341009
 C                     0.78492878     2.91282386     0.43869932
 O                     1.43317237     2.71853988     1.46307131
 N                     0.57211805     4.14597435     0.00413119
 H                    -0.03387648     4.29093298    -0.78991706
 H                     0.93649410     4.91486566     0.54141533

 ==============================================================================
                                internuclear distances
 ------------------------------------------------------------------------------
       center one      |      center two      | atomic units |  angstroms
 ------------------------------------------------------------------------------
    2 C                |   1 H                |     2.05965  |     1.08992
    3 H                |   2 C                |     2.05585  |     1.08791
    4 H                |   2 C                |     2.05593  |     1.08795
    5 C                |   2 C                |     2.85305  |     1.50977
    6 O                |   5 C                |     2.31453  |     1.22480
    7 N                |   5 C                |     2.51594  |     1.33138
    8 H                |   7 N                |     1.90189  |     1.00644
    9 C                |   7 N                |     2.76188  |     1.46153
   10 H                |   9 C                |     2.06401  |     1.09223
   11 C                |   9 C                |     2.89858  |     1.53386
   12 H                |  11 C                |     2.06242  |     1.09139
   13 H                |  11 C                |     2.06076  |     1.09051
   14 H                |  11 C                |     2.06024  |     1.09023
   15 C                |   9 C                |     2.91306  |     1.54152
   16 O                |  15 C                |     2.32628  |     1.23101
   17 N                |  15 C                |     2.52051  |     1.33380
   18 H                |  17 N                |     1.90961  |     1.01052
   19 C                |  17 N                |     2.77841  |     1.47027
   20 H                |  19 C                |     2.05826  |     1.08919
   21 C                |  19 C                |     2.91428  |     1.54217
   22 H                |  21 C                |     2.06092  |     1.09059
   23 C                |  21 C                |     2.88822  |     1.52838
   24 H                |  23 C                |     2.05957  |     1.08988
   25 H                |  23 C                |     2.06108  |     1.09067
   26 H                |  23 C                |     2.06068  |     1.09046
   27 O                |  21 C                |     2.66292  |     1.40916
   28 H                |  27 O                |     1.81736  |     0.96171
   29 C                |  19 C                |     2.90253  |     1.53595
   30 O                |  29 C                |     2.32006  |     1.22772
   31 N                |  29 C                |     2.50330  |     1.32469
   32 H                |  31 N                |     1.90736  |     1.00933
   33 H                |  31 N                |     1.90163  |     1.00630
 ------------------------------------------------------------------------------
                         number of included internuclear distances:         32
 ==============================================================================



 ==============================================================================
                                 internuclear angles
 ------------------------------------------------------------------------------
        center 1       |       center 2       |       center 3       |  degrees
 ------------------------------------------------------------------------------
    1 H                |   2 C                |   3 H                |   109.52
    1 H                |   2 C                |   4 H                |   109.60
    1 H                |   2 C                |   5 C                |   108.82
    3 H                |   2 C                |   4 H                |   110.13
    3 H                |   2 C                |   5 C                |   109.27
    4 H                |   2 C                |   5 C                |   109.47
    2 C                |   5 C                |   6 O                |   120.32
    2 C                |   5 C                |   7 N                |   116.76
    6 O                |   5 C                |   7 N                |   122.92
    5 C                |   7 N                |   8 H                |   118.70
    5 C                |   7 N                |   9 C                |   122.70
    8 H                |   7 N                |   9 C                |   118.21
    7 N                |   9 C                |  10 H                |   108.20
    7 N                |   9 C                |  11 C                |   109.08
    7 N                |   9 C                |  15 C                |   111.22
   10 H                |   9 C                |  11 C                |   108.17
   10 H                |   9 C                |  15 C                |   108.13
   11 C                |   9 C                |  15 C                |   111.92
    9 C                |  11 C                |  12 H                |   109.91
    9 C                |  11 C                |  13 H                |   109.60
    9 C                |  11 C                |  14 H                |   109.98
   12 H                |  11 C                |  13 H                |   108.94
   12 H                |  11 C                |  14 H                |   109.45
   13 H                |  11 C                |  14 H                |   108.94
    9 C                |  15 C                |  16 O                |   120.86
    9 C                |  15 C                |  17 N                |   117.21
   16 O                |  15 C                |  17 N                |   121.92
   15 C                |  17 N                |  18 H                |   119.15
   15 C                |  17 N                |  19 C                |   124.32
   18 H                |  17 N                |  19 C                |   116.53
   17 N                |  19 C                |  20 H                |   108.29
   17 N                |  19 C                |  21 C                |   110.07
   17 N                |  19 C                |  29 C                |   111.01
   20 H                |  19 C                |  21 C                |   107.59
   20 H                |  19 C                |  29 C                |   107.26
   21 C                |  19 C                |  29 C                |   112.44
   19 C                |  21 C                |  22 H                |   108.96
   19 C                |  21 C                |  23 C                |   114.33
   19 C                |  21 C                |  27 O                |   109.46
   22 H                |  21 C                |  23 C                |   108.26
   22 H                |  21 C                |  27 O                |   107.74
   23 C                |  21 C                |  27 O                |   107.89
   21 C                |  23 C                |  24 H                |   110.84
   21 C                |  23 C                |  25 H                |   109.18
   21 C                |  23 C                |  26 H                |   109.74
   24 H                |  23 C                |  25 H                |   108.87
   24 H                |  23 C                |  26 H                |   109.62
   25 H                |  23 C                |  26 H                |   108.56
   21 C                |  27 O                |  28 H                |   107.10
   19 C                |  29 C                |  30 O                |   120.84
   19 C                |  29 C                |  31 N                |   118.76
   30 O                |  29 C                |  31 N                |   120.39
   29 C                |  31 N                |  32 H                |   119.22
   29 C                |  31 N                |  33 H                |   118.55
   32 H                |  31 N                |  33 H                |   121.85
 ------------------------------------------------------------------------------
                            number of included internuclear angles:         55
 ==============================================================================



  library name resolved from: environment
  library file name is: </opt/rit/el9/20230413/app/linux-rhel9-x86_64_v3/gcc-11.2.1/nwchem-7.2.0-oxtctbuhfuzyfaoziquq6bki22grib3g/share/nwchem/libraries/>
  


 Summary of "ao basis" -> "" (cartesian)
 ------------------------------------------------------------------------------
       Tag                 Description            Shells   Functions and Types
 ---------------- ------------------------------  ------  ---------------------
 *                        aug-cc-pvdz                 on all atoms 


                      Basis "ao basis" -> "ao basis" (cartesian)
                      -----
  H (Hydrogen)
  ------------
            Exponent  Coefficients 
       -------------- ---------------------------------------------------------
  1 S  1.30100000E+01  0.019685
  1 S  1.96200000E+00  0.137977
  1 S  4.44600000E-01  0.478148

  2 S  1.22000000E-01  1.000000

  3 S  2.97400000E-02  1.000000

  4 P  7.27000000E-01  1.000000

  5 P  1.41000000E-01  1.000000

  C (Carbon)
  ----------
            Exponent  Coefficients 
       -------------- ---------------------------------------------------------
  1 S  6.66500000E+03  0.000692
  1 S  1.00000000E+03  0.005329
  1 S  2.28000000E+02  0.027077
  1 S  6.47100000E+01  0.101718
  1 S  2.10600000E+01  0.274740
  1 S  7.49500000E+00  0.448564
  1 S  2.79700000E+00  0.285074
  1 S  5.21500000E-01  0.015204

  2 S  6.66500000E+03 -0.000146
  2 S  1.00000000E+03 -0.001154
  2 S  2.28000000E+02 -0.005725
  2 S  6.47100000E+01 -0.023312
  2 S  2.10600000E+01 -0.063955
  2 S  7.49500000E+00 -0.149981
  2 S  2.79700000E+00 -0.127262
  2 S  5.21500000E-01  0.544529

  3 S  1.59600000E-01  1.000000

  4 S  4.69000000E-02  1.000000

  5 P  9.43900000E+00  0.038109
  5 P  2.00200000E+00  0.209480
  5 P  5.45600000E-01  0.508557

  6 P  1.51700000E-01  1.000000

  7 P  4.04100000E-02  1.000000

  8 D  5.50000000E-01  1.000000

  9 D  1.51000000E-01  1.000000

  O (Oxygen)
  ----------
            Exponent  Coefficients 
       -------------- ---------------------------------------------------------
  1 S  1.17200000E+04  0.000710
  1 S  1.75900000E+03  0.005470
  1 S  4.00800000E+02  0.027837
  1 S  1.13700000E+02  0.104800
  1 S  3.70300000E+01  0.283062
  1 S  1.32700000E+01  0.448719
  1 S  5.02500000E+00  0.270952
  1 S  1.01300000E+00  0.015458

  2 S  1.17200000E+04 -0.000160
  2 S  1.75900000E+03 -0.001263
  2 S  4.00800000E+02 -0.006267
  2 S  1.13700000E+02 -0.025716
  2 S  3.70300000E+01 -0.070924
  2 S  1.32700000E+01 -0.165411
  2 S  5.02500000E+00 -0.116955
  2 S  1.01300000E+00  0.557368

  3 S  3.02300000E-01  1.000000

  4 S  7.89600000E-02  1.000000

  5 P  1.77000000E+01  0.043018
  5 P  3.85400000E+00  0.228913
  5 P  1.04600000E+00  0.508728

  6 P  2.75300000E-01  1.000000

  7 P  6.85600000E-02  1.000000

  8 D  1.18500000E+00  1.000000

  9 D  3.32000000E-01  1.000000

  N (Nitrogen)
  ------------
            Exponent  Coefficients 
       -------------- ---------------------------------------------------------
  1 S  9.04600000E+03  0.000700
  1 S  1.35700000E+03  0.005389
  1 S  3.09300000E+02  0.027406
  1 S  8.77300000E+01  0.103207
  1 S  2.85600000E+01  0.278723
  1 S  1.02100000E+01  0.448540
  1 S  3.83800000E+00  0.278238
  1 S  7.46600000E-01  0.015440

  2 S  9.04600000E+03 -0.000153
  2 S  1.35700000E+03 -0.001208
  2 S  3.09300000E+02 -0.005992
  2 S  8.77300000E+01 -0.024544
  2 S  2.85600000E+01 -0.067459
  2 S  1.02100000E+01 -0.158078
  2 S  3.83800000E+00 -0.121831
  2 S  7.46600000E-01  0.549003

  3 S  2.24800000E-01  1.000000

  4 S  6.12400000E-02  1.000000

  5 P  1.35500000E+01  0.039919
  5 P  2.91700000E+00  0.217169
  5 P  7.97300000E-01  0.510319

  6 P  2.18500000E-01  1.000000

  7 P  5.61100000E-02  1.000000

  8 D  8.17000000E-01  1.000000

  9 D  2.30000000E-01  1.000000



 Summary of "ao basis" -> "ao basis" (cartesian)
 ------------------------------------------------------------------------------
       Tag                 Description            Shells   Functions and Types
 ---------------- ------------------------------  ------  ---------------------
 H                        aug-cc-pvdz                5        9   3s2p
 C                        aug-cc-pvdz                9       25   4s3p2d
 O                        aug-cc-pvdz                9       25   4s3p2d
 N                        aug-cc-pvdz                9       25   4s3p2d


                                 NWChem SCF Module
                                 -----------------



  ao basis        = "ao basis"
  functions       =   553
  atoms           =    33
  closed shells   =    62
  open shells     =     0
  charge          =   0.00
  wavefunction    = RHF 
  input vectors   = atomic
  output vectors  = ./ALA_THR_4.movecs
  use symmetry    = F
  symmetry adapt  = F


 Summary of "ao basis" -> "ao basis" (cartesian)
 ------------------------------------------------------------------------------
       Tag                 Description            Shells   Functions and Types
 ---------------- ------------------------------  ------  ---------------------
 H                        aug-cc-pvdz                5        9   3s2p
 C                        aug-cc-pvdz                9       25   4s3p2d
 O                        aug-cc-pvdz                9       25   4s3p2d
 N                        aug-cc-pvdz                9       25   4s3p2d



 Forming initial guess at       1.8s


 !! The overlap matrix has   4 vectors deemed linearly dependent with
    eigenvalues:
 3.07D-06 3.24D-06 8.86D-06 9.70D-06


      Superposition of Atomic Density Guess
      -------------------------------------

 Sum of atomic energies:        -809.46727949

      Non-variational initial energy
      ------------------------------

 Total energy =    -819.602967
 1-e energy   =   -3474.842029
 2-e energy   =    1460.439339
 HOMO         =      -0.310832
 LUMO         =       0.009865


 Starting SCF solution at     214.8s



 ----------------------------------------------
         Quadratically convergent ROHF

 Convergence threshold     :          1.000E-04
 Maximum no. of iterations :           30
 Final Fock-matrix accuracy:          1.000E-10
 ----------------------------------------------


              iter       energy          gnorm     gmax       time
             ----- ------------------- --------- --------- --------
                 1     -813.3080428256  2.49D+00  2.03D-01    435.2
                 2     -813.6362345330  8.25D-01  4.33D-02    969.5
                 3     -813.6949530167  6.44D-02  4.72D-03   1593.0
                 4     -813.6955635100  3.79D-03  5.28D-04   2486.7
                 5     -813.6955663628  7.13D-06  4.80D-07   4075.8


       Final RHF  results 
       ------------------ 

         Total SCF energy =   -813.695566362753
      One-electron energy =  -3487.107407988678
      Two-electron energy =   1478.612117750579
 Nuclear repulsion energy =   1194.799723875346

        Time for solution =   3868.2s


             Final eigenvalues
             -----------------

              1      
    1  -20.5816
    2  -20.5301
    3  -20.5253
    4  -20.5251
    5  -15.6011
    6  -15.5983
    7  -15.5965
    8  -11.3645
    9  -11.3575
   10  -11.3547
   11  -11.3008
   12  -11.2969
   13  -11.2960
   14  -11.2487
   15  -11.2426
   16  -11.2184
   17   -1.3966
   18   -1.3894
   19   -1.3859
   20   -1.3789
   21   -1.2487
   22   -1.2394
   23   -1.2256
   24   -1.0725
   25   -1.0454
   26   -0.9952
   27   -0.9726
   28   -0.8940
   29   -0.8461
   30   -0.8217
   31   -0.7983
   32   -0.7773
   33   -0.7568
   34   -0.7184
   35   -0.7110
   36   -0.6849
   37   -0.6742
   38   -0.6649
   39   -0.6620
   40   -0.6404
   41   -0.6220
   42   -0.6058
   43   -0.5925
   44   -0.5886
   45   -0.5819
   46   -0.5736
   47   -0.5683
   48   -0.5535
   49   -0.5462
   50   -0.5414
   51   -0.5379
   52   -0.5251
   53   -0.5198
   54   -0.5080
   55   -0.4881
   56   -0.4659
   57   -0.4333
   58   -0.4266
   59   -0.4225
   60   -0.4153
   61   -0.3985
   62   -0.3887
   63    0.0292
   64    0.0338
   65    0.0407
   66    0.0458
   67    0.0492
   68    0.0535
   69    0.0557
   70    0.0644
   71    0.0668
   72    0.0721

                       ROHF Final Molecular Orbital Analysis
                       -------------------------------------

 Vector   17  Occ=2.000000D+00  E=-1.396602D+00
              MO Center=  2.2D-01,  2.1D+00,  7.5D-02, r^2= 5.7D+00
   Bfn.  Coefficient  Atom+Function         Bfn.  Coefficient  Atom+Function  
  ----- ------------  ---------------      ----- ------------  ---------------
   488      0.265142  30 O  s               487      0.249349  30 O  s         
   429      0.231243  27 O  s               428      0.205070  27 O  s         
   462      0.183893  29 C  s         

 Vector   18  Occ=2.000000D+00  E=-1.389412D+00
              MO Center= -5.1D-01, -1.5D+00,  2.8D-01, r^2= 5.9D+00
   Bfn.  Coefficient  Atom+Function         Bfn.  Coefficient  Atom+Function  
  ----- ------------  ---------------      ----- ------------  ---------------
    80      0.281501   6 O  s                79      0.276176   6 O  s         
    54      0.200876   5 C  s               250      0.166467  16 O  s         
    12      0.161205   2 C  s               249      0.153225  16 O  s         

 Vector   19  Occ=2.000000D+00  E=-1.385884D+00
              MO Center= -7.1D-01,  2.7D+00, -4.3D-01, r^2= 3.9D+00
   Bfn.  Coefficient  Atom+Function         Bfn.  Coefficient  Atom+Function  
  ----- ------------  ---------------      ----- ------------  ---------------
   429      0.376780  27 O  s               428      0.331230  27 O  s         
   488     -0.235278  30 O  s               487     -0.213581  30 O  s         
   452      0.161088  28 H  s         

 Vector   20  Occ=2.000000D+00  E=-1.378916D+00
              MO Center=  7.4D-02, -9.8D-01, -4.8D-01, r^2= 4.2D+00
   Bfn.  Coefficient  Atom+Function         Bfn.  Coefficient  Atom+Function  
  ----- ------------  ---------------      ----- ------------  ---------------
   250      0.308221  16 O  s               249      0.286928  16 O  s         
    79     -0.199761   6 O  s                80     -0.197015   6 O  s         
   224      0.197844  15 C  s         

 Vector   21  Occ=2.000000D+00  E=-1.248652D+00
              MO Center=  1.7D-01, -2.8D+00,  1.2D-01, r^2= 1.8D+00
   Bfn.  Coefficient  Atom+Function         Bfn.  Coefficient  Atom+Function  
  ----- ------------  ---------------      ----- ------------  ---------------
   105      0.421321   7 N  s               104      0.338616   7 N  s         
    80     -0.217821   6 O  s                79     -0.186547   6 O  s         
   128      0.155575   8 H  s         

 Vector   22  Occ=2.000000D+00  E=-1.239420D+00
              MO Center=  6.1D-01,  3.1D-01, -1.6D-01, r^2= 2.0D+00
   Bfn.  Coefficient  Atom+Function         Bfn.  Coefficient  Atom+Function  
  ----- ------------  ---------------      ----- ------------  ---------------
   275      0.397803  17 N  s               274      0.342715  17 N  s         
   250     -0.214327  16 O  s               249     -0.177187  16 O  s         
   229      0.158259  15 C  pz              298      0.151787  18 H  s         

 Vector   23  Occ=2.000000D+00  E=-1.225617D+00
              MO Center=  6.7D-01,  3.8D+00,  2.2D-01, r^2= 1.3D+00
   Bfn.  Coefficient  Atom+Function         Bfn.  Coefficient  Atom+Function  
  ----- ------------  ---------------      ----- ------------  ---------------
   513      0.381508  31 N  s               512      0.368841  31 N  s         
   488     -0.221032  30 O  s               487     -0.184828  30 O  s         
   536      0.166774  32 H  s               464      0.163707  29 C  s         
   469     -0.163239  29 C  py              545      0.156152  33 H  s         

 Vector   24  Occ=2.000000D+00  E=-1.072478D+00
              MO Center=  5.8D-01, -1.1D+00, -7.2D-02, r^2= 7.3D+00
   Bfn.  Coefficient  Atom+Function         Bfn.  Coefficient  Atom+Function  
  ----- ------------  ---------------      ----- ------------  ---------------
   138      0.208043   9 C  s               172      0.171561  11 C  s         
    12     -0.157326   2 C  s               308     -0.152521  19 C  s         

 Vector   25  Occ=2.000000D+00  E=-1.045418D+00
              MO Center= -2.6D-01,  2.3D-01, -4.6D-02, r^2= 8.7D+00
   Bfn.  Coefficient  Atom+Function         Bfn.  Coefficient  Atom+Function  
  ----- ------------  ---------------      ----- ------------  ---------------
   309      0.256596  19 C  s               342      0.189972  21 C  s         
   376      0.163086  23 C  s               308      0.158425  19 C  s         
    56      0.153046   5 C  s         

 Vector   26  Occ=2.000000D+00  E=-9.951622D-01
              MO Center= -7.2D-01, -3.6D+00,  4.6D-02, r^2= 5.3D+00
   Bfn.  Coefficient  Atom+Function         Bfn.  Coefficient  Atom+Function  
  ----- ------------  ---------------      ----- ------------  ---------------
    11      0.319831   2 C  s               172      0.155937  11 C  s         

 Vector   27  Occ=2.000000D+00  E=-9.725513D-01
              MO Center= -5.6D-01,  1.5D+00,  2.3D-01, r^2= 5.6D+00
   Bfn.  Coefficient  Atom+Function         Bfn.  Coefficient  Atom+Function  
  ----- ------------  ---------------      ----- ------------  ---------------
   348      0.269221  21 C  px              376     -0.256522  23 C  s         
   314      0.214451  19 C  px              139     -0.208045   9 C  s         
   308      0.206995  19 C  s               350     -0.185608  21 C  pz        
   225      0.184676  15 C  s         

 Vector   28  Occ=2.000000D+00  E=-8.940152D-01
              MO Center=  1.4D+00, -1.5D+00, -1.2D-01, r^2= 6.5D+00
   Bfn.  Coefficient  Atom+Function         Bfn.  Coefficient  Atom+Function  
  ----- ------------  ---------------      ----- ------------  ---------------
   139      0.331792   9 C  s               145      0.250843   9 C  py        
   144     -0.242727   9 C  px              172     -0.232539  11 C  s         
   225     -0.232509  15 C  s               231      0.231277  15 C  py        
   138      0.193739   9 C  s               309      0.193651  19 C  s         
   146     -0.159708   9 C  pz        

 Vector   29  Occ=2.000000D+00  E=-8.460621D-01
              MO Center= -7.4D-01,  2.2D+00,  3.6D-02, r^2= 4.3D+00
   Bfn.  Coefficient  Atom+Function         Bfn.  Coefficient  Atom+Function  
  ----- ------------  ---------------      ----- ------------  ---------------
   344      0.303966  21 C  s               464     -0.277100  29 C  s         
   367     -0.241658  22 H  s               342     -0.215963  21 C  s         
   376      0.177170  23 C  s               315      0.166670  19 C  py        
   174     -0.163867  11 C  s               366     -0.162723  22 H  s         
   462      0.161357  29 C  s               516     -0.157675  31 N  py        

 Vector   30  Occ=2.000000D+00  E=-8.217115D-01
              MO Center=  4.1D-01, -6.0D-01,  3.3D-02, r^2= 1.0D+01
   Bfn.  Coefficient  Atom+Function         Bfn.  Coefficient  Atom+Function  
  ----- ------------  ---------------      ----- ------------  ---------------
   107      0.237865   7 N  px              516      0.176251  31 N  py        
   278      0.166181  17 N  py              309     -0.160758  19 C  s         
    54     -0.154335   5 C  s         

 Vector   31  Occ=2.000000D+00  E=-7.983167D-01
              MO Center=  3.6D-01, -9.4D-01,  4.9D-02, r^2= 1.0D+01
   Bfn.  Coefficient  Atom+Function         Bfn.  Coefficient  Atom+Function  
  ----- ------------  ---------------      ----- ------------  ---------------
   128      0.255676   8 H  s               107      0.198914   7 N  px        
   105      0.179970   7 N  s               109     -0.175248   7 N  pz        
   516     -0.168914  31 N  py               55     -0.161069   5 C  s         
    54     -0.152838   5 C  s         

 Vector   32  Occ=2.000000D+00  E=-7.773273D-01
              MO Center=  1.0D-01,  1.4D+00, -9.8D-02, r^2= 4.9D+00
   Bfn.  Coefficient  Atom+Function         Bfn.  Coefficient  Atom+Function  
  ----- ------------  ---------------      ----- ------------  ---------------
   225      0.279580  15 C  s               279     -0.277691  17 N  pz        
   298     -0.262259  18 H  s               275     -0.236514  17 N  s         
   333      0.200531  20 H  s               463     -0.161155  29 C  s         
   250     -0.153106  16 O  s               332      0.150692  20 H  s         

 Vector   33  Occ=2.000000D+00  E=-7.567819D-01
              MO Center=  6.3D-02,  2.3D+00, -2.1D-01, r^2= 7.6D+00
   Bfn.  Coefficient  Atom+Function         Bfn.  Coefficient  Atom+Function  
  ----- ------------  ---------------      ----- ------------  ---------------
   536     -0.251119  32 H  s               517      0.236079  31 N  pz        
   433     -0.182288  27 O  pz              515      0.178864  31 N  px        
   315     -0.161203  19 C  py              344      0.156151  21 C  s         
   452      0.153574  28 H  s               466      0.151914  29 C  py        

 Vector   34  Occ=2.000000D+00  E=-7.183908D-01
              MO Center=  3.5D-01, -5.0D-01, -3.0D-01, r^2= 8.8D+00
   Bfn.  Coefficient  Atom+Function         Bfn.  Coefficient  Atom+Function  
  ----- ------------  ---------------      ----- ------------  ---------------
   225      0.373043  15 C  s               145     -0.308284   9 C  py        
   139     -0.272663   9 C  s               228      0.222404  15 C  py        
    55      0.203315   5 C  s               163      0.176805  10 H  s         
   143      0.172870   9 C  pz              433      0.170314  27 O  pz        
   142     -0.167869   9 C  py              109      0.156603   7 N  pz        

 Vector   35  Occ=2.000000D+00  E=-7.110406D-01
              MO Center= -6.0D-01,  2.8D+00, -4.7D-01, r^2= 4.8D+00
   Bfn.  Coefficient  Atom+Function         Bfn.  Coefficient  Atom+Function  
  ----- ------------  ---------------      ----- ------------  ---------------
   433      0.278319  27 O  pz              545      0.231220  33 H  s         
   452     -0.215676  28 H  s               346      0.206314  21 C  py        
   517      0.198728  31 N  pz              276      0.188769  17 N  s         
   536     -0.177126  32 H  s               366     -0.170421  22 H  s         
   378      0.163316  23 C  s               429      0.162619  27 O  s         

 Vector   36  Occ=2.000000D+00  E=-6.849282D-01
              MO Center=  2.9D-01, -2.2D+00, -8.2D-02, r^2= 6.5D+00
   Bfn.  Coefficient  Atom+Function         Bfn.  Coefficient  Atom+Function  
  ----- ------------  ---------------      ----- ------------  ---------------
   139     -0.237207   9 C  s               108      0.218550   7 N  py        
   145     -0.205816   9 C  py              231     -0.186267  15 C  py        
   162     -0.169120  10 H  s               225      0.155481  15 C  s         
   141     -0.150311   9 C  px        

 Vector   37  Occ=2.000000D+00  E=-6.742219D-01
              MO Center= -5.7D-01, -1.9D+00,  4.3D-01, r^2= 7.3D+00
   Bfn.  Coefficient  Atom+Function         Bfn.  Coefficient  Atom+Function  
  ----- ------------  ---------------      ----- ------------  ---------------
    83      0.256797   6 O  py               80      0.238889   6 O  s         
    57      0.218999   5 C  px              225     -0.174837  15 C  s         
    12     -0.171895   2 C  s                84      0.170072   6 O  pz        
    18     -0.166078   2 C  py               15     -0.160819   2 C  py        
   145      0.156531   9 C  py              343     -0.151034  21 C  s         

 Vector   38  Occ=2.000000D+00  E=-6.648767D-01
              MO Center= -3.8D-01,  2.0D+00,  2.1D-02, r^2= 4.9D+00
   Bfn.  Coefficient  Atom+Function         Bfn.  Coefficient  Atom+Function  
  ----- ------------  ---------------      ----- ------------  ---------------
   314      0.254432  19 C  px              345     -0.239893  21 C  px        
   311      0.219326  19 C  px              343      0.199703  21 C  s         
   492     -0.183792  30 O  pz              466     -0.171857  29 C  py        
   432     -0.156724  27 O  py        

 Vector   39  Occ=2.000000D+00  E=-6.620477D-01
              MO Center=  5.2D-01,  1.5D+00,  1.8D-01, r^2= 6.6D+00
   Bfn.  Coefficient  Atom+Function         Bfn.  Coefficient  Atom+Function  
  ----- ------------  ---------------      ----- ------------  ---------------
   313      0.212513  19 C  pz              332     -0.201830  20 H  s         
   490     -0.189603  30 O  px              466     -0.180424  29 C  py        
   488     -0.178728  30 O  s               492     -0.155053  30 O  pz        

 Vector   40  Occ=2.000000D+00  E=-6.403815D-01
              MO Center=  2.5D-01,  2.8D-01, -9.3D-02, r^2= 8.4D+00
   Bfn.  Coefficient  Atom+Function         Bfn.  Coefficient  Atom+Function  
  ----- ------------  ---------------      ----- ------------  ---------------
   278      0.232774  17 N  py              312     -0.205532  19 C  py        
   315     -0.167203  19 C  py              139      0.153371   9 C  s         

 Vector   41  Occ=2.000000D+00  E=-6.219733D-01
              MO Center= -6.2D-01, -2.5D+00, -1.2D-01, r^2= 7.7D+00
   Bfn.  Coefficient  Atom+Function         Bfn.  Coefficient  Atom+Function  
  ----- ------------  ---------------      ----- ------------  ---------------
   139      0.294800   9 C  s               225     -0.255995  15 C  s         
    16     -0.208433   2 C  pz               44     -0.193074   4 H  s         
   254     -0.187791  16 O  pz               35      0.181977   3 H  s         
    59     -0.178224   5 C  pz        

 Vector   42  Occ=2.000000D+00  E=-6.057629D-01
              MO Center=  8.2D-01, -1.1D+00, -3.7D-01, r^2= 9.6D+00
   Bfn.  Coefficient  Atom+Function         Bfn.  Coefficient  Atom+Function  
  ----- ------------  ---------------      ----- ------------  ---------------
   254      0.280719  16 O  pz              214      0.181561  14 H  s         
   250     -0.174447  16 O  s               344      0.172867  21 C  s         
   229     -0.167664  15 C  pz              177      0.165475  11 C  pz        
   215      0.159454  14 H  s               333     -0.155769  20 H  s         

 Vector   43  Occ=2.000000D+00  E=-5.924683D-01
              MO Center= -8.7D-02,  1.9D+00,  1.8D-01, r^2= 7.0D+00
   Bfn.  Coefficient  Atom+Function         Bfn.  Coefficient  Atom+Function  
  ----- ------------  ---------------      ----- ------------  ---------------
   431      0.240145  27 O  px              492     -0.238891  30 O  pz        
   467      0.201488  29 C  pz              434      0.184114  27 O  px        
   347     -0.167065  21 C  pz              488     -0.159700  30 O  s         
   465      0.151449  29 C  px        

 Vector   44  Occ=2.000000D+00  E=-5.886227D-01
              MO Center=  4.4D-02, -7.0D-01, -1.8D-01, r^2= 1.1D+01
   Bfn.  Coefficient  Atom+Function         Bfn.  Coefficient  Atom+Function  
  ----- ------------  ---------------      ----- ------------  ---------------
    13      0.211162   2 C  s               309     -0.206582  19 C  s         
   139      0.172769   9 C  s                58      0.166752   5 C  py        
   252      0.165834  16 O  px              225     -0.164821  15 C  s         

 Vector   45  Occ=2.000000D+00  E=-5.819167D-01
              MO Center=  5.1D-01, -1.6D+00,  7.7D-02, r^2= 1.1D+01
   Bfn.  Coefficient  Atom+Function         Bfn.  Coefficient  Atom+Function  
  ----- ------------  ---------------      ----- ------------  ---------------
   145      0.227077   9 C  py              205      0.224481  13 H  s         
   139      0.219984   9 C  s               206      0.196504  13 H  s         
   175      0.172933  11 C  px               14     -0.166194   2 C  px        
    58      0.166706   5 C  py              163     -0.165215  10 H  s         
   176      0.157835  11 C  py                1      0.156817   1 H  s         

 Vector   46  Occ=2.000000D+00  E=-5.735626D-01
              MO Center= -5.3D-01, -1.3D+00,  1.7D-01, r^2= 1.3D+01
   Bfn.  Coefficient  Atom+Function         Bfn.  Coefficient  Atom+Function  
  ----- ------------  ---------------      ----- ------------  ---------------
   343     -0.198915  21 C  s                 2      0.195064   1 H  s         
     1      0.188238   1 H  s                16      0.183874   2 C  pz        
   432     -0.174409  27 O  py               82     -0.161555   6 O  px        
   205      0.159602  13 H  s                35     -0.157794   3 H  s         

 Vector   47  Occ=2.000000D+00  E=-5.683217D-01
              MO Center= -6.9D-01, -9.4D-01,  1.4D-01, r^2= 1.1D+01
   Bfn.  Coefficient  Atom+Function         Bfn.  Coefficient  Atom+Function  
  ----- ------------  ---------------      ----- ------------  ---------------
   343      0.230049  21 C  s                 2      0.183147   1 H  s         
   367     -0.178677  22 H  s                44     -0.161021   4 H  s         
   344      0.159955  21 C  s                 1      0.156333   1 H  s         
   432      0.152648  27 O  py               14     -0.150377   2 C  px        

 Vector   48  Occ=2.000000D+00  E=-5.535416D-01
              MO Center=  4.2D-01,  1.2D+00,  3.8D-02, r^2= 1.1D+01
   Bfn.  Coefficient  Atom+Function         Bfn.  Coefficient  Atom+Function  
  ----- ------------  ---------------      ----- ------------  ---------------
   490      0.199308  30 O  px              432     -0.179954  27 O  py        
   515      0.177171  31 N  px              176      0.165597  11 C  py        
   215     -0.159866  14 H  s               214     -0.157931  14 H  s         
   467     -0.154980  29 C  pz        

 Vector   49  Occ=2.000000D+00  E=-5.461941D-01
              MO Center= -3.1D-02,  1.7D-01,  2.0D-01, r^2= 1.2D+01
   Bfn.  Coefficient  Atom+Function         Bfn.  Coefficient  Atom+Function  
  ----- ------------  ---------------      ----- ------------  ---------------
   309      0.298496  19 C  s               214     -0.188853  14 H  s         
   380     -0.186816  23 C  py              344     -0.185153  21 C  s         
   206      0.178599  13 H  s               400     -0.179377  24 H  s         
   176      0.175549  11 C  py              379     -0.170946  23 C  px        
    55     -0.163457   5 C  s               215     -0.163306  14 H  s         

 Vector   50  Occ=2.000000D+00  E=-5.414018D-01
              MO Center=  6.8D-01, -2.4D+00, -4.7D-02, r^2= 7.8D+00
   Bfn.  Coefficient  Atom+Function         Bfn.  Coefficient  Atom+Function  
  ----- ------------  ---------------      ----- ------------  ---------------
   196     -0.227435  12 H  s               177      0.225811  11 C  pz        
   206      0.220454  13 H  s                14      0.198198   2 C  px        
   108      0.197961   7 N  py               13      0.185031   2 C  s         
   197     -0.180991  12 H  s               174     -0.161696  11 C  s         
   205      0.159816  13 H  s                 1     -0.157034   1 H  s         

 Vector   51  Occ=2.000000D+00  E=-5.378560D-01
              MO Center= -5.5D-01,  3.5D-01,  2.2D-01, r^2= 1.0D+01
   Bfn.  Coefficient  Atom+Function         Bfn.  Coefficient  Atom+Function  
  ----- ------------  ---------------      ----- ------------  ---------------
   380     -0.231335  23 C  py              309      0.221111  19 C  s         
   418      0.208321  26 H  s               431      0.177625  27 O  px        
   401     -0.170563  24 H  s               419      0.165453  26 H  s         
    56      0.164138   5 C  s               400     -0.159460  24 H  s         

 Vector   52  Occ=2.000000D+00  E=-5.250669D-01
              MO Center= -2.3D-01, -4.0D-01,  2.8D-01, r^2= 1.0D+01
   Bfn.  Coefficient  Atom+Function         Bfn.  Coefficient  Atom+Function  
  ----- ------------  ---------------      ----- ------------  ---------------
   418     -0.213823  26 H  s               410      0.209012  25 H  s         
   141      0.198794   9 C  px              419     -0.198798  26 H  s         
   175     -0.197786  11 C  px              379     -0.182999  23 C  px        
   409      0.176836  25 H  s               174     -0.152877  11 C  s         

 Vector   53  Occ=2.000000D+00  E=-5.198264D-01
              MO Center= -7.4D-01, -2.4D-01,  5.7D-02, r^2= 1.0D+01
   Bfn.  Coefficient  Atom+Function         Bfn.  Coefficient  Atom+Function  
  ----- ------------  ---------------      ----- ------------  ---------------
   410      0.224745  25 H  s               409      0.203818  25 H  s         
   379     -0.198406  23 C  px              343      0.183716  21 C  s         
   431      0.165083  27 O  px              463      0.163815  29 C  s         

 Vector   54  Occ=2.000000D+00  E=-5.079810D-01
              MO Center=  9.9D-02, -1.5D+00,  2.4D-02, r^2= 8.3D+00
   Bfn.  Coefficient  Atom+Function         Bfn.  Coefficient  Atom+Function  
  ----- ------------  ---------------      ----- ------------  ---------------
   143     -0.197345   9 C  pz              162     -0.196058  10 H  s         
   178     -0.196695  11 C  px              139     -0.190878   9 C  s         
    84      0.185158   6 O  pz              309      0.182155  19 C  s         
   343     -0.174158  21 C  s               377      0.172960  23 C  s         
    56      0.160467   5 C  s               163     -0.160888  10 H  s         

 Vector   55  Occ=2.000000D+00  E=-4.881126D-01
              MO Center= -1.1D+00,  2.0D+00, -1.0D-01, r^2= 4.3D+00
   Bfn.  Coefficient  Atom+Function         Bfn.  Coefficient  Atom+Function  
  ----- ------------  ---------------      ----- ------------  ---------------
   366      0.278765  22 H  s               463      0.254122  29 C  s         
   367      0.252407  22 H  s               432      0.253600  27 O  py        
   378      0.240474  23 C  s               346     -0.231353  21 C  py        
   384      0.208925  23 C  pz              491     -0.208780  30 O  py        
   347     -0.197231  21 C  pz              400      0.196850  24 H  s         

 Vector   56  Occ=2.000000D+00  E=-4.659090D-01
              MO Center= -9.2D-01,  1.6D+00, -6.3D-01, r^2= 5.0D+00
   Bfn.  Coefficient  Atom+Function         Bfn.  Coefficient  Atom+Function  
  ----- ------------  ---------------      ----- ------------  ---------------
   431      0.357312  27 O  px              434      0.297277  27 O  px        
   252     -0.218966  16 O  px              311      0.208520  19 C  px        
   345     -0.188496  21 C  px              333      0.187340  20 H  s         
   381     -0.179425  23 C  pz              255     -0.170663  16 O  px        
   309     -0.168201  19 C  s         

 Vector   57  Occ=2.000000D+00  E=-4.332529D-01
              MO Center=  3.0D-01, -6.8D-01, -4.7D-01, r^2= 6.3D+00
   Bfn.  Coefficient  Atom+Function         Bfn.  Coefficient  Atom+Function  
  ----- ------------  ---------------      ----- ------------  ---------------
   253      0.423351  16 O  py              256      0.334440  16 O  py        
   491     -0.185706  30 O  py              344      0.183621  21 C  s         
   109     -0.177114   7 N  pz               84      0.170138   6 O  pz        

 Vector   58  Occ=2.000000D+00  E=-4.266049D-01
              MO Center=  8.7D-01,  1.9D+00,  5.6D-01, r^2= 5.5D+00
   Bfn.  Coefficient  Atom+Function         Bfn.  Coefficient  Atom+Function  
  ----- ------------  ---------------      ----- ------------  ---------------
   491     -0.447083  30 O  py              309      0.412314  19 C  s         
   494     -0.362629  30 O  py              463     -0.265647  29 C  s         
   343     -0.255945  21 C  s               139     -0.254332   9 C  s         
   464     -0.244158  29 C  s               469      0.238727  29 C  py        
   253     -0.203414  16 O  py              483     -0.203601  29 C  dyy       

 Vector   59  Occ=2.000000D+00  E=-4.224630D-01
              MO Center= -1.1D+00, -2.6D+00,  8.0D-01, r^2= 2.5D+00
   Bfn.  Coefficient  Atom+Function         Bfn.  Coefficient  Atom+Function  
  ----- ------------  ---------------      ----- ------------  ---------------
    82      0.451475   6 O  px               85      0.364184   6 O  px        
    13     -0.318130   2 C  s                83      0.300720   6 O  py        
    86      0.232503   6 O  py               18      0.212085   2 C  py        
    15      0.194113   2 C  py              105     -0.179267   7 N  s         
    63     -0.164232   5 C  px               56      0.161390   5 C  s         

 Vector   60  Occ=2.000000D+00  E=-4.153333D-01
              MO Center=  8.5D-01,  3.3D+00,  5.9D-01, r^2= 2.6D+00
   Bfn.  Coefficient  Atom+Function         Bfn.  Coefficient  Atom+Function  
  ----- ------------  ---------------      ----- ------------  ---------------
   515      0.337591  31 N  px              490     -0.302834  30 O  px        
   518      0.283078  31 N  px              517     -0.248104  31 N  pz        
   493     -0.240331  30 O  px              492      0.233895  30 O  pz        
   520     -0.220068  31 N  pz              309     -0.212196  19 C  s         
   333      0.188860  20 H  s               495      0.180483  30 O  pz        

 Vector   61  Occ=2.000000D+00  E=-3.984937D-01
              MO Center=  1.6D-01, -1.8D+00, -5.3D-02, r^2= 4.7D+00
   Bfn.  Coefficient  Atom+Function         Bfn.  Coefficient  Atom+Function  
  ----- ------------  ---------------      ----- ------------  ---------------
   109      0.283538   7 N  pz              112      0.257093   7 N  pz        
   253      0.247269  16 O  py               84     -0.219016   6 O  pz        
   256      0.212673  16 O  py              231     -0.180278  15 C  py        
   108     -0.178685   7 N  py               87     -0.173064   6 O  pz        
   111     -0.168503   7 N  py              317      0.160390  19 C  px        

 Vector   62  Occ=2.000000D+00  E=-3.887026D-01
              MO Center=  2.8D-01,  1.0D-01, -4.1D-01, r^2= 4.6D+00
   Bfn.  Coefficient  Atom+Function         Bfn.  Coefficient  Atom+Function  
  ----- ------------  ---------------      ----- ------------  ---------------
   277      0.364642  17 N  px              280      0.336721  17 N  px        
   252     -0.311369  16 O  px              255     -0.248294  16 O  px        
   343      0.215474  21 C  s               345      0.160237  21 C  px        

 Vector   63  Occ=0.000000D+00  E= 2.922852D-02
              MO Center=  1.2D+00, -4.3D+00, -4.9D-01, r^2= 2.7D+01
   Bfn.  Coefficient  Atom+Function         Bfn.  Coefficient  Atom+Function  
  ----- ------------  ---------------      ----- ------------  ---------------
    56      2.606065   5 C  s               106     -2.466434   7 N  s         
   344      2.222491  21 C  s               216     -2.135221  14 H  s         
   173      1.992288  11 C  s               234     -1.909581  15 C  py        
   148     -1.744638   9 C  py               46     -1.645225   4 H  s         
   310      1.573407  19 C  s                12      1.525193   2 C  s         

 Vector   64  Occ=0.000000D+00  E= 3.380976D-02
              MO Center= -2.5D-01,  3.6D+00, -1.4D+00, r^2= 3.2D+01
   Bfn.  Coefficient  Atom+Function         Bfn.  Coefficient  Atom+Function  
  ----- ------------  ---------------      ----- ------------  ---------------
   378      3.627771  23 C  s               514     -3.418567  31 N  s         
   234      2.475455  15 C  py              353     -2.366013  21 C  pz        
   464      2.332472  29 C  s               472      2.234278  29 C  py        
   318      2.129726  19 C  py              547     -1.703114  33 H  s         
   454     -1.417788  28 H  s               430     -1.396940  27 O  s         

 Vector   65  Occ=0.000000D+00  E= 4.072564D-02
              MO Center=  1.1D-01, -2.4D+00, -4.0D-01, r^2= 4.0D+01
   Bfn.  Coefficient  Atom+Function         Bfn.  Coefficient  Atom+Function  
  ----- ------------  ---------------      ----- ------------  ---------------
   147      4.713925   9 C  px               64      3.822946   5 C  py        
    63      3.623242   5 C  px              174     -2.421841  11 C  s         
    12     -2.310739   2 C  s               216     -1.953048  14 H  s         
    37      1.867960   3 H  s               207     -1.787453  13 H  s         
    13      1.775210   2 C  s               276      1.593431  17 N  s         

 Vector   66  Occ=0.000000D+00  E= 4.581145D-02
              MO Center=  9.3D-02,  1.3D+00, -7.6D-01, r^2= 4.4D+01
   Bfn.  Coefficient  Atom+Function         Bfn.  Coefficient  Atom+Function  
  ----- ------------  ---------------      ----- ------------  ---------------
   378      4.012917  23 C  s               344     -3.391878  21 C  s         
   147      3.196244   9 C  px              276      2.923373  17 N  s         
   353     -2.899780  21 C  pz              472     -2.871500  29 C  py        
   514      2.497475  31 N  s               368     -2.308921  22 H  s         
    13      2.296135   2 C  s                64      2.205894   5 C  py        

 Vector   67  Occ=0.000000D+00  E= 4.915612D-02
              MO Center= -2.7D-02, -1.3D+00,  1.9D-01, r^2= 4.0D+01
   Bfn.  Coefficient  Atom+Function         Bfn.  Coefficient  Atom+Function  
  ----- ------------  ---------------      ----- ------------  ---------------
   464     -3.255628  29 C  s               164      3.129295  10 H  s         
    56     -2.078814   5 C  s               198     -1.988864  12 H  s         
   317      1.987357  19 C  px               13      1.950889   2 C  s         
   411      1.910670  25 H  s               344      1.880910  21 C  s         
     3      1.784249   1 H  s               334     -1.771063  20 H  s         

 Vector   68  Occ=0.000000D+00  E= 5.351944D-02
              MO Center=  1.2D-01, -1.3D+00, -7.6D-01, r^2= 4.3D+01
   Bfn.  Coefficient  Atom+Function         Bfn.  Coefficient  Atom+Function  
  ----- ------------  ---------------      ----- ------------  ---------------
   106      2.562286   7 N  s               207     -2.571796  13 H  s         
     3     -2.236406   1 H  s               216      2.179610  14 H  s         
    46      2.012412   4 H  s                56     -1.996797   5 C  s         
   130      1.943189   8 H  s                37     -1.806048   3 H  s         
   174      1.738156  11 C  s               454      1.696776  28 H  s         

 Vector   69  Occ=0.000000D+00  E= 5.573566D-02
              MO Center= -1.2D+00, -2.1D-02, -4.3D-02, r^2= 4.4D+01
   Bfn.  Coefficient  Atom+Function         Bfn.  Coefficient  Atom+Function  
  ----- ------------  ---------------      ----- ------------  ---------------
   334      4.144340  20 H  s               464      3.797633  29 C  s         
    13     -3.367725   2 C  s               411     -2.926448  25 H  s         
   234     -2.811302  15 C  py              318     -2.775898  19 C  py        
   106     -2.445381   7 N  s               402     -2.237368  24 H  s         
   377      2.142091  23 C  s               310      2.077841  19 C  s         

 Vector   70  Occ=0.000000D+00  E= 6.442570D-02
              MO Center= -6.4D-01, -1.8D+00, -2.0D-01, r^2= 3.9D+01
   Bfn.  Coefficient  Atom+Function         Bfn.  Coefficient  Atom+Function  
  ----- ------------  ---------------      ----- ------------  ---------------
   164      3.615692  10 H  s                37      3.375120   3 H  s         
   368      2.948320  22 H  s               411     -2.387850  25 H  s         
    46     -2.374969   4 H  s                13     -2.140166   2 C  s         
    63     -2.124609   5 C  px                3     -2.079345   1 H  s         
   198     -2.002530  12 H  s               334     -1.890932  20 H  s         

 Vector   71  Occ=0.000000D+00  E= 6.677549D-02
              MO Center=  3.1D-01, -8.8D-01,  8.8D-01, r^2= 4.2D+01
   Bfn.  Coefficient  Atom+Function         Bfn.  Coefficient  Atom+Function  
  ----- ------------  ---------------      ----- ------------  ---------------
    56      4.147350   5 C  s               216      3.914437  14 H  s         
   378      3.668000  23 C  s               334     -3.488083  20 H  s         
   164     -3.321454  10 H  s               344     -3.271375  21 C  s         
    63      3.027870   5 C  px                3      2.916860   1 H  s         
   319     -2.827353  19 C  pz              148      2.655256   9 C  py        

 Vector   72  Occ=0.000000D+00  E= 7.214454D-02
              MO Center=  6.4D-01, -1.7D+00,  4.2D-01, r^2= 4.1D+01
   Bfn.  Coefficient  Atom+Function         Bfn.  Coefficient  Atom+Function  
  ----- ------------  ---------------      ----- ------------  ---------------
   164      5.917088  10 H  s               207     -4.768744  13 H  s         
   234      4.323418  15 C  py               56      3.742674   5 C  s         
   149     -3.570180   9 C  pz                3      3.288561   1 H  s         
   198      3.270923  12 H  s               300     -3.230344  18 H  s         
    46     -3.157845   4 H  s               276     -2.864111  17 N  s         

 Vector   73  Occ=0.000000D+00  E= 7.409985D-02
              MO Center= -4.0D-01,  2.0D+00, -9.3D-01, r^2= 4.1D+01
   Bfn.  Coefficient  Atom+Function         Bfn.  Coefficient  Atom+Function  
  ----- ------------  ---------------      ----- ------------  ---------------
   464      5.702642  29 C  s               368     -5.547479  22 H  s         
   344     -5.082094  21 C  s               538      4.178827  32 H  s         
    56      4.153760   5 C  s                13     -3.878123   2 C  s         
    37      2.805918   3 H  s               547     -2.782473  33 H  s         
   334     -2.678173  20 H  s               352     -2.601246  21 C  py        

 Vector   74  Occ=0.000000D+00  E= 7.736966D-02
              MO Center= -5.8D-01,  6.3D-01, -1.0D+00, r^2= 4.2D+01
   Bfn.  Coefficient  Atom+Function         Bfn.  Coefficient  Atom+Function  
  ----- ------------  ---------------      ----- ------------  ---------------
   411     -4.717517  25 H  s                56      4.354085   5 C  s         
   334     -4.225731  20 H  s               464      4.128588  29 C  s         
   198      4.067701  12 H  s               234      3.445052  15 C  py        
   402      3.304383  24 H  s               454      2.829967  28 H  s         
   344     -2.442565  21 C  s                13     -2.331306   2 C  s         

 Vector   75  Occ=0.000000D+00  E= 8.106508D-02
              MO Center=  3.8D-01,  2.9D-01,  1.2D-01, r^2= 4.3D+01
   Bfn.  Coefficient  Atom+Function         Bfn.  Coefficient  Atom+Function  
  ----- ------------  ---------------      ----- ------------  ---------------
   334      6.069673  20 H  s               402      5.208130  24 H  s         
   216      4.910751  14 H  s               378     -4.168398  23 C  s         
   319      4.127225  19 C  pz              411     -3.194909  25 H  s         
    56      2.842492   5 C  s               164     -2.700334  10 H  s         
   538     -2.377941  32 H  s               207     -2.295179  13 H  s         

 Vector   76  Occ=0.000000D+00  E= 8.899744D-02
              MO Center=  5.5D-02, -2.1D+00,  2.6D-01, r^2= 3.7D+01
   Bfn.  Coefficient  Atom+Function         Bfn.  Coefficient  Atom+Function  
  ----- ------------  ---------------      ----- ------------  ---------------
   164     -5.730480  10 H  s               130      5.215627   8 H  s         
   198     -5.228180  12 H  s               420      4.314293  26 H  s         
   147      4.291607   9 C  px              174     -3.751766  11 C  s         
   368     -3.298129  22 H  s               276      3.247599  17 N  s         
     3      3.064577   1 H  s               300      3.041360  18 H  s         

 Vector   77  Occ=0.000000D+00  E= 9.744647D-02
              MO Center= -1.2D+00, -5.3D-01,  1.9D+00, r^2= 3.4D+01
   Bfn.  Coefficient  Atom+Function         Bfn.  Coefficient  Atom+Function  
  ----- ------------  ---------------      ----- ------------  ---------------
   420      9.121244  26 H  s               344      6.384321  21 C  s         
   402     -5.647902  24 H  s               378     -5.029409  23 C  s         
   174     -3.905825  11 C  s               386      3.615475  23 C  py        
     3     -3.596433   1 H  s               140      3.373941   9 C  s         
   234     -2.960619  15 C  py               13     -2.861097   2 C  s         

 Vector   78  Occ=0.000000D+00  E= 9.820526D-02
              MO Center= -1.4D+00, -1.6D-01, -5.2D-01, r^2= 3.8D+01
   Bfn.  Coefficient  Atom+Function         Bfn.  Coefficient  Atom+Function  
  ----- ------------  ---------------      ----- ------------  ---------------
    56      9.128023   5 C  s               368     -9.157510  22 H  s         
   464      6.282368  29 C  s                13     -5.202553   2 C  s         
   411      4.580588  25 H  s               207     -3.864303  13 H  s         
   317     -3.325134  19 C  px              351     -3.200215  21 C  px        
   402     -3.112295  24 H  s               352     -3.056773  21 C  py        

 Vector   79  Occ=0.000000D+00  E= 1.073931D-01
              MO Center=  7.9D-01, -2.7D-02,  1.1D+00, r^2= 3.4D+01
   Bfn.  Coefficient  Atom+Function         Bfn.  Coefficient  Atom+Function  
  ----- ------------  ---------------      ----- ------------  ---------------
   300      9.063195  18 H  s               368      6.265593  22 H  s         
   164     -5.662502  10 H  s               174     -4.059954  11 C  s         
   207     -4.059707  13 H  s               464     -3.791677  29 C  s         
    56      3.667697   5 C  s               472      3.601894  29 C  py        
   147      3.288874   9 C  px              420     -3.240906  26 H  s         

 Vector   80  Occ=0.000000D+00  E= 1.181149D-01
              MO Center=  1.9D-01, -6.1D-01, -2.1D-01, r^2= 3.9D+01
   Bfn.  Coefficient  Atom+Function         Bfn.  Coefficient  Atom+Function  
  ----- ------------  ---------------      ----- ------------  ---------------
   464     21.918889  29 C  s                56     19.594254   5 C  s         
    13    -17.653390   2 C  s               344    -15.250249  21 C  s         
    63     -6.902609   5 C  px              318     -6.917879  19 C  py        
   174     -5.967347  11 C  s                64     -5.800927   5 C  py        
   317     -5.817341  19 C  px               21     -5.558318   2 C  py        

 Vector   81  Occ=0.000000D+00  E= 1.312916D-01
              MO Center=  4.9D-01, -3.4D-01, -3.9D-01, r^2= 3.4D+01
   Bfn.  Coefficient  Atom+Function         Bfn.  Coefficient  Atom+Function  
  ----- ------------  ---------------      ----- ------------  ---------------
    56     15.338557   5 C  s                13    -12.251685   2 C  s         
   464     10.776559  29 C  s               514     -8.296520  31 N  s         
   276     -7.930085  17 N  s               234      7.014636  15 C  py        
   148     -5.831947   9 C  py              226      5.671182  15 C  s         
    64     -4.925359   5 C  py              378     -4.782601  23 C  s         

 Vector   82  Occ=0.000000D+00  E= 1.381556D-01
              MO Center=  1.3D+00,  1.1D+00, -3.9D-01, r^2= 2.9D+01
   Bfn.  Coefficient  Atom+Function         Bfn.  Coefficient  Atom+Function  
  ----- ------------  ---------------      ----- ------------  ---------------
   514     -6.213153  31 N  s               378      6.173727  23 C  s         
   472      5.449669  29 C  py              164      5.399055  10 H  s         
   318      4.709076  19 C  py              106      3.799731   7 N  s         
   353     -3.767943  21 C  pz               56     -3.593741   5 C  s         
   149     -3.283302   9 C  pz              147     -3.234454   9 C  px        

 Vector   83  Occ=0.000000D+00  E= 1.400284D-01
              MO Center= -7.5D-01,  8.4D-01, -7.7D-01, r^2= 3.1D+01
   Bfn.  Coefficient  Atom+Function         Bfn.  Coefficient  Atom+Function  
  ----- ------------  ---------------      ----- ------------  ---------------
   378     22.529348  23 C  s               344    -13.444397  21 C  s         
   353    -12.638996  21 C  pz              276      9.157852  17 N  s         
   368     -8.887414  22 H  s                13      8.251119   2 C  s         
   235     -7.168226  15 C  pz               64      6.702298   5 C  py        
   226     -6.629181  15 C  s               310     -6.641355  19 C  s         

 Vector   84  Occ=0.000000D+00  E= 1.419316D-01
              MO Center=  2.7D+00, -2.7D+00, -8.6D-02, r^2= 2.4D+01
   Bfn.  Coefficient  Atom+Function         Bfn.  Coefficient  Atom+Function  
  ----- ------------  ---------------      ----- ------------  ---------------
   174    -15.578599  11 C  s               147     14.405364   9 C  px        
    56     11.894373   5 C  s               344     10.886902  21 C  s         
    63      8.229652   5 C  px               13      8.093961   2 C  s         
   181      7.600597  11 C  px               64      6.627906   5 C  py        
   234     -6.261879  15 C  py              464     -5.941843  29 C  s         

 Vector   85  Occ=0.000000D+00  E= 1.444086D-01
              MO Center= -2.0D-01, -3.6D-01, -1.2D-01, r^2= 3.3D+01
   Bfn.  Coefficient  Atom+Function         Bfn.  Coefficient  Atom+Function  
  ----- ------------  ---------------      ----- ------------  ---------------
    63      8.804712   5 C  px               13      8.359556   2 C  s         
    64      7.306413   5 C  py              378      6.127012  23 C  s         
   148      5.826481   9 C  py              234      5.418461  15 C  py        
   318      5.217190  19 C  py              140     -5.031639   9 C  s         
   147      4.709678   9 C  px              353     -4.314089  21 C  pz        

 Vector   86  Occ=0.000000D+00  E= 1.470106D-01
              MO Center=  3.7D-01, -9.3D-01,  3.1D-01, r^2= 3.3D+01
   Bfn.  Coefficient  Atom+Function         Bfn.  Coefficient  Atom+Function  
  ----- ------------  ---------------      ----- ------------  ---------------
   106      9.353268   7 N  s               148      6.134489   9 C  py        
   310     -6.162411  19 C  s               344     -6.068077  21 C  s         
   226     -5.938721  15 C  s               174     -4.393753  11 C  s         
   147      3.904987   9 C  px               56     -3.880595   5 C  s         
   514      3.768606  31 N  s               464     -3.164695  29 C  s         

 Vector   87  Occ=0.000000D+00  E= 1.503079D-01
              MO Center=  1.9D-01,  1.0D+00,  6.3D-01, r^2= 3.2D+01
   Bfn.  Coefficient  Atom+Function         Bfn.  Coefficient  Atom+Function  
  ----- ------------  ---------------      ----- ------------  ---------------
   344     16.228879  21 C  s               317     13.128491  19 C  px        
   174     -9.589900  11 C  s               464     -8.409852  29 C  s         
   147      6.940842   9 C  px              234     -6.264832  15 C  py        
   472      5.935444  29 C  py               56     -5.153286   5 C  s         
   351      5.029767  21 C  px              164      4.661123  10 H  s         

 Vector   88  Occ=0.000000D+00  E= 1.532561D-01
              MO Center=  3.3D-01, -1.4D+00, -8.0D-01, r^2= 3.3D+01
   Bfn.  Coefficient  Atom+Function         Bfn.  Coefficient  Atom+Function  
  ----- ------------  ---------------      ----- ------------  ---------------
[...]
   Bfn.  Coefficient  Atom+Function         Bfn.  Coefficient  Atom+Function  
  ----- ------------  ---------------      ----- ------------  ---------------
   344     11.450994  21 C  s               174     -8.593310  11 C  s         
   319      8.152582  19 C  pz              147      4.980210   9 C  px        
   464     -4.976627  29 C  s                56      4.490793   5 C  s         
   430     -4.214125  27 O  s               114      4.118187   7 N  py        
   317      4.057288  19 C  px              149     -3.786319   9 C  pz        

 Vector  155  Occ=0.000000D+00  E= 4.282307D-01
              MO Center= -9.8D-02, -2.0D-01,  1.7D-01, r^2= 2.4D+01
   Bfn.  Coefficient  Atom+Function         Bfn.  Coefficient  Atom+Function  
  ----- ------------  ---------------      ----- ------------  ---------------
    56      9.402089   5 C  s               344     -8.876144  21 C  s         
   318     -7.164234  19 C  py              317     -6.776013  19 C  px        
   464      6.714131  29 C  s               113      6.546991   7 N  px        
   148      6.240073   9 C  py              106     -5.453608   7 N  s         
   319     -5.067654  19 C  pz              284      5.021596  17 N  py        

 Vector  156  Occ=0.000000D+00  E= 4.348372D-01
              MO Center=  1.5D-01,  5.1D-01, -3.6D-02, r^2= 2.0D+01
   Bfn.  Coefficient  Atom+Function         Bfn.  Coefficient  Atom+Function  
  ----- ------------  ---------------      ----- ------------  ---------------
   276     16.230682  17 N  s               344    -12.594313  21 C  s         
   233     10.703689  15 C  px              234     -8.406314  15 C  py        
   514      8.426422  31 N  s               378      7.603328  23 C  s         
   352     -7.294512  21 C  py              319     -6.798754  19 C  pz        
   226     -6.629433  15 C  s               377     -5.722475  23 C  s         

 Vector  157  Occ=0.000000D+00  E= 4.368786D-01
              MO Center= -1.7D-01, -5.1D-01, -4.1D-01, r^2= 2.1D+01
   Bfn.  Coefficient  Atom+Function         Bfn.  Coefficient  Atom+Function  
  ----- ------------  ---------------      ----- ------------  ---------------
   344     15.001225  21 C  s               464    -13.211854  29 C  s         
   317      8.944499  19 C  px              276     -8.578073  17 N  s         
    12      7.955197   2 C  s               352      7.393558  21 C  py        
   351      7.195334  21 C  px              234     -6.774923  15 C  py        
   368      6.417757  22 H  s               319      6.324397  19 C  pz        

 Vector  158  Occ=0.000000D+00  E= 4.416270D-01
              MO Center= -7.9D-01, -2.7D+00, -2.9D-01, r^2= 2.0D+01
   Bfn.  Coefficient  Atom+Function         Bfn.  Coefficient  Atom+Function  
  ----- ------------  ---------------      ----- ------------  ---------------
   344     14.350531  21 C  s               514     10.609347  31 N  s         
   464     -9.953900  29 C  s               235      7.228657  15 C  pz        
   174     -5.879540  11 C  s               276     -5.863488  17 N  s         
   318     -5.788298  19 C  py              148     -5.518186   9 C  py        
   378     -5.152624  23 C  s                45     -4.873654   4 H  s         

 Vector  159  Occ=0.000000D+00  E= 4.466686D-01
              MO Center= -6.9D-01, -5.8D-01,  2.6D-01, r^2= 2.0D+01
   Bfn.  Coefficient  Atom+Function         Bfn.  Coefficient  Atom+Function  
  ----- ------------  ---------------      ----- ------------  ---------------
    56      8.709203   5 C  s                13     -6.572781   2 C  s         
   464      5.952491  29 C  s               106     -5.787205   7 N  s         
   378     -4.882084  23 C  s               352      4.776257  21 C  py        
   235      4.533504  15 C  pz              333     -4.260974  20 H  s         
   251     -3.997995  16 O  s               310      3.926219  19 C  s         

 Vector  160  Occ=0.000000D+00  E= 4.537656D-01
              MO Center= -6.5D-01, -1.7D+00,  4.2D-01, r^2= 2.2D+01
   Bfn.  Coefficient  Atom+Function         Bfn.  Coefficient  Atom+Function  
  ----- ------------  ---------------      ----- ------------  ---------------
    56     15.279454   5 C  s               464     14.717627  29 C  s         
   344     -9.951191  21 C  s               514     -9.864244  31 N  s         
   174     -8.853404  11 C  s                13     -8.777526   2 C  s         
   317     -7.473038  19 C  px              233      6.865704  15 C  px        
   173     -6.054046  11 C  s               309     -5.903951  19 C  s         

 Vector  161  Occ=0.000000D+00  E= 4.563836D-01
              MO Center= -2.7D-01, -7.2D-01, -1.0D-02, r^2= 2.0D+01
   Bfn.  Coefficient  Atom+Function         Bfn.  Coefficient  Atom+Function  
  ----- ------------  ---------------      ----- ------------  ---------------
    13     14.064275   2 C  s               174     12.278060  11 C  s         
    56    -11.105634   5 C  s               378      8.454552  23 C  s         
   464     -8.225575  29 C  s               344     -6.457944  21 C  s         
   514      6.021205  31 N  s                12      5.872519   2 C  s         
   234      5.273706  15 C  py              309     -5.105626  19 C  s         

 Vector  162  Occ=0.000000D+00  E= 4.628188D-01
              MO Center=  6.8D-01, -6.6D-02, -1.4D-01, r^2= 2.0D+01
   Bfn.  Coefficient  Atom+Function         Bfn.  Coefficient  Atom+Function  
  ----- ------------  ---------------      ----- ------------  ---------------
    56     12.411778   5 C  s               464     11.408510  29 C  s         
   344    -10.725022  21 C  s               285     -7.561414  17 N  pz        
   174     -5.997828  11 C  s               197      5.818379  12 H  s         
   226     -5.686286  15 C  s               317     -4.945195  19 C  px        
   148      4.917337   9 C  py              113      4.785897   7 N  px        

 Vector  163  Occ=0.000000D+00  E= 4.660690D-01
              MO Center= -1.2D-01,  5.5D-01,  3.7D-01, r^2= 1.9D+01
   Bfn.  Coefficient  Atom+Function         Bfn.  Coefficient  Atom+Function  
  ----- ------------  ---------------      ----- ------------  ---------------
   378     12.530267  23 C  s                56      8.574906   5 C  s         
   344     -7.998525  21 C  s               419     -8.006238  26 H  s         
   174     -7.261822  11 C  s               514      7.215465  31 N  s         
   377      6.677690  23 C  s               139     -5.708194   9 C  s         
   113      5.404560   7 N  px              410     -5.295789  25 H  s         

 Vector  164  Occ=0.000000D+00  E= 4.737702D-01
              MO Center= -6.5D-01,  5.6D-01,  2.4D-01, r^2= 2.0D+01
   Bfn.  Coefficient  Atom+Function         Bfn.  Coefficient  Atom+Function  
  ----- ------------  ---------------      ----- ------------  ---------------
   378     18.097598  23 C  s               174    -11.489209  11 C  s         
   234    -11.149707  15 C  py              318    -11.191888  19 C  py        
   317     10.553668  19 C  px              401    -10.446212  24 H  s         
   173     -9.483264  11 C  s               377      9.260671  23 C  s         
   344      8.341591  21 C  s               226     -7.088592  15 C  s         

 Vector  165  Occ=0.000000D+00  E= 4.752393D-01
              MO Center= -2.6D-01,  6.6D-01,  3.1D-01, r^2= 2.0D+01
   Bfn.  Coefficient  Atom+Function         Bfn.  Coefficient  Atom+Function  
  ----- ------------  ---------------      ----- ------------  ---------------
   174     21.383781  11 C  s                56    -15.798414   5 C  s         
   378     15.540151  23 C  s               344    -13.232903  21 C  s         
   147    -11.615924   9 C  px              173      9.422459  11 C  s         
    12      8.088942   2 C  s               106      7.715135   7 N  s         
   197     -7.187193  12 H  s               401     -7.222457  24 H  s         

 Vector  166  Occ=0.000000D+00  E= 4.808848D-01
              MO Center=  4.2D-01,  2.9D-02,  1.3D-01, r^2= 2.1D+01
   Bfn.  Coefficient  Atom+Function         Bfn.  Coefficient  Atom+Function  
  ----- ------------  ---------------      ----- ------------  ---------------
   344     23.828884  21 C  s               378    -16.951645  23 C  s         
   276    -16.793559  17 N  s               226     14.185498  15 C  s         
    13    -12.743718   2 C  s               310     10.715650  19 C  s         
   147     -9.904107   9 C  px              235      9.656860  15 C  pz        
   174      8.295516  11 C  s               514     -8.063177  31 N  s         

 Vector  167  Occ=0.000000D+00  E= 4.838619D-01
              MO Center=  4.9D-02, -4.1D-01, -9.4D-02, r^2= 2.1D+01
   Bfn.  Coefficient  Atom+Function         Bfn.  Coefficient  Atom+Function  
  ----- ------------  ---------------      ----- ------------  ---------------
   464    -24.294775  29 C  s               344     23.021394  21 C  s         
   174    -12.697796  11 C  s                12     10.752809   2 C  s         
   514      9.130276  31 N  s               173     -9.048607  11 C  s         
   317      9.039808  19 C  px               56     -8.304971   5 C  s         
    13      7.833568   2 C  s               234     -7.267446  15 C  py        

 Vector  168  Occ=0.000000D+00  E= 4.855999D-01
              MO Center=  8.4D-01, -2.7D-01, -2.7D-01, r^2= 2.0D+01
   Bfn.  Coefficient  Atom+Function         Bfn.  Coefficient  Atom+Function  
  ----- ------------  ---------------      ----- ------------  ---------------
   174     10.952321  11 C  s               284      9.418816  17 N  py        
    56     -7.013397   5 C  s               234     -6.681968  15 C  py        
   148      6.627785   9 C  py              197     -6.426601  12 H  s         
   233     -6.100725  15 C  px              464     -5.929445  29 C  s         
   410      5.442663  25 H  s                12      5.257668   2 C  s         

 Vector  169  Occ=0.000000D+00  E= 4.887493D-01
              MO Center= -5.5D-01,  5.1D-01, -9.1D-02, r^2= 2.0D+01
   Bfn.  Coefficient  Atom+Function         Bfn.  Coefficient  Atom+Function  
  ----- ------------  ---------------      ----- ------------  ---------------
    56     21.429606   5 C  s               174    -18.848433  11 C  s         
   464     17.548541  29 C  s                13    -17.186581   2 C  s         
   234    -15.364599  15 C  py              233     10.360774  15 C  px        
   514     -8.732052  31 N  s               318     -8.227161  19 C  py        
   106     -7.958323   7 N  s               310      7.854030  19 C  s         

 Vector  170  Occ=0.000000D+00  E= 4.960385D-01
              MO Center= -3.4D-01, -4.9D-02,  1.1D-01, r^2= 2.3D+01
   Bfn.  Coefficient  Atom+Function         Bfn.  Coefficient  Atom+Function  
  ----- ------------  ---------------      ----- ------------  ---------------
    13     31.906119   2 C  s               464    -22.067587  29 C  s         
    56    -21.667403   5 C  s               318     17.992582  19 C  py        
   276     12.061101  17 N  s                64     11.441098   5 C  py        
    63     11.231063   5 C  px              378     11.216310  23 C  s         
   106     11.138577   7 N  s               140     -9.568637   9 C  s         

 Vector  171  Occ=0.000000D+00  E= 5.012157D-01
              MO Center=  2.2D-01, -8.9D-01, -1.1D-01, r^2= 2.0D+01
   Bfn.  Coefficient  Atom+Function         Bfn.  Coefficient  Atom+Function  
  ----- ------------  ---------------      ----- ------------  ---------------
   464     22.237117  29 C  s               344    -19.733496  21 C  s         
    56     16.677083   5 C  s               113     11.855080   7 N  px        
   317    -11.872596  19 C  px               12    -10.351713   2 C  s         
   114      8.805969   7 N  py              148      7.905637   9 C  py        
   197     -7.008942  12 H  s               163     -6.256285  10 H  s         


 center of mass
 --------------
 x =   0.01594450 y =   0.04942533 z =   0.00397212

 moments of inertia (a.u.)
 ------------------
        6151.911004671478          -0.000000000001          -0.000000000001
          -0.000000000001        2138.452642516129           0.000000000000
          -0.000000000001           0.000000000000        7051.742931184678

  Mulliken analysis of the total density
  --------------------------------------

    Atom       Charge   Shell Charges
 -----------   ------   -------------------------------------------------------
    1 H    1     0.98   0.76  0.23  0.01  0.03 -0.05
    2 C    6     6.30   2.01  0.66  0.25  0.13  2.07  1.05 -0.03  0.06  0.10
    3 H    1     0.84   0.76  0.10  0.00  0.03 -0.06
    4 H    1     0.84   0.76  0.10  0.00  0.03 -0.06
    5 C    6     5.05   2.01  0.68  0.09 -0.06  1.90  0.31 -0.13  0.24  0.01
    6 O    8     8.73   2.01  0.82  0.99  0.15  2.79  1.83  0.15  0.01 -0.02
    7 N    7     7.58   2.01  0.72  0.82 -0.11  2.45  1.44  0.15  0.05  0.05
    8 H    1     0.97   0.77  0.21 -0.02  0.05 -0.04
    9 C    6     6.77   2.01  0.66  0.29  0.05  2.00  1.45 -0.02  0.14  0.20
   10 H    1     1.16   0.79  0.33  0.00  0.03  0.01
   11 C    6     5.79   2.01  0.66  0.21  0.26  2.04  0.55 -0.02  0.07  0.01
   12 H    1     0.91   0.77  0.15  0.04  0.03 -0.07
   13 H    1     0.97   0.77  0.25  0.00  0.03 -0.08
   14 H    1     0.95   0.77  0.23  0.01  0.03 -0.09
   15 C    6     4.27   2.01  0.68 -0.16  0.09  1.89 -0.01 -0.02  0.23 -0.43
   16 O    8     8.89   2.01  0.82  1.04  0.19  2.79  1.88  0.16  0.01  0.00
   17 N    7     7.44   2.01  0.72  0.86 -0.19  2.45  1.44  0.03  0.05  0.08
   18 H    1     1.04   0.75  0.25  0.01  0.06 -0.02
   19 C    6     6.03   2.01  0.67  0.12 -0.04  2.01  1.19 -0.06  0.13  0.01
   20 H    1     1.15   0.78  0.33  0.00  0.03  0.01
   21 C    6     5.44   2.01  0.67 -0.05 -0.09  1.95  0.75 -0.10  0.16  0.14
   22 H    1     1.25   0.79  0.44  0.02  0.03 -0.03
   23 C    6     5.65   2.01  0.67  0.08  0.20  2.05  0.58  0.01  0.07 -0.00
   24 H    1     0.89   0.78  0.14 -0.00  0.03 -0.05
   25 H    1     1.01   0.77  0.28  0.00  0.03 -0.08
   26 H    1     0.88   0.77  0.12  0.02  0.03 -0.06
   27 O    8     8.79   2.01  0.80  0.98  0.09  2.83  1.93  0.17  0.01 -0.03
   28 H    1     0.86   0.73  0.02 -0.01  0.08  0.03
   29 C    6     4.65   2.01  0.68  0.05  0.12  1.89 -0.17 -0.01  0.23 -0.14
   30 O    8     8.82   2.01  0.82  1.03  0.17  2.79  1.85  0.14  0.01 -0.00
   31 N    7     7.19   2.01  0.72  0.82 -0.20  2.47  1.26  0.09  0.04 -0.02
   32 H    1     0.92   0.74  0.18 -0.02  0.06 -0.04
   33 H    1     0.99   0.75  0.22 -0.01  0.05 -0.02

       Multipole analysis of the density wrt the origin
       ------------------------------------------------

     L   x y z        total         open         nuclear
     -   - - -        -----         ----         -------
     0   0 0 0     -0.000000      0.000000    124.000000

     1   1 0 0      0.327581      0.000000     -0.000000
     1   0 1 0     -0.612144      0.000000     -0.000000
     1   0 0 1     -0.961828      0.000000      0.000000

     2   2 0 0    -72.312571      0.000000    876.049768
     2   1 1 0     -4.347234      0.000000    -23.628640
     2   1 0 1      1.808082      0.000000     -5.866923
     2   0 2 0    -52.231834      0.000000   3059.840295
     2   0 1 1     -3.413508      0.000000      3.094692
     2   0 0 2    -77.908739      0.000000    345.069358


 Task  times  cpu:     4082.3s     wall:     4323.2s


                                NWChem Input Module
                                -------------------


 Summary of allocated global arrays
-----------------------------------
  No active global arrays


MA_summarize_allocated_blocks: starting scan ...
MA_summarize_allocated_blocks: scan completed: 0 heap blocks, 0 stack blocks
MA usage statistics:

	allocation statistics:
					      heap	     stack
					      ----	     -----
	current number of blocks	         0	         0
	maximum number of blocks	        16	        14
	current total bytes		         0	         0
	maximum total bytes		    116920	  26223272
	maximum total K-bytes		       117	     26224
	maximum total M-bytes		         1	        27


                                     CITATION
                                     --------
                Please cite the following reference when publishing
                           results obtained with NWChem:

          E. Apra, E. J. Bylaska, W. A. de Jong, N. Govind, K. Kowalski,
       T. P. Straatsma, M. Valiev, H. J. J. van Dam, Y. Alexeev, J. Anchell,
       V. Anisimov, F. W. Aquino, R. Atta-Fynn, J. Autschbach, N. P. Bauman,
     J. C. Becca, D. E. Bernholdt, K. Bhaskaran-Nair, S. Bogatko, P. Borowski,
         J. Boschen, J. Brabec, A. Bruner, E. Cauet, Y. Chen, G. N. Chuev,
      C. J. Cramer, J. Daily, M. J. O. Deegan, T. H. Dunning Jr., M. Dupuis,
   K. G. Dyall, G. I. Fann, S. A. Fischer, A. Fonari, H. Fruchtl, L. Gagliardi,
      J. Garza, N. Gawande, S. Ghosh, K. Glaesemann, A. W. Gotz, J. Hammond,
       V. Helms, E. D. Hermes, K. Hirao, S. Hirata, M. Jacquelin, L. Jensen,
   B. G. Johnson, H. Jonsson, R. A. Kendall, M. Klemm, R. Kobayashi, V. Konkov,
      S. Krishnamoorthy, M. Krishnan, Z. Lin, R. D. Lins, R. J. Littlefield,
      A. J. Logsdail, K. Lopata, W. Ma, A. V. Marenich, J. Martin del Campo,
   D. Mejia-Rodriguez, J. E. Moore, J. M. Mullin, T. Nakajima, D. R. Nascimento,
    J. A. Nichols, P. J. Nichols, J. Nieplocha, A. Otero-de-la-Roza, B. Palmer,
    A. Panyala, T. Pirojsirikul, B. Peng, R. Peverati, J. Pittner, L. Pollack,
   R. M. Richard, P. Sadayappan, G. C. Schatz, W. A. Shelton, D. W. Silverstein,
   D. M. A. Smith, T. A. Soares, D. Song, M. Swart, H. L. Taylor, G. S. Thomas,
            V. Tipparaju, D. G. Truhlar, K. Tsemekhman, T. Van Voorhis,
      A. Vazquez-Mayagoitia, P. Verma, O. Villa, A. Vishnu, K. D. Vogiatzis,
        D. Wang, J. H. Weare, M. J. Williamson, T. L. Windus, K. Wolinski,
        A. T. Wong, Q. Wu, C. Yang, Q. Yu, M. Zacharias, Z. Zhang, Y. Zhao,
                                and R. J. Harrison
                        "NWChem: Past, present, and future
                         J. Chem. Phys. 152, 184102 (2020)
                               doi:10.1063/5.0004997

                                      AUTHORS
                                      -------
  E. Apra, E. J. Bylaska, N. Govind, K. Kowalski, M. Valiev, D. Mejia-Rodriguez,
       A. Kunitsa, N. P. Bauman, A. Panyala, W. A. de Jong, T. P. Straatsma,
   H. J. J. van Dam, D. Wang, T. L. Windus, J. Hammond, J. Autschbach, A. Woods,
    K. Bhaskaran-Nair, J. Brabec, K. Lopata, S. A. Fischer, S. Krishnamoorthy,
     M. Jacquelin, W. Ma, M. Klemm, O. Villa, Y. Chen, V. Anisimov, F. Aquino,
     S. Hirata, M. T. Hackler, E. Hermes, L. Jensen, J. E. Moore, J. C. Becca,
      V. Konjkov, T. Risthaus, M. Malagoli, A. Marenich, A. Otero-de-la-Roza,
        J. Mullin, P. Nichols, R. Peverati, J. Pittner, Y. Zhao, P.-D. Fan,
        A. Fonari, M. J. Williamson, R. J. Harrison, J. R. Rehr, M. Dupuis,
     D. Silverstein, D. M. A. Smith, J. Nieplocha, V. Tipparaju, M. Krishnan,
     B. E. Van Kuiken, A. Vazquez-Mayagoitia, M. Swart, Q. Wu, T. Van Voorhis,
     A. A. Auer, M. Nooijen, L. D. Crosby, E. Brown, G. Cisneros, G. I. Fann,
   H. Fruchtl, J. Garza, K. Hirao, R. A. Kendall, J. A. Nichols, K. Tsemekhman,
    K. Wolinski, J. Anchell, D. E. Bernholdt, P. Borowski, T. Clark, D. Clerc,
   H. Dachsel, M. J. O. Deegan, K. Dyall, D. Elwood, E. Glendening, M. Gutowski,
   A. C. Hess, J. Jaffe, B. G. Johnson, J. Ju, R. Kobayashi, R. Kutteh, Z. Lin,
   R. Littlefield, X. Long, B. Meng, T. Nakajima, S. Niu, L. Pollack, M. Rosing,
   K. Glaesemann, G. Sandrone, M. Stave, H. Taylor, G. Thomas, J. H. van Lenthe,
                               A. T. Wong, Z. Zhang.

 Total times  cpu:     4082.4s     wall:     4323.9s
