export TMOUT=5400
export TMPDIR=/tmp
export PTMPDIR=/tmp/ptmp
 argument  1 = ALA_PRO_2.nw
                                         
                                         


             Northwest Computational Chemistry Package (NWChem) 7.2.0
             --------------------------------------------------------


                    Environmental Molecular Sciences Laboratory
                       Pacific Northwest National Laboratory
                                Richland, WA 99352

                              Copyright (c) 1994-2022
                       Pacific Northwest National Laboratory
                            Battelle Memorial Institute

             NWChem is an open-source computational chemistry package
                        distributed under the terms of the
                      Educational Community License (ECL) 2.0
             A copy of the license is included with this distribution
                              in the LICENSE.TXT file

                                  ACKNOWLEDGMENT
                                  --------------

            This software and its documentation were developed at the
            EMSL at Pacific Northwest National Laboratory, a multiprogram
            national laboratory, operated for the U.S. Department of Energy
            by Battelle under Contract Number DE-AC05-76RL01830. Support
            for this work was provided by the Department of Energy Office
            of Biological and Environmental Research, Office of Basic
            Energy Sciences, and the Office of Advanced Scientific Computing.


           Job information
           ---------------

    hostname        = nova18-41
    program         = /opt/rit/el9/20230413/app/linux-rhel9-x86_64_v3/gcc-11.2.1/nwchem-7.2.0-oxtctbuhfuzyfaoziquq6bki22grib3g/bin/nwchem
    date            = Mon Jun 30 12:10:30 2025

    compiled        = Wed_May_17_23:46:39_2023
    source          = /tmp/root/spack-stage/spack-stage-nwchem-7.2.0-oxtctbuhfuzyfaoziquq6bki22grib3g/spack-src
    nwchem branch   = 7.2.0
    nwchem revision = d0d141fd
    ga revision     = 5.8.0
    use scalapack   = T
    input           = ALA_PRO_2.nw
    prefix          = ALA_PRO_2.
    data base       = ./ALA_PRO_2.db
    status          = startup
    nproc           =        8
    time left       =     -1s



           Memory information
           ------------------

    heap     =   26214396 doubles =    200.0 Mbytes
    stack    =   26214401 doubles =    200.0 Mbytes
    global   =   52428800 doubles =    400.0 Mbytes (distinct from heap & stack)
    total    =  104857597 doubles =    800.0 Mbytes
    verify   = yes
    hardfail = no 


           Directory information
           ---------------------

  0 permanent = .
  0 scratch   = .




                                NWChem Input Module
                                -------------------



 Scaling coordinates for geometry "geometry" by  1.889725989
 (inverse scale =  0.529177249)

 C1  symmetry detected

          ------
          auto-z
          ------
  no constraints, skipping    0.0000000000000000     
  no constraints, skipping    0.0000000000000000     


                             Geometry "geometry" -> ""
                             -------------------------

 Output coordinates in angstroms (scale by  1.889725989 to convert to a.u.)

  No.       Tag          Charge          X              Y              Z
 ---- ---------------- ---------- -------------- -------------- --------------
    1 H                    1.0000    -1.31775399    -4.43885019    -1.62530302
    2 C                    6.0000    -0.63528192    -4.31426458    -0.78602995
    3 H                    1.0000     0.36431529    -4.63138212    -1.07970302
    4 H                    1.0000    -0.98187199    -4.90439470     0.05911782
    5 C                    6.0000    -0.59775842    -2.85492859    -0.39904745
    6 O                    8.0000    -1.26706093    -2.03429178    -1.01624141
    7 N                    7.0000     0.18397050    -2.52661541     0.62810899
    8 H                    1.0000     0.73680232    -3.24757853     1.05802312
    9 C                    6.0000     0.40439330    -1.14350657     1.05288388
   10 H                    1.0000    -0.57118890    -0.69925858     1.24358546
   11 C                    6.0000     1.19115090    -1.15533025     2.36918844
   12 H                    1.0000     1.33411139    -0.13394556     2.72460032
   13 H                    1.0000     0.64250786    -1.71755347     3.12470473
   14 H                    1.0000     2.16944704    -1.61371270     2.21349902
   15 C                    6.0000     1.13148479    -0.32307870    -0.04367715
   16 O                    8.0000     1.99623418    -0.87287783    -0.72732501
   17 N                    7.0000     0.84172096     0.98571590    -0.20417825
   18 C                    6.0000     1.52073856     1.81342049    -1.19353875
   19 H                    1.0000     1.42606569     1.38800344    -2.19367994
   20 H                    1.0000     2.57416176     1.90278109    -0.92622762
   21 C                    6.0000     0.85382282     3.18620377    -1.13445868
   22 H                    1.0000     0.00074482     3.21343356    -1.81427737
   23 H                    1.0000     1.55575015     3.98833566    -1.36304446
   24 C                    6.0000     0.36657413     3.25196120     0.31151908
   25 H                    1.0000    -0.44106809     3.97526622     0.43534512
   26 H                    1.0000     1.20196600     3.50742058     0.96533705
   27 C                    6.0000    -0.07896243     1.80978008     0.59181317
   28 H                    1.0000     0.05610523     1.60630543     1.65305668
   29 C                    6.0000    -1.57584382     1.62619795     0.26702905
   30 O                    8.0000    -2.41737343     2.23845611     0.91017122
   31 N                    7.0000    -1.95440935     0.80585969    -0.70376612
   32 H                    1.0000    -2.93985904     0.69406351    -0.87321385
   33 H                    1.0000    -1.28551630     0.22732421    -1.18990066

      Atomic Mass 
      ----------- 

      H                  1.007825
      C                 12.000000
      O                 15.994910
      N                 14.003070


 Effective nuclear repulsion energy (a.u.)    1211.6540329475

            Nuclear Dipole moment (a.u.) 
            ----------------------------
        X                 Y               Z
 ---------------- ---------------- ----------------
    -0.0000000000    -0.0000000000     0.0000000000



                                Z-matrix (autoz)
                                -------- 

 Units are Angstrom for bonds and degrees for angles

      Type          Name      I     J     K     L     M      Value
      ----------- --------  ----- ----- ----- ----- ----- ----------
    1 Stretch                  1     2                       1.08888
    2 Stretch                  2     3                       1.08904
    3 Stretch                  2     4                       1.08750
    4 Stretch                  2     5                       1.51024
    5 Stretch                  5     6                       1.22570
    6 Stretch                  5     7                       1.33189
    7 Stretch                  7     8                       1.00511
    8 Stretch                  7     9                       1.46356
    9 Stretch                  9    10                       1.08880
   10 Stretch                  9    11                       1.53355
   11 Stretch                  9    15                       1.55055
   12 Stretch                 11    12                       1.09086
   13 Stretch                 11    13                       1.08991
   14 Stretch                 11    14                       1.09152
   15 Stretch                 15    16                       1.23185
   16 Stretch                 15    17                       1.35006
   17 Stretch                 17    18                       1.45774
   18 Stretch                 17    27                       1.46981
   19 Stretch                 18    19                       1.09097
   20 Stretch                 18    20                       1.09048
   21 Stretch                 18    21                       1.52735
   22 Stretch                 21    22                       1.09116
   23 Stretch                 21    23                       1.09012
   24 Stretch                 21    24                       1.52728
   25 Stretch                 24    25                       1.09123
   26 Stretch                 24    26                       1.09115
   27 Stretch                 24    27                       1.53524
   28 Stretch                 27    28                       1.08898
   29 Stretch                 27    29                       1.54267
   30 Stretch                 29    30                       1.22338
   31 Stretch                 29    31                       1.32616
   32 Stretch                 31    32                       1.00614
   33 Stretch                 31    33                       1.00918
   34 Bend                     1     2     3               109.51932
   35 Bend                     1     2     4               109.70387
   36 Bend                     1     2     5               108.88271
   37 Bend                     2     5     6               120.28909
   38 Bend                     2     5     7               116.76852
   39 Bend                     3     2     4               110.12585
   40 Bend                     3     2     5               109.12733
   41 Bend                     4     2     5               109.45956
   42 Bend                     5     7     8               118.41640
   43 Bend                     5     7     9               123.03665
   44 Bend                     6     5     7               122.94220
   45 Bend                     7     9    10               107.54623
   46 Bend                     7     9    11               108.60839
   47 Bend                     7     9    15               111.43234
   48 Bend                     8     7     9               118.09219
   49 Bend                     9    11    12               109.85664
   50 Bend                     9    11    13               109.92058
   51 Bend                     9    11    14               109.91471
   52 Bend                     9    15    16               119.04586
   53 Bend                     9    15    17               119.76059
   54 Bend                    10     9    11               108.20948
   55 Bend                    10     9    15               109.15596
   56 Bend                    11     9    15               111.74826
   57 Bend                    12    11    13               108.85116
   58 Bend                    12    11    14               108.79692
   59 Bend                    13    11    14               109.47603
   60 Bend                    15    17    18               122.08363
   61 Bend                    15    17    27               127.84903
   62 Bend                    16    15    17               121.15597
   63 Bend                    17    18    19               111.12217
   64 Bend                    17    18    20               109.27690
   65 Bend                    17    18    21               106.30168
   66 Bend                    17    27    24               104.24196
   67 Bend                    17    27    28               110.20101
   68 Bend                    17    27    29               115.28150
   69 Bend                    18    17    27               109.93713
   70 Bend                    18    21    22               109.85888
   71 Bend                    18    21    23               111.84427
   72 Bend                    18    21    24               102.39349
   73 Bend                    19    18    20               109.90775
   74 Bend                    19    18    21               110.36806
   75 Bend                    20    18    21               109.79623
   76 Bend                    21    24    25               111.84467
   77 Bend                    21    24    26               109.45888
   78 Bend                    21    24    27               103.00252
   79 Bend                    22    21    23               110.75669
   80 Bend                    22    21    24               109.83801
   81 Bend                    23    21    24               111.85552
   82 Bend                    24    27    28               108.50886
   83 Bend                    24    27    29               110.79002
   84 Bend                    25    24    26               110.08803
   85 Bend                    25    24    27               112.77736
   86 Bend                    26    24    27               109.43355
   87 Bend                    27    29    30               119.81607
   88 Bend                    27    29    31               120.31248
   89 Bend                    28    27    29               107.65498
   90 Bend                    29    31    32               118.13854
   91 Bend                    29    31    33               121.20078
   92 Bend                    30    29    31               119.87128
   93 Bend                    32    31    33               120.28827
   94 Torsion                  1     2     5     6          -0.52962
   95 Torsion                  1     2     5     7         179.31647
   96 Torsion                  2     5     7     8           2.99578
   97 Torsion                  2     5     7     9         175.10161
   98 Torsion                  3     2     5     6         118.96804
   99 Torsion                  3     2     5     7         -61.18587
  100 Torsion                  4     2     5     6        -120.44859
  101 Torsion                  4     2     5     7          59.39750
  102 Torsion                  5     7     9    10          55.33750
  103 Torsion                  5     7     9    11         172.22752
  104 Torsion                  5     7     9    15         -64.25557
  105 Torsion                  6     5     7     8        -177.16257
  106 Torsion                  6     5     7     9          -5.05675
  107 Torsion                  7     9    11    12        -177.85484
  108 Torsion                  7     9    11    13         -58.10090
  109 Torsion                  7     9    11    14          62.46172
  110 Torsion                  7     9    15    16         -36.45497
  111 Torsion                  7     9    15    17         145.74857
  112 Torsion                  8     7     9    10        -132.53255
  113 Torsion                  8     7     9    11         -15.64253
  114 Torsion                  8     7     9    15         107.87438
  115 Torsion                  9    15    17    18         178.26398
  116 Torsion                  9    15    17    27           2.84303
  117 Torsion                 10     9    11    12         -61.39063
  118 Torsion                 10     9    11    13          58.36331
  119 Torsion                 10     9    11    14         178.92593
  120 Torsion                 10     9    15    16        -155.08920
  121 Torsion                 10     9    15    17          27.11434
  122 Torsion                 11     9    15    16          85.25838
  123 Torsion                 11     9    15    17         -92.53808
  124 Torsion                 12    11     9    15          58.81769
  125 Torsion                 13    11     9    15         178.57163
  126 Torsion                 14    11     9    15         -60.86575
  127 Torsion                 15    17    18    19          56.01219
  128 Torsion                 15    17    18    20         -65.44242
  129 Torsion                 15    17    18    21         176.12634
  130 Torsion                 15    17    27    24         159.98552
  131 Torsion                 15    17    27    28          43.72990
  132 Torsion                 15    17    27    29         -78.35513
  133 Torsion                 16    15    17    18           0.51511
  134 Torsion                 16    15    17    27        -174.90585
  135 Torsion                 17    18    21    22         -88.57123
  136 Torsion                 17    18    21    23         148.01075
  137 Torsion                 17    18    21    24          28.09525
  138 Torsion                 17    27    24    21          32.99884
  139 Torsion                 17    27    24    25         153.73882
  140 Torsion                 17    27    24    26         -83.36191
  141 Torsion                 17    27    29    30         177.58484
  142 Torsion                 17    27    29    31          -2.26698
  143 Torsion                 18    17    27    24         -15.88826
  144 Torsion                 18    17    27    28        -132.14388
  145 Torsion                 18    17    27    29         105.77109
  146 Torsion                 18    21    24    25        -158.49497
  147 Torsion                 18    21    24    26          79.22324
  148 Torsion                 18    21    24    27         -37.11947
  149 Torsion                 19    18    17    27        -127.83287
  150 Torsion                 19    18    21    22          32.03060
  151 Torsion                 19    18    21    23         -91.38742
  152 Torsion                 19    18    21    24         148.69708
  153 Torsion                 20    18    17    27         110.71252
  154 Torsion                 20    18    21    22         153.34035
  155 Torsion                 20    18    21    23          29.92233
  156 Torsion                 20    18    21    24         -89.99317
  157 Torsion                 21    18    17    27          -7.71872
  158 Torsion                 21    24    27    28         150.42904
  159 Torsion                 21    24    27    29         -91.58843
  160 Torsion                 22    21    24    25         -41.81349
  161 Torsion                 22    21    24    26        -164.09528
  162 Torsion                 22    21    24    27          79.56201
  163 Torsion                 23    21    24    25          81.59737
  164 Torsion                 23    21    24    26         -40.68442
  165 Torsion                 23    21    24    27        -157.02712
  166 Torsion                 24    27    29    30         -64.35860
  167 Torsion                 24    27    29    31         115.78958
  168 Torsion                 25    24    27    28         -88.83099
  169 Torsion                 25    24    27    29          29.15154
  170 Torsion                 26    24    27    28          34.06828
  171 Torsion                 26    24    27    29         152.05081
  172 Torsion                 27    29    31    32         178.56123
  173 Torsion                 27    29    31    33           5.54855
  174 Torsion                 28    27    29    30          54.14297
  175 Torsion                 28    27    29    31        -125.70885
  176 Torsion                 30    29    31    32          -1.29052
  177 Torsion                 30    29    31    33        -174.30319


            XYZ format geometry
            -------------------
    33
 geometry
 H                    -1.31775399    -4.43885019    -1.62530302
 C                    -0.63528192    -4.31426458    -0.78602995
 H                     0.36431529    -4.63138212    -1.07970302
 H                    -0.98187199    -4.90439470     0.05911782
 C                    -0.59775842    -2.85492859    -0.39904745
 O                    -1.26706093    -2.03429178    -1.01624141
 N                     0.18397050    -2.52661541     0.62810899
 H                     0.73680232    -3.24757853     1.05802312
 C                     0.40439330    -1.14350657     1.05288388
 H                    -0.57118890    -0.69925858     1.24358546
 C                     1.19115090    -1.15533025     2.36918844
 H                     1.33411139    -0.13394556     2.72460032
 H                     0.64250786    -1.71755347     3.12470473
 H                     2.16944704    -1.61371270     2.21349902
 C                     1.13148479    -0.32307870    -0.04367715
 O                     1.99623418    -0.87287783    -0.72732501
 N                     0.84172096     0.98571590    -0.20417825
 C                     1.52073856     1.81342049    -1.19353875
 H                     1.42606569     1.38800344    -2.19367994
 H                     2.57416176     1.90278109    -0.92622762
 C                     0.85382282     3.18620377    -1.13445868
 H                     0.00074482     3.21343356    -1.81427737
 H                     1.55575015     3.98833566    -1.36304446
 C                     0.36657413     3.25196120     0.31151908
 H                    -0.44106809     3.97526622     0.43534512
 H                     1.20196600     3.50742058     0.96533705
 C                    -0.07896243     1.80978008     0.59181317
 H                     0.05610523     1.60630543     1.65305668
 C                    -1.57584382     1.62619795     0.26702905
 O                    -2.41737343     2.23845611     0.91017122
 N                    -1.95440935     0.80585969    -0.70376612
 H                    -2.93985904     0.69406351    -0.87321385
 H                    -1.28551630     0.22732421    -1.18990066

 ==============================================================================
                                internuclear distances
 ------------------------------------------------------------------------------
       center one      |      center two      | atomic units |  angstroms
 ------------------------------------------------------------------------------
    2 C                |   1 H                |     2.05769  |     1.08888
    3 H                |   2 C                |     2.05798  |     1.08904
    4 H                |   2 C                |     2.05507  |     1.08750
    5 C                |   2 C                |     2.85394  |     1.51024
    6 O                |   5 C                |     2.31624  |     1.22570
    7 N                |   5 C                |     2.51691  |     1.33189
    8 H                |   7 N                |     1.89937  |     1.00511
    9 C                |   7 N                |     2.76573  |     1.46356
   10 H                |   9 C                |     2.05753  |     1.08880
   11 C                |   9 C                |     2.89800  |     1.53355
   12 H                |  11 C                |     2.06143  |     1.09086
   13 H                |  11 C                |     2.05964  |     1.08991
   14 H                |  11 C                |     2.06267  |     1.09152
   15 C                |   9 C                |     2.93012  |     1.55055
   16 O                |  15 C                |     2.32785  |     1.23185
   17 N                |  15 C                |     2.55125  |     1.35006
   18 C                |  17 N                |     2.75472  |     1.45774
   19 H                |  18 C                |     2.06164  |     1.09097
   20 H                |  18 C                |     2.06070  |     1.09048
   21 C                |  18 C                |     2.88627  |     1.52735
   22 H                |  21 C                |     2.06200  |     1.09116
   23 H                |  21 C                |     2.06003  |     1.09012
   24 C                |  21 C                |     2.88614  |     1.52728
   25 H                |  24 C                |     2.06213  |     1.09123
   26 H                |  24 C                |     2.06198  |     1.09115
   27 C                |  17 N                |     2.77754  |     1.46981
   27 C                |  24 C                |     2.90118  |     1.53524
   28 H                |  27 C                |     2.05788  |     1.08898
   29 C                |  27 C                |     2.91523  |     1.54267
   30 O                |  29 C                |     2.31186  |     1.22338
   31 N                |  29 C                |     2.50609  |     1.32616
   32 H                |  31 N                |     1.90133  |     1.00614
   33 H                |  31 N                |     1.90708  |     1.00918
 ------------------------------------------------------------------------------
                         number of included internuclear distances:         33
 ==============================================================================



 ==============================================================================
                                 internuclear angles
 ------------------------------------------------------------------------------
        center 1       |       center 2       |       center 3       |  degrees
 ------------------------------------------------------------------------------
    1 H                |   2 C                |   3 H                |   109.52
    1 H                |   2 C                |   4 H                |   109.70
    1 H                |   2 C                |   5 C                |   108.88
    3 H                |   2 C                |   4 H                |   110.13
    3 H                |   2 C                |   5 C                |   109.13
    4 H                |   2 C                |   5 C                |   109.46
    2 C                |   5 C                |   6 O                |   120.29
    2 C                |   5 C                |   7 N                |   116.77
    6 O                |   5 C                |   7 N                |   122.94
    5 C                |   7 N                |   8 H                |   118.42
    5 C                |   7 N                |   9 C                |   123.04
    8 H                |   7 N                |   9 C                |   118.09
    7 N                |   9 C                |  10 H                |   107.55
    7 N                |   9 C                |  11 C                |   108.61
    7 N                |   9 C                |  15 C                |   111.43
   10 H                |   9 C                |  11 C                |   108.21
   10 H                |   9 C                |  15 C                |   109.16
   11 C                |   9 C                |  15 C                |   111.75
    9 C                |  11 C                |  12 H                |   109.86
    9 C                |  11 C                |  13 H                |   109.92
    9 C                |  11 C                |  14 H                |   109.91
   12 H                |  11 C                |  13 H                |   108.85
   12 H                |  11 C                |  14 H                |   108.80
   13 H                |  11 C                |  14 H                |   109.48
    9 C                |  15 C                |  16 O                |   119.05
    9 C                |  15 C                |  17 N                |   119.76
   16 O                |  15 C                |  17 N                |   121.16
   15 C                |  17 N                |  18 C                |   122.08
   15 C                |  17 N                |  27 C                |   127.85
   18 C                |  17 N                |  27 C                |   109.94
   17 N                |  18 C                |  19 H                |   111.12
   17 N                |  18 C                |  20 H                |   109.28
   17 N                |  18 C                |  21 C                |   106.30
   19 H                |  18 C                |  20 H                |   109.91
   19 H                |  18 C                |  21 C                |   110.37
   20 H                |  18 C                |  21 C                |   109.80
   18 C                |  21 C                |  22 H                |   109.86
   18 C                |  21 C                |  23 H                |   111.84
   18 C                |  21 C                |  24 C                |   102.39
   22 H                |  21 C                |  23 H                |   110.76
   22 H                |  21 C                |  24 C                |   109.84
   23 H                |  21 C                |  24 C                |   111.86
   21 C                |  24 C                |  25 H                |   111.84
   21 C                |  24 C                |  26 H                |   109.46
   21 C                |  24 C                |  27 C                |   103.00
   25 H                |  24 C                |  26 H                |   110.09
   25 H                |  24 C                |  27 C                |   112.78
   26 H                |  24 C                |  27 C                |   109.43
   17 N                |  27 C                |  24 C                |   104.24
   17 N                |  27 C                |  28 H                |   110.20
   17 N                |  27 C                |  29 C                |   115.28
   24 C                |  27 C                |  28 H                |   108.51
   24 C                |  27 C                |  29 C                |   110.79
   28 H                |  27 C                |  29 C                |   107.65
   27 C                |  29 C                |  30 O                |   119.82
   27 C                |  29 C                |  31 N                |   120.31
   30 O                |  29 C                |  31 N                |   119.87
   29 C                |  31 N                |  32 H                |   118.14
   29 C                |  31 N                |  33 H                |   121.20
   32 H                |  31 N                |  33 H                |   120.29
 ------------------------------------------------------------------------------
                            number of included internuclear angles:         60
 ==============================================================================



  library name resolved from: environment
  library file name is: </opt/rit/el9/20230413/app/linux-rhel9-x86_64_v3/gcc-11.2.1/nwchem-7.2.0-oxtctbuhfuzyfaoziquq6bki22grib3g/share/nwchem/libraries/>
  


 Summary of "ao basis" -> "" (cartesian)
 ------------------------------------------------------------------------------
       Tag                 Description            Shells   Functions and Types
 ---------------- ------------------------------  ------  ---------------------
 *                        aug-cc-pvdz                 on all atoms 


                      Basis "ao basis" -> "ao basis" (cartesian)
                      -----
  H (Hydrogen)
  ------------
            Exponent  Coefficients 
       -------------- ---------------------------------------------------------
  1 S  1.30100000E+01  0.019685
  1 S  1.96200000E+00  0.137977
  1 S  4.44600000E-01  0.478148

  2 S  1.22000000E-01  1.000000

  3 S  2.97400000E-02  1.000000

  4 P  7.27000000E-01  1.000000

  5 P  1.41000000E-01  1.000000

  C (Carbon)
  ----------
            Exponent  Coefficients 
       -------------- ---------------------------------------------------------
  1 S  6.66500000E+03  0.000692
  1 S  1.00000000E+03  0.005329
  1 S  2.28000000E+02  0.027077
  1 S  6.47100000E+01  0.101718
  1 S  2.10600000E+01  0.274740
  1 S  7.49500000E+00  0.448564
  1 S  2.79700000E+00  0.285074
  1 S  5.21500000E-01  0.015204

  2 S  6.66500000E+03 -0.000146
  2 S  1.00000000E+03 -0.001154
  2 S  2.28000000E+02 -0.005725
  2 S  6.47100000E+01 -0.023312
  2 S  2.10600000E+01 -0.063955
  2 S  7.49500000E+00 -0.149981
  2 S  2.79700000E+00 -0.127262
  2 S  5.21500000E-01  0.544529

  3 S  1.59600000E-01  1.000000

  4 S  4.69000000E-02  1.000000

  5 P  9.43900000E+00  0.038109
  5 P  2.00200000E+00  0.209480
  5 P  5.45600000E-01  0.508557

  6 P  1.51700000E-01  1.000000

  7 P  4.04100000E-02  1.000000

  8 D  5.50000000E-01  1.000000

  9 D  1.51000000E-01  1.000000

  O (Oxygen)
  ----------
            Exponent  Coefficients 
       -------------- ---------------------------------------------------------
  1 S  1.17200000E+04  0.000710
  1 S  1.75900000E+03  0.005470
  1 S  4.00800000E+02  0.027837
  1 S  1.13700000E+02  0.104800
  1 S  3.70300000E+01  0.283062
  1 S  1.32700000E+01  0.448719
  1 S  5.02500000E+00  0.270952
  1 S  1.01300000E+00  0.015458

  2 S  1.17200000E+04 -0.000160
  2 S  1.75900000E+03 -0.001263
  2 S  4.00800000E+02 -0.006267
  2 S  1.13700000E+02 -0.025716
  2 S  3.70300000E+01 -0.070924
  2 S  1.32700000E+01 -0.165411
  2 S  5.02500000E+00 -0.116955
  2 S  1.01300000E+00  0.557368

  3 S  3.02300000E-01  1.000000

  4 S  7.89600000E-02  1.000000

  5 P  1.77000000E+01  0.043018
  5 P  3.85400000E+00  0.228913
  5 P  1.04600000E+00  0.508728

  6 P  2.75300000E-01  1.000000

  7 P  6.85600000E-02  1.000000

  8 D  1.18500000E+00  1.000000

  9 D  3.32000000E-01  1.000000

  N (Nitrogen)
  ------------
            Exponent  Coefficients 
       -------------- ---------------------------------------------------------
  1 S  9.04600000E+03  0.000700
  1 S  1.35700000E+03  0.005389
  1 S  3.09300000E+02  0.027406
  1 S  8.77300000E+01  0.103207
  1 S  2.85600000E+01  0.278723
  1 S  1.02100000E+01  0.448540
  1 S  3.83800000E+00  0.278238
  1 S  7.46600000E-01  0.015440

  2 S  9.04600000E+03 -0.000153
  2 S  1.35700000E+03 -0.001208
  2 S  3.09300000E+02 -0.005992
  2 S  8.77300000E+01 -0.024544
  2 S  2.85600000E+01 -0.067459
  2 S  1.02100000E+01 -0.158078
  2 S  3.83800000E+00 -0.121831
  2 S  7.46600000E-01  0.549003

  3 S  2.24800000E-01  1.000000

  4 S  6.12400000E-02  1.000000

  5 P  1.35500000E+01  0.039919
  5 P  2.91700000E+00  0.217169
  5 P  7.97300000E-01  0.510319

  6 P  2.18500000E-01  1.000000

  7 P  5.61100000E-02  1.000000

  8 D  8.17000000E-01  1.000000

  9 D  2.30000000E-01  1.000000



 Summary of "ao basis" -> "ao basis" (cartesian)
 ------------------------------------------------------------------------------
       Tag                 Description            Shells   Functions and Types
 ---------------- ------------------------------  ------  ---------------------
 H                        aug-cc-pvdz                5        9   3s2p
 C                        aug-cc-pvdz                9       25   4s3p2d
 O                        aug-cc-pvdz                9       25   4s3p2d
 N                        aug-cc-pvdz                9       25   4s3p2d


                                 NWChem SCF Module
                                 -----------------



  ao basis        = "ao basis"
  functions       =   553
  atoms           =    33
  closed shells   =    61
  open shells     =     0
  charge          =   0.00
  wavefunction    = RHF 
  input vectors   = atomic
  output vectors  = ./ALA_PRO_2.movecs
  use symmetry    = F
  symmetry adapt  = F


 Summary of "ao basis" -> "ao basis" (cartesian)
 ------------------------------------------------------------------------------
       Tag                 Description            Shells   Functions and Types
 ---------------- ------------------------------  ------  ---------------------
 H                        aug-cc-pvdz                5        9   3s2p
 C                        aug-cc-pvdz                9       25   4s3p2d
 O                        aug-cc-pvdz                9       25   4s3p2d
 N                        aug-cc-pvdz                9       25   4s3p2d



 Forming initial guess at       1.0s


 !! The overlap matrix has   5 vectors deemed linearly dependent with
    eigenvalues:
 2.29D-06 4.19D-06 7.04D-06 7.22D-06 9.03D-06


      Superposition of Atomic Density Guess
      -------------------------------------

 Sum of atomic energies:        -772.36748674

      Non-variational initial energy
      ------------------------------

 Total energy =    -783.179262
 1-e energy   =   -3455.881861
 2-e energy   =    1461.048566
 HOMO         =      -0.286880
 LUMO         =       0.006572


 Starting SCF solution at     261.0s



 ----------------------------------------------
         Quadratically convergent ROHF

 Convergence threshold     :          1.000E-04
 Maximum no. of iterations :           30
 Final Fock-matrix accuracy:          1.000E-10
 ----------------------------------------------


              iter       energy          gnorm     gmax       time
             ----- ------------------- --------- --------- --------
                 1     -776.3095643303  2.42D+00  1.52D-01    529.2
                 2     -776.6213779927  8.32D-01  4.42D-02   1041.3
                 3     -776.6827023491  6.83D-02  5.33D-03   1879.0
                 4     -776.6833830725  4.49D-03  4.37D-04   2909.4
                 5     -776.6833869604  1.12D-05  4.84D-07   4722.9


       Final RHF  results 
       ------------------ 

         Total SCF energy =   -776.683386960444
      One-electron energy =  -3467.561068218767
      Two-electron energy =   1479.223648310847
 Nuclear repulsion energy =   1211.654032947475

        Time for solution =   4466.3s


             Final eigenvalues
             -----------------

              1      
    1  -20.5321
    2  -20.5309
    3  -20.5149
    4  -15.6065
    5  -15.6060
    6  -15.5813
    7  -11.3641
    8  -11.3619
    9  -11.3503
   10  -11.3075
   11  -11.3001
   12  -11.2719
   13  -11.2576
   14  -11.2479
   15  -11.2462
   16  -11.2424
   17   -1.3974
   18   -1.3857
   19   -1.3788
   20   -1.2747
   21   -1.2537
   22   -1.2069
   23   -1.0936
   24   -1.0653
   25   -1.0227
   26   -0.9995
   27   -0.9234
   28   -0.8813
   29   -0.8381
   30   -0.8091
   31   -0.7967
   32   -0.7655
   33   -0.7391
   34   -0.7186
   35   -0.6917
   36   -0.6868
   37   -0.6704
   38   -0.6457
   39   -0.6343
   40   -0.6193
   41   -0.6128
   42   -0.6023
   43   -0.5915
   44   -0.5867
   45   -0.5795
   46   -0.5718
   47   -0.5654
   48   -0.5567
   49   -0.5452
   50   -0.5398
   51   -0.5261
   52   -0.5080
   53   -0.4984
   54   -0.4916
   55   -0.4872
   56   -0.4343
   57   -0.4313
   58   -0.4303
   59   -0.4063
   60   -0.3964
   61   -0.3757
   62    0.0264
   63    0.0336
   64    0.0396
   65    0.0470
   66    0.0492
   67    0.0512
   68    0.0570
   69    0.0621
   70    0.0661
   71    0.0690

                       ROHF Final Molecular Orbital Analysis
                       -------------------------------------

 Vector   17  Occ=2.000000D+00  E=-1.397412D+00
              MO Center= -1.6D-01, -1.7D+00, -5.2D-01, r^2= 3.2D+00
   Bfn.  Coefficient  Atom+Function         Bfn.  Coefficient  Atom+Function  
  ----- ------------  ---------------      ----- ------------  ---------------
    80      0.287537   6 O  s                79      0.282194   6 O  s         
    54      0.203427   5 C  s               250      0.201755  16 O  s         
    12      0.193408   2 C  s               249      0.180523  16 O  s         

 Vector   18  Occ=2.000000D+00  E=-1.385710D+00
              MO Center=  3.1D-01, -6.6D-01, -4.1D-01, r^2= 5.0D+00
   Bfn.  Coefficient  Atom+Function         Bfn.  Coefficient  Atom+Function  
  ----- ------------  ---------------      ----- ------------  ---------------
   250      0.272698  16 O  s               249      0.254107  16 O  s         
    79     -0.202575   6 O  s                80     -0.203174   6 O  s         
   224      0.182330  15 C  s         

 Vector   19  Occ=2.000000D+00  E=-1.378806D+00
              MO Center= -1.6D+00,  1.5D+00,  4.0D-01, r^2= 3.7D+00
   Bfn.  Coefficient  Atom+Function         Bfn.  Coefficient  Atom+Function  
  ----- ------------  ---------------      ----- ------------  ---------------
   488      0.359039  30 O  s               487      0.325656  30 O  s         
   462      0.228457  29 C  s               250     -0.156436  16 O  s         

 Vector   20  Occ=2.000000D+00  E=-1.274710D+00
              MO Center=  8.1D-01,  9.7D-01, -2.3D-01, r^2= 2.4D+00
   Bfn.  Coefficient  Atom+Function         Bfn.  Coefficient  Atom+Function  
  ----- ------------  ---------------      ----- ------------  ---------------
   275      0.332738  17 N  s               274      0.303023  17 N  s         
   250     -0.215822  16 O  s               249     -0.179904  16 O  s         
   139      0.176576   9 C  s         

 Vector   21  Occ=2.000000D+00  E=-1.253670D+00
              MO Center=  8.3D-03, -2.3D+00,  3.6D-01, r^2= 1.7D+00
   Bfn.  Coefficient  Atom+Function         Bfn.  Coefficient  Atom+Function  
  ----- ------------  ---------------      ----- ------------  ---------------
   105      0.471244   7 N  s               104      0.343872   7 N  s         
    80     -0.217452   6 O  s                79     -0.183966   6 O  s         
   128      0.159063   8 H  s         

 Vector   22  Occ=2.000000D+00  E=-1.206872D+00
              MO Center= -1.8D+00,  1.1D+00, -3.9D-01, r^2= 1.5D+00
   Bfn.  Coefficient  Atom+Function         Bfn.  Coefficient  Atom+Function  
  ----- ------------  ---------------      ----- ------------  ---------------
   513      0.372719  31 N  s               512      0.370400  31 N  s         
   488     -0.206889  30 O  s               429     -0.198177  27 C  s         
   487     -0.175346  30 O  s               545      0.164629  33 H  s         
   467     -0.159205  29 C  pz              536      0.159177  32 H  s         

 Vector   23  Occ=2.000000D+00  E=-1.093648D+00
              MO Center=  6.6D-01,  1.4D+00, -3.1D-02, r^2= 5.8D+00
   Bfn.  Coefficient  Atom+Function         Bfn.  Coefficient  Atom+Function  
  ----- ------------  ---------------      ----- ------------  ---------------
   385      0.199471  24 C  s               342      0.196901  21 C  s         
   386      0.170397  24 C  s         

 Vector   24  Occ=2.000000D+00  E=-1.065266D+00
              MO Center=  4.5D-01, -7.4D-01,  7.4D-01, r^2= 7.3D+00
   Bfn.  Coefficient  Atom+Function         Bfn.  Coefficient  Atom+Function  
  ----- ------------  ---------------      ----- ------------  ---------------
   138      0.203810   9 C  s               172      0.203859  11 C  s         
   429      0.172166  27 C  s               146      0.154163   9 C  pz        

 Vector   25  Occ=2.000000D+00  E=-1.022706D+00
              MO Center=  4.7D-01,  1.7D+00, -2.8D-01, r^2= 4.3D+00
   Bfn.  Coefficient  Atom+Function         Bfn.  Coefficient  Atom+Function  
  ----- ------------  ---------------      ----- ------------  ---------------
   428     -0.253435  27 C  s               299      0.236776  18 C  s         
   139     -0.171412   9 C  s               225      0.165420  15 C  s         

 Vector   26  Occ=2.000000D+00  E=-9.995339D-01
              MO Center= -2.3D-01, -3.3D+00, -9.3D-02, r^2= 5.3D+00
   Bfn.  Coefficient  Atom+Function         Bfn.  Coefficient  Atom+Function  
  ----- ------------  ---------------      ----- ------------  ---------------
    11      0.318609   2 C  s               172      0.164888  11 C  s         
    58     -0.160792   5 C  py        

 Vector   27  Occ=2.000000D+00  E=-9.234311D-01
              MO Center=  7.7D-01,  3.8D-01,  5.6D-01, r^2= 6.6D+00
   Bfn.  Coefficient  Atom+Function         Bfn.  Coefficient  Atom+Function  
  ----- ------------  ---------------      ----- ------------  ---------------
   139      0.381899   9 C  s               146     -0.282665   9 C  pz        
   231      0.194743  15 C  py              172     -0.191840  11 C  s         
   224      0.177446  15 C  s               278     -0.167109  17 N  py        

 Vector   28  Occ=2.000000D+00  E=-8.812564D-01
              MO Center=  3.7D-01,  4.4D-01,  4.7D-01, r^2= 7.9D+00
   Bfn.  Coefficient  Atom+Function         Bfn.  Coefficient  Atom+Function  
  ----- ------------  ---------------      ----- ------------  ---------------
   225      0.216898  15 C  s               146      0.208671   9 C  pz        
   139     -0.171997   9 C  s               434      0.170148  27 C  px        
   385      0.161827  24 C  s               138     -0.158330   9 C  s         
   172      0.151762  11 C  s               429     -0.150006  27 C  s         

 Vector   29  Occ=2.000000D+00  E=-8.380657D-01
              MO Center=  4.3D-02,  9.5D-01, -1.9D-01, r^2= 8.7D+00
   Bfn.  Coefficient  Atom+Function         Bfn.  Coefficient  Atom+Function  
  ----- ------------  ---------------      ----- ------------  ---------------
   429      0.419388  27 C  s               386     -0.242676  24 C  s         
   343      0.228499  21 C  s               300     -0.198075  18 C  s         
   342      0.178299  21 C  s                56     -0.157880   5 C  s         

 Vector   30  Occ=2.000000D+00  E=-8.091436D-01
              MO Center=  1.7D-01, -1.6D+00,  1.8D-01, r^2= 6.8D+00
   Bfn.  Coefficient  Atom+Function         Bfn.  Coefficient  Atom+Function  
  ----- ------------  ---------------      ----- ------------  ---------------
   128      0.269917   8 H  s               105      0.249030   7 N  s         
   109      0.241506   7 N  pz              107      0.220655   7 N  px        
   386     -0.215515  24 C  s               300     -0.201502  18 C  s         
   163     -0.190813  10 H  s                54     -0.188099   5 C  s         
   343      0.179448  21 C  s                80      0.165776   6 O  s         

 Vector   31  Occ=2.000000D+00  E=-7.967269D-01
              MO Center= -2.3D-01,  1.6D+00, -2.4D-01, r^2= 5.1D+00
   Bfn.  Coefficient  Atom+Function         Bfn.  Coefficient  Atom+Function  
  ----- ------------  ---------------      ----- ------------  ---------------
   300      0.420555  18 C  s               343     -0.372930  21 C  s         
   434     -0.321033  27 C  px              386      0.216821  24 C  s         
   462      0.178933  29 C  s               225      0.170270  15 C  s         
   514      0.165680  31 N  s               301     -0.162855  18 C  s         
   488     -0.157810  30 O  s               517      0.152556  31 N  pz        

 Vector   32  Occ=2.000000D+00  E=-7.655152D-01
              MO Center= -2.2D-01,  9.3D-01, -1.9D-01, r^2= 5.5D+00
   Bfn.  Coefficient  Atom+Function         Bfn.  Coefficient  Atom+Function  
  ----- ------------  ---------------      ----- ------------  ---------------
   300      0.264279  18 C  s               516     -0.176793  31 N  py        
   545      0.176084  33 H  s               517     -0.169910  31 N  pz        
   433      0.155146  27 C  pz              452      0.153093  28 H  s         
   278     -0.151502  17 N  py        

 Vector   33  Occ=2.000000D+00  E=-7.390584D-01
              MO Center= -5.0D-01,  5.0D-01, -9.7D-02, r^2= 6.0D+00
   Bfn.  Coefficient  Atom+Function         Bfn.  Coefficient  Atom+Function  
  ----- ------------  ---------------      ----- ------------  ---------------
   545     -0.226845  33 H  s               515     -0.219287  31 N  px        
   139      0.207358   9 C  s               145      0.205302   9 C  py        
   463      0.192166  29 C  s               434      0.188202  27 C  px        
   163     -0.184015  10 H  s               464     -0.172738  29 C  s         
   225     -0.171656  15 C  s               429     -0.168489  27 C  s         

 Vector   34  Occ=2.000000D+00  E=-7.185598D-01
              MO Center=  3.8D-01, -1.8D-01,  3.0D-01, r^2= 5.7D+00
   Bfn.  Coefficient  Atom+Function         Bfn.  Coefficient  Atom+Function  
  ----- ------------  ---------------      ----- ------------  ---------------
   386      0.281916  24 C  s               275      0.263754  17 N  s         
   225     -0.218560  15 C  s               228     -0.206257  15 C  py        
   231     -0.201670  15 C  py              243      0.201105  15 C  dxy       
   141      0.197552   9 C  px              300     -0.184803  18 C  s         
   162     -0.151841  10 H  s         

 Vector   35  Occ=2.000000D+00  E=-6.916726D-01
              MO Center= -4.3D-01,  7.1D-01, -1.7D-01, r^2= 7.7D+00
   Bfn.  Coefficient  Atom+Function         Bfn.  Coefficient  Atom+Function  
  ----- ------------  ---------------      ----- ------------  ---------------
   139      0.314682   9 C  s               515      0.258796  31 N  px        
   225     -0.235812  15 C  s               343     -0.231705  21 C  s         
   536     -0.228391  32 H  s               300      0.222259  18 C  s         
   145      0.218419   9 C  py              386      0.151584  24 C  s         

 Vector   36  Occ=2.000000D+00  E=-6.868480D-01
              MO Center= -3.7D-01, -2.2D+00, -2.7D-01, r^2= 7.0D+00
   Bfn.  Coefficient  Atom+Function         Bfn.  Coefficient  Atom+Function  
  ----- ------------  ---------------      ----- ------------  ---------------
    83     -0.250079   6 O  py               15      0.228521   2 C  py        
    18      0.216933   2 C  py               86     -0.164090   6 O  py        
    80     -0.157697   6 O  s                59     -0.152213   5 C  pz        

 Vector   37  Occ=2.000000D+00  E=-6.703571D-01
              MO Center= -2.2D-01, -8.4D-01, -7.3D-02, r^2= 7.7D+00
   Bfn.  Coefficient  Atom+Function         Bfn.  Coefficient  Atom+Function  
  ----- ------------  ---------------      ----- ------------  ---------------
   108     -0.206762   7 N  py               83      0.201786   6 O  py        
    80      0.198964   6 O  s               142      0.198723   9 C  py        
   145      0.191325   9 C  py              139      0.182513   9 C  s         

 Vector   38  Occ=2.000000D+00  E=-6.456840D-01
              MO Center=  6.1D-01,  7.1D-01, -4.9D-01, r^2= 7.2D+00
   Bfn.  Coefficient  Atom+Function         Bfn.  Coefficient  Atom+Function  
  ----- ------------  ---------------      ----- ------------  ---------------
   304      0.227967  18 C  pz              323     -0.209527  19 H  s         
   227      0.167738  15 C  px              277      0.168141  17 N  px        
   250     -0.161555  16 O  s               343      0.157569  21 C  s         

 Vector   39  Occ=2.000000D+00  E=-6.342906D-01
              MO Center=  8.7D-02,  1.9D-01, -1.1D-01, r^2= 9.5D+00
   Bfn.  Coefficient  Atom+Function         Bfn.  Coefficient  Atom+Function  
  ----- ------------  ---------------      ----- ------------  ---------------
   225      0.231016  15 C  s               343      0.214934  21 C  s         
   490     -0.210626  30 O  px              252     -0.198533  16 O  px        
   250     -0.184630  16 O  s               275     -0.178023  17 N  s         
   488      0.170888  30 O  s         

 Vector   40  Occ=2.000000D+00  E=-6.192927D-01
              MO Center=  9.9D-02, -2.1D+00, -3.7D-02, r^2= 8.6D+00
   Bfn.  Coefficient  Atom+Function         Bfn.  Coefficient  Atom+Function  
  ----- ------------  ---------------      ----- ------------  ---------------
   139      0.306321   9 C  s                44     -0.199068   4 H  s         
    14      0.189490   2 C  px              225     -0.174325  15 C  s         
   252     -0.161954  16 O  px              386     -0.161701  24 C  s         
    35      0.159444   3 H  s         

 Vector   41  Occ=2.000000D+00  E=-6.128354D-01
              MO Center=  2.3D-01,  4.2D-01,  6.3D-02, r^2= 9.6D+00
   Bfn.  Coefficient  Atom+Function         Bfn.  Coefficient  Atom+Function  
  ----- ------------  ---------------      ----- ------------  ---------------
   343      0.212115  21 C  s               277      0.202870  17 N  px        
   453      0.163978  28 H  s               280      0.153483  17 N  px        

 Vector   42  Occ=2.000000D+00  E=-6.023074D-01
              MO Center= -5.1D-02,  1.3D+00,  2.6D-01, r^2= 7.7D+00
   Bfn.  Coefficient  Atom+Function         Bfn.  Coefficient  Atom+Function  
  ----- ------------  ---------------      ----- ------------  ---------------
   343      0.298934  21 C  s               491     -0.188212  30 O  py        
   386     -0.181273  24 C  s               302     -0.171355  18 C  px        
   433      0.171177  27 C  pz              332     -0.166150  20 H  s         
   300     -0.153216  18 C  s         

 Vector   43  Occ=2.000000D+00  E=-5.915029D-01
              MO Center= -1.2D-01, -1.1D+00,  2.9D-01, r^2= 1.0D+01
   Bfn.  Coefficient  Atom+Function         Bfn.  Coefficient  Atom+Function  
  ----- ------------  ---------------      ----- ------------  ---------------
    58      0.219745   5 C  py              176      0.215225  11 C  py        
   196      0.203526  12 H  s               197      0.185697  12 H  s         
   145      0.176755   9 C  py               84      0.163921   6 O  pz        
    82      0.157755   6 O  px              139      0.153516   9 C  s         

 Vector   44  Occ=2.000000D+00  E=-5.866655D-01
              MO Center=  8.0D-02,  1.2D+00,  2.6D-01, r^2= 8.2D+00
   Bfn.  Coefficient  Atom+Function         Bfn.  Coefficient  Atom+Function  
  ----- ------------  ---------------      ----- ------------  ---------------
   139      0.223956   9 C  s               163     -0.217154  10 H  s         
   389      0.196611  24 C  py              176      0.169037  11 C  py        
   492      0.164431  30 O  pz              346      0.161209  21 C  py        

 Vector   45  Occ=2.000000D+00  E=-5.795057D-01
              MO Center= -4.0D-01, -2.8D+00, -3.0D-01, r^2= 6.7D+00
   Bfn.  Coefficient  Atom+Function         Bfn.  Coefficient  Atom+Function  
  ----- ------------  ---------------      ----- ------------  ---------------
     2      0.256406   1 H  s                 1      0.222756   1 H  s         
    14     -0.210186   2 C  px               84     -0.203647   6 O  pz        
    82     -0.184247   6 O  px               35     -0.177481   3 H  s         
    58     -0.174823   5 C  py               16     -0.163771   2 C  pz        
   196      0.152166  12 H  s         

 Vector   46  Occ=2.000000D+00  E=-5.717876D-01
              MO Center=  1.7D-01,  9.2D-01,  6.8D-01, r^2= 8.5D+00
   Bfn.  Coefficient  Atom+Function         Bfn.  Coefficient  Atom+Function  
  ----- ------------  ---------------      ----- ------------  ---------------
   343      0.226857  21 C  s               300     -0.210927  18 C  s         
   205     -0.200007  13 H  s               175      0.175911  11 C  px        
   206     -0.171931  13 H  s               492      0.170352  30 O  pz        
   409     -0.161484  25 H  s               453      0.155693  28 H  s         
   215      0.152786  14 H  s               465      0.151333  29 C  px        

 Vector   47  Occ=2.000000D+00  E=-5.653731D-01
              MO Center= -3.3D-01,  1.4D+00,  2.3D-01, r^2= 7.9D+00
   Bfn.  Coefficient  Atom+Function         Bfn.  Coefficient  Atom+Function  
  ----- ------------  ---------------      ----- ------------  ---------------
   376      0.222983  23 H  s               438      0.196527  27 C  py        
   344     -0.193029  21 C  s               466      0.179095  29 C  py        
   163      0.176726  10 H  s               375      0.170999  23 H  s         
   492     -0.164460  30 O  pz              386      0.154135  24 C  s         
   491      0.154827  30 O  py              517     -0.153216  31 N  pz        

 Vector   48  Occ=2.000000D+00  E=-5.567117D-01
              MO Center=  1.6D-01, -1.7D+00, -5.6D-02, r^2= 9.4D+00
   Bfn.  Coefficient  Atom+Function         Bfn.  Coefficient  Atom+Function  
  ----- ------------  ---------------      ----- ------------  ---------------
    16      0.262160   2 C  pz                1     -0.190791   1 H  s         
    44      0.189952   4 H  s               343      0.172066  21 C  s         
   386     -0.160021  24 C  s                 2     -0.157107   1 H  s         

 Vector   49  Occ=2.000000D+00  E=-5.451788D-01
              MO Center=  3.4D-01, -1.2D+00,  5.5D-01, r^2= 9.5D+00
   Bfn.  Coefficient  Atom+Function         Bfn.  Coefficient  Atom+Function  
  ----- ------------  ---------------      ----- ------------  ---------------
   175     -0.216065  11 C  px              163     -0.214688  10 H  s         
    55      0.199641   5 C  s                14     -0.187140   2 C  px        
   206      0.185618  13 H  s                12     -0.178832   2 C  s         
     1      0.171804   1 H  s               141      0.151281   9 C  px        
   197     -0.150919  12 H  s         

 Vector   50  Occ=2.000000D+00  E=-5.397582D-01
              MO Center=  4.7D-01, -3.9D-01,  7.8D-01, r^2= 7.6D+00
   Bfn.  Coefficient  Atom+Function         Bfn.  Coefficient  Atom+Function  
  ----- ------------  ---------------      ----- ------------  ---------------
   163      0.269751  10 H  s               214      0.221758  14 H  s         
   139     -0.206383   9 C  s               215      0.203343  14 H  s         
   175      0.194228  11 C  px              162      0.182941  10 H  s         
   197     -0.171008  12 H  s               276      0.170885  17 N  s         
   142      0.162556   9 C  py              386     -0.156515  24 C  s         

 Vector   51  Occ=2.000000D+00  E=-5.260963D-01
              MO Center=  2.3D-01, -8.9D-01, -2.5D-02, r^2= 9.1D+00
   Bfn.  Coefficient  Atom+Function         Bfn.  Coefficient  Atom+Function  
  ----- ------------  ---------------      ----- ------------  ---------------
    82      0.184018   6 O  px              177     -0.162095  11 C  pz        
   229     -0.160125  15 C  pz               14     -0.157387   2 C  px        
   283     -0.151433  17 N  px        

 Vector   52  Occ=2.000000D+00  E=-5.080239D-01
              MO Center=  1.6D-01, -3.0D-01,  1.7D-02, r^2= 9.1D+00
   Bfn.  Coefficient  Atom+Function         Bfn.  Coefficient  Atom+Function  
  ----- ------------  ---------------      ----- ------------  ---------------
   173     -0.188452  11 C  s               276     -0.184926  17 N  s         
   139      0.183195   9 C  s               180      0.181369  11 C  pz        
   141     -0.177469   9 C  px               82      0.163708   6 O  px        
    84     -0.161921   6 O  pz              163      0.158283  10 H  s         
   162      0.156836  10 H  s               418      0.150497  26 H  s         

 Vector   53  Occ=2.000000D+00  E=-4.983994D-01
              MO Center=  5.4D-01,  2.0D+00, -2.3D-01, r^2= 5.2D+00
   Bfn.  Coefficient  Atom+Function         Bfn.  Coefficient  Atom+Function  
  ----- ------------  ---------------      ----- ------------  ---------------
   346     -0.242868  21 C  py              303      0.222535  18 C  py        
   389      0.219242  24 C  py              410      0.214691  25 H  s         
   432     -0.194169  27 C  py              376     -0.177179  23 H  s         
   433      0.167033  27 C  pz              375     -0.166162  23 H  s         
   409      0.160782  25 H  s               452      0.160871  28 H  s         

 Vector   54  Occ=2.000000D+00  E=-4.915736D-01
              MO Center=  7.6D-01,  2.3D+00, -5.9D-01, r^2= 5.1D+00
   Bfn.  Coefficient  Atom+Function         Bfn.  Coefficient  Atom+Function  
  ----- ------------  ---------------      ----- ------------  ---------------
   345      0.289713  21 C  px              410      0.287804  25 H  s         
   376      0.278142  23 H  s               367     -0.252322  22 H  s         
   388     -0.237940  24 C  px              275      0.221898  17 N  s         
   366     -0.206308  22 H  s               344     -0.204591  21 C  s         
   387     -0.202341  24 C  s               301      0.194968  18 C  s         

 Vector   55  Occ=2.000000D+00  E=-4.872001D-01
              MO Center=  6.0D-01,  2.4D+00, -4.2D-01, r^2= 4.3D+00
   Bfn.  Coefficient  Atom+Function         Bfn.  Coefficient  Atom+Function  
  ----- ------------  ---------------      ----- ------------  ---------------
   347      0.317156  21 C  pz              390     -0.311762  24 C  pz        
   324      0.297374  19 H  s               301     -0.224742  18 C  s         
   393     -0.206643  24 C  pz              464     -0.206934  29 C  s         
   367     -0.205105  22 H  s               453      0.202306  28 H  s         
   366     -0.182378  22 H  s               387      0.179930  24 C  s         

 Vector   56  Occ=2.000000D+00  E=-4.342990D-01
              MO Center= -3.6D-01, -1.1D+00, -3.3D-01, r^2= 7.2D+00
   Bfn.  Coefficient  Atom+Function         Bfn.  Coefficient  Atom+Function  
  ----- ------------  ---------------      ----- ------------  ---------------
    84      0.288438   6 O  pz              253      0.252239  16 O  py        
    83      0.240063   6 O  py              163      0.239431  10 H  s         
    87      0.233740   6 O  pz              256      0.210242  16 O  py        
   429      0.204447  27 C  s                86      0.194420   6 O  py        
   107      0.189424   7 N  px              492     -0.174154  30 O  pz        

 Vector   57  Occ=2.000000D+00  E=-4.313391D-01
              MO Center=  2.5D-01, -4.3D-01, -1.8D-01, r^2= 7.2D+00
   Bfn.  Coefficient  Atom+Function         Bfn.  Coefficient  Atom+Function  
  ----- ------------  ---------------      ----- ------------  ---------------
   253      0.304129  16 O  py              254     -0.258779  16 O  pz        
   256      0.242227  16 O  py              257     -0.199523  16 O  pz        
   490      0.197832  30 O  px               82     -0.180030   6 O  px        
   343      0.160611  21 C  s                83     -0.158574   6 O  py        
   493      0.155643  30 O  px              109     -0.154130   7 N  pz        

 Vector   58  Occ=2.000000D+00  E=-4.303163D-01
              MO Center= -9.9D-01, -1.5D-01, -1.8D-01, r^2= 8.3D+00
   Bfn.  Coefficient  Atom+Function         Bfn.  Coefficient  Atom+Function  
  ----- ------------  ---------------      ----- ------------  ---------------
    83      0.282296   6 O  py              490      0.243430  30 O  px        
    86      0.219049   6 O  py              429     -0.211066  27 C  s         
   491      0.208353  30 O  py              493      0.201027  30 O  px        
   453      0.199184  28 H  s                84      0.176141   6 O  pz        
   494      0.162298  30 O  py               18      0.156168   2 C  py        

 Vector   59  Occ=2.000000D+00  E=-4.063145D-01
              MO Center= -5.3D-02, -1.4D+00,  3.1D-02, r^2= 5.0D+00
   Bfn.  Coefficient  Atom+Function         Bfn.  Coefficient  Atom+Function  
  ----- ------------  ---------------      ----- ------------  ---------------
   109     -0.256041   7 N  pz              107      0.250084   7 N  px        
   110      0.229691   7 N  px               82     -0.226203   6 O  px        
   112     -0.217770   7 N  pz               85     -0.186046   6 O  px        
   253     -0.180825  16 O  py              256     -0.165688  16 O  py        

 Vector   60  Occ=2.000000D+00  E=-3.963591D-01
              MO Center= -1.8D+00,  8.5D-01, -3.5D-02, r^2= 4.6D+00
   Bfn.  Coefficient  Atom+Function         Bfn.  Coefficient  Atom+Function  
  ----- ------------  ---------------      ----- ------------  ---------------
   516      0.308244  31 N  py              519      0.273564  31 N  py        
   491     -0.268053  30 O  py              517     -0.266371  31 N  pz        
   492      0.248899  30 O  pz              520     -0.235331  31 N  pz        
   494     -0.217818  30 O  py              495      0.196209  30 O  pz        

 Vector   61  Occ=2.000000D+00  E=-3.756948D-01
              MO Center=  3.9D-01,  9.7D-01, -1.2D-01, r^2= 4.9D+00
   Bfn.  Coefficient  Atom+Function         Bfn.  Coefficient  Atom+Function  
  ----- ------------  ---------------      ----- ------------  ---------------
   277      0.308845  17 N  px              280      0.295436  17 N  px        
   279      0.247426  17 N  pz              282      0.242784  17 N  pz        
   490     -0.215752  30 O  px              276      0.213259  17 N  s         
   252     -0.186177  16 O  px              254     -0.185884  16 O  pz        
   386      0.159986  24 C  s               493     -0.159883  30 O  px        

 Vector   62  Occ=0.000000D+00  E= 2.636473D-02
              MO Center=  1.0D+00, -2.8D+00,  2.7D+00, r^2= 2.5D+01
   Bfn.  Coefficient  Atom+Function         Bfn.  Coefficient  Atom+Function  
  ----- ------------  ---------------      ----- ------------  ---------------
   464      3.163465  29 C  s               148     -2.267756   9 C  py        
   207     -2.194589  13 H  s               301      2.166858  18 C  s         
   149      1.699681   9 C  pz              173      1.665294  11 C  s         
    46     -1.596673   4 H  s                12      1.375518   2 C  s         
   206     -1.378139  13 H  s               106     -1.367612   7 N  s         

 Vector   63  Occ=0.000000D+00  E= 3.357961D-02
              MO Center=  1.9D+00,  1.2D+00,  9.1D-01, r^2= 3.9D+01
   Bfn.  Coefficient  Atom+Function         Bfn.  Coefficient  Atom+Function  
  ----- ------------  ---------------      ----- ------------  ---------------
   464      7.041117  29 C  s               438      4.478597  27 C  py        
    56      4.295271   5 C  s               387     -4.202823  24 C  s         
   148      3.918458   9 C  py              149      3.609410   9 C  pz        
   301      3.537867  18 C  s               174     -3.020021  11 C  s         
   198     -2.686178  12 H  s               420     -2.561104  26 H  s         

 Vector   64  Occ=0.000000D+00  E= 3.956882D-02
              MO Center=  3.1D-01,  1.9D-01, -1.0D+00, r^2= 4.3D+01
   Bfn.  Coefficient  Atom+Function         Bfn.  Coefficient  Atom+Function  
  ----- ------------  ---------------      ----- ------------  ---------------
   301     -3.406762  18 C  s               149      3.284135   9 C  pz        
   514      2.684162  31 N  s               377      2.601542  23 H  s         
   344      2.547620  21 C  s               438     -2.354394  27 C  py        
    56      2.286212   5 C  s                64      2.270929   5 C  py        
    12     -2.232306   2 C  s               140     -2.133737   9 C  s         

 Vector   65  Occ=0.000000D+00  E= 4.700711D-02
              MO Center=  8.2D-02, -1.5D+00,  7.6D-01, r^2= 3.5D+01
   Bfn.  Coefficient  Atom+Function         Bfn.  Coefficient  Atom+Function  
  ----- ------------  ---------------      ----- ------------  ---------------
   464      2.966881  29 C  s               207     -2.561478  13 H  s         
    37      2.305530   3 H  s               216      2.217521  14 H  s         
   164     -1.992163  10 H  s                64      1.768032   5 C  py        
   514     -1.771619  31 N  s               334      1.658417  20 H  s         
   149      1.595923   9 C  pz              538     -1.484210  32 H  s         

 Vector   66  Occ=0.000000D+00  E= 4.922745D-02
              MO Center=  3.3D-01, -9.2D-01, -3.1D-01, r^2= 4.5D+01
   Bfn.  Coefficient  Atom+Function         Bfn.  Coefficient  Atom+Function  
  ----- ------------  ---------------      ----- ------------  ---------------
   377     -2.983009  23 H  s                 3      2.861206   1 H  s         
   198      2.815993  12 H  s               130     -2.368381   8 H  s         
   420      2.234482  26 H  s               147      1.913805   9 C  px        
   106     -1.893807   7 N  s               207     -1.867525  13 H  s         
    65      1.622394   5 C  pz               64      1.594056   5 C  py        

 Vector   67  Occ=0.000000D+00  E= 5.123969D-02
              MO Center=  3.6D-01,  3.4D-02, -2.4D-01, r^2= 4.2D+01
   Bfn.  Coefficient  Atom+Function         Bfn.  Coefficient  Atom+Function  
  ----- ------------  ---------------      ----- ------------  ---------------
    46      2.551182   4 H  s               377      2.280881  23 H  s         
   216     -2.125955  14 H  s               368     -1.994458  22 H  s         
    56     -1.846762   5 C  s               514     -1.854151  31 N  s         
   325     -1.700841  19 H  s               174      1.659162  11 C  s         
   411      1.604613  25 H  s               472     -1.591045  29 C  py        

 Vector   68  Occ=0.000000D+00  E= 5.697271D-02
              MO Center=  1.1D+00,  2.2D+00, -3.1D-01, r^2= 3.8D+01
   Bfn.  Coefficient  Atom+Function         Bfn.  Coefficient  Atom+Function  
  ----- ------------  ---------------      ----- ------------  ---------------
   411     -3.706508  25 H  s               334      3.531794  20 H  s         
   164      2.576792  10 H  s               234     -2.456040  15 C  py        
    37     -1.903653   3 H  s               472      1.881022  29 C  py        
   464      1.854082  29 C  s               308     -1.814551  18 C  px        
   309      1.764921  18 C  py              437      1.757030  27 C  px        

 Vector   69  Occ=0.000000D+00  E= 6.207536D-02
              MO Center= -3.9D-01, -8.8D-01, -1.3D-01, r^2= 4.0D+01
   Bfn.  Coefficient  Atom+Function         Bfn.  Coefficient  Atom+Function  
  ----- ------------  ---------------      ----- ------------  ---------------
   514     -3.354178  31 N  s               454      3.315031  28 H  s         
   325      3.070694  19 H  s               334     -3.003607  20 H  s         
   207      2.652292  13 H  s               538     -2.564058  32 H  s         
   377      2.353009  23 H  s                37      2.287814   3 H  s         
   420     -2.220320  26 H  s               216     -1.979376  14 H  s         

 Vector   70  Occ=0.000000D+00  E= 6.612489D-02
              MO Center=  8.2D-01, -1.2D+00, -1.5D-01, r^2= 4.3D+01
   Bfn.  Coefficient  Atom+Function         Bfn.  Coefficient  Atom+Function  
  ----- ------------  ---------------      ----- ------------  ---------------
    56      6.874159   5 C  s                 3      4.044968   1 H  s         
   454     -3.733451  28 H  s               148      3.509099   9 C  py        
   377      3.435494  23 H  s                65      2.776815   5 C  pz        
   216      2.740268  14 H  s               174     -2.639086  11 C  s         
   106     -2.519824   7 N  s               325     -2.393885  19 H  s         

 Vector   71  Occ=0.000000D+00  E= 6.897748D-02
              MO Center= -6.0D-01, -8.1D-01, -1.0D-01, r^2= 4.2D+01
   Bfn.  Coefficient  Atom+Function         Bfn.  Coefficient  Atom+Function  
  ----- ------------  ---------------      ----- ------------  ---------------
   164     -4.233116  10 H  s                46      4.004620   4 H  s         
   368      4.020132  22 H  s               198      3.958571  12 H  s         
   377     -2.752769  23 H  s               351      2.226110  21 C  px        
   464      2.168349  29 C  s               207     -1.973726  13 H  s         
   147     -1.948638   9 C  px               37     -1.810826   3 H  s         

 Vector   72  Occ=0.000000D+00  E= 7.493702D-02
              MO Center=  4.8D-01,  2.7D-01,  7.7D-02, r^2= 4.2D+01
   Bfn.  Coefficient  Atom+Function         Bfn.  Coefficient  Atom+Function  
  ----- ------------  ---------------      ----- ------------  ---------------
   420      5.853289  26 H  s                56      4.264818   5 C  s         
   334     -3.860960  20 H  s               547      3.480168  33 H  s         
   130      3.351680   8 H  s               149      3.158742   9 C  pz        
   411     -3.085219  25 H  s               276      3.051033  17 N  s         
   174     -2.986626  11 C  s               164     -2.741665  10 H  s         

 Vector   73  Occ=0.000000D+00  E= 7.686362D-02
              MO Center=  4.6D-01,  2.1D+00, -4.1D-01, r^2= 4.2D+01
   Bfn.  Coefficient  Atom+Function         Bfn.  Coefficient  Atom+Function  
  ----- ------------  ---------------      ----- ------------  ---------------
   411      6.691231  25 H  s               514     -5.598496  31 N  s         
   198     -4.254432  12 H  s               301     -3.813323  18 C  s         
   464      3.690767  29 C  s               454      3.365236  28 H  s         
   344     -3.311547  21 C  s               394      3.154646  24 C  px        
   377     -3.125596  23 H  s               368     -3.062084  22 H  s         

 Vector   74  Occ=0.000000D+00  E= 8.268186D-02
              MO Center=  1.0D+00,  3.1D-01,  9.8D-01, r^2= 4.0D+01
   Bfn.  Coefficient  Atom+Function         Bfn.  Coefficient  Atom+Function  
  ----- ------------  ---------------      ----- ------------  ---------------
   334      5.801049  20 H  s               207      5.538158  13 H  s         
   164     -5.216533  10 H  s               377     -5.123984  23 H  s         
    56      4.308252   5 C  s               325     -4.075607  19 H  s         
   368      4.090144  22 H  s               216     -3.839308  14 H  s         
   454     -3.486158  28 H  s               283      3.275924  17 N  px        

 Vector   75  Occ=0.000000D+00  E= 8.777956D-02
              MO Center= -6.7D-01,  1.2D-01,  9.8D-01, r^2= 3.5D+01
   Bfn.  Coefficient  Atom+Function         Bfn.  Coefficient  Atom+Function  
  ----- ------------  ---------------      ----- ------------  ---------------
   164     11.369194  10 H  s               454     -6.746079  28 H  s         
   234      5.538010  15 C  py              148     -5.346046   9 C  py        
   420      4.798327  26 H  s                56     -4.685360   5 C  s         
   439      3.847784  27 C  pz              149     -3.529081   9 C  pz        
   301      3.512544  18 C  s               147      3.474374   9 C  px        

 Vector   76  Occ=0.000000D+00  E= 8.926701D-02
              MO Center=  4.5D-02, -1.6D-01, -2.3D-01, r^2= 4.3D+01
   Bfn.  Coefficient  Atom+Function         Bfn.  Coefficient  Atom+Function  
  ----- ------------  ---------------      ----- ------------  ---------------
   454      8.146749  28 H  s               368      6.038510  22 H  s         
   325     -5.112311  19 H  s               439     -5.032362  27 C  pz        
   130      3.889381   8 H  s                56      3.656917   5 C  s         
   334      3.650589  20 H  s                 3      3.604675   1 H  s         
   198     -3.336306  12 H  s               464      3.315709  29 C  s         

 Vector   77  Occ=0.000000D+00  E= 9.986438D-02
              MO Center=  6.4D-01, -1.1D-01,  1.4D+00, r^2= 4.0D+01
   Bfn.  Coefficient  Atom+Function         Bfn.  Coefficient  Atom+Function  
  ----- ------------  ---------------      ----- ------------  ---------------
   198     10.903222  12 H  s               454     -8.386308  28 H  s         
   301      6.850202  18 C  s               216     -5.823019  14 H  s         
    56     -5.140895   5 C  s                64     -4.654638   5 C  py        
   420     -4.456614  26 H  s               547      4.278182  33 H  s         
   411      4.153606  25 H  s               207     -3.899194  13 H  s         

 Vector   78  Occ=0.000000D+00  E= 1.069169D-01
              MO Center= -5.5D-01,  2.7D-01, -1.4D+00, r^2= 3.3D+01
   Bfn.  Coefficient  Atom+Function         Bfn.  Coefficient  Atom+Function  
  ----- ------------  ---------------      ----- ------------  ---------------
   547      9.762584  33 H  s               454      8.946213  28 H  s         
   198     -5.805699  12 H  s               164     -5.281975  10 H  s         
   325     -4.305345  19 H  s               344      4.063774  21 C  s         
   439     -3.798916  27 C  pz              148     -3.652575   9 C  py        
   234     -3.236449  15 C  py               56     -3.216331   5 C  s         

 Vector   79  Occ=0.000000D+00  E= 1.204319D-01
              MO Center= -5.0D-02, -1.2D+00,  4.6D-01, r^2= 3.3D+01
   Bfn.  Coefficient  Atom+Function         Bfn.  Coefficient  Atom+Function  
  ----- ------------  ---------------      ----- ------------  ---------------
    56     18.134026   5 C  s               387    -12.941154  24 C  s         
   174    -12.255406  11 C  s               438     11.688337  27 C  py        
   149     10.217062   9 C  pz              148     10.025217   9 C  py        
   464      6.864422  29 C  s               301      6.710732  18 C  s         
   164      6.236049  10 H  s               454     -5.859916  28 H  s         

 Vector   80  Occ=0.000000D+00  E= 1.230200D-01
              MO Center=  2.7D-01,  2.3D+00,  5.7D-01, r^2= 2.9D+01
   Bfn.  Coefficient  Atom+Function         Bfn.  Coefficient  Atom+Function  
  ----- ------------  ---------------      ----- ------------  ---------------
   464     29.025539  29 C  s               301     17.283852  18 C  s         
   387    -16.515928  24 C  s               344    -14.554249  21 C  s         
   438      9.787457  27 C  py              437      8.311976  27 C  px        
    56      8.129466   5 C  s               149      8.160897   9 C  pz        
   514     -7.975750  31 N  s               454      7.534689  28 H  s         

 Vector   81  Occ=0.000000D+00  E= 1.293090D-01
              MO Center= -4.1D-01,  6.6D-01,  1.0D-01, r^2= 3.4D+01
   Bfn.  Coefficient  Atom+Function         Bfn.  Coefficient  Atom+Function  
  ----- ------------  ---------------      ----- ------------  ---------------
   464    -13.416269  29 C  s               344     12.486487  21 C  s         
   438     -9.731362  27 C  py              387      7.813617  24 C  s         
   514      6.819380  31 N  s               471     -6.640403  29 C  px        
   301     -6.224644  18 C  s               164     -6.034750  10 H  s         
   377      4.549761  23 H  s               147     -4.494256   9 C  px        

 Vector   82  Occ=0.000000D+00  E= 1.360726D-01
              MO Center=  4.0D-01,  8.0D-01,  1.7D-01, r^2= 3.3D+01
   Bfn.  Coefficient  Atom+Function         Bfn.  Coefficient  Atom+Function  
  ----- ------------  ---------------      ----- ------------  ---------------
   301     15.821200  18 C  s               387    -14.598623  24 C  s         
   438     11.460946  27 C  py              148      9.851218   9 C  py        
   344     -6.456108  21 C  s               140      5.778953   9 C  s         
   283     -4.828391  17 N  px              284      4.526339  17 N  py        
   395      4.392520  24 C  py              285      4.367841  17 N  pz        

 Vector   83  Occ=0.000000D+00  E= 1.381422D-01
              MO Center=  7.4D-01,  3.0D-01,  1.0D+00, r^2= 2.9D+01
   Bfn.  Coefficient  Atom+Function         Bfn.  Coefficient  Atom+Function  
  ----- ------------  ---------------      ----- ------------  ---------------
    56     10.484227   5 C  s               344      9.695180  21 C  s         
   174     -8.556513  11 C  s               234     -8.307790  15 C  py        
   387     -7.965058  24 C  s               148      5.857435   9 C  py        
   276      5.727353  17 N  s               183      5.526242  11 C  pz        
   149      4.985380   9 C  pz              207     -4.758105  13 H  s         

 Vector   84  Occ=0.000000D+00  E= 1.405369D-01
              MO Center=  9.8D-01, -1.0D+00,  4.5D-01, r^2= 3.2D+01
   Bfn.  Coefficient  Atom+Function         Bfn.  Coefficient  Atom+Function  
  ----- ------------  ---------------      ----- ------------  ---------------
   438     13.321184  27 C  py              344    -13.115505  21 C  s         
   148     12.453440   9 C  py              106      6.499301   7 N  s         
   387     -6.455455  24 C  s               301      4.443678  18 C  s         
   164      4.268310  10 H  s               233     -4.061715  15 C  px        
   396     -3.763637  24 C  pz              140      3.738764   9 C  s         

 Vector   85  Occ=0.000000D+00  E= 1.480507D-01
              MO Center= -4.1D-01,  1.6D+00, -1.0D+00, r^2= 2.9D+01
   Bfn.  Coefficient  Atom+Function         Bfn.  Coefficient  Atom+Function  
  ----- ------------  ---------------      ----- ------------  ---------------
   344     11.427505  21 C  s               514     10.470024  31 N  s         
   464    -10.033157  29 C  s               473      7.259883  29 C  pz        
   309     -5.946291  18 C  py              301     -5.790668  18 C  s         
   430     -5.545190  27 C  s               235      5.301161  15 C  pz        
[...]
   Bfn.  Coefficient  Atom+Function         Bfn.  Coefficient  Atom+Function  
  ----- ------------  ---------------      ----- ------------  ---------------
    56     19.851899   5 C  s               148     18.028107   9 C  py        
   149     15.634073   9 C  pz              234    -14.775987  15 C  py        
   514     14.447955  31 N  s               276     14.279519  17 N  s         
   174    -14.064704  11 C  s               301     -9.508260  18 C  s         
   226     -9.225572  15 C  s                13     -8.644644   2 C  s         

 Vector  156  Occ=0.000000D+00  E= 4.350746D-01
              MO Center=  5.4D-02, -9.5D-02,  3.0D-01, r^2= 2.0D+01
   Bfn.  Coefficient  Atom+Function         Bfn.  Coefficient  Atom+Function  
  ----- ------------  ---------------      ----- ------------  ---------------
   464     19.320394  29 C  s               438     17.990012  27 C  py        
   514    -15.768035  31 N  s               147      9.538940   9 C  px        
   430      9.177930  27 C  s               173      8.800921  11 C  s         
   234     -8.312628  15 C  py              472     -8.237370  29 C  py        
   344     -8.124656  21 C  s               197     -7.255736  12 H  s         

 Vector  157  Occ=0.000000D+00  E= 4.388920D-01
              MO Center= -5.8D-02, -6.7D-01, -3.3D-01, r^2= 2.3D+01
   Bfn.  Coefficient  Atom+Function         Bfn.  Coefficient  Atom+Function  
  ----- ------------  ---------------      ----- ------------  ---------------
   438      9.966735  27 C  py              226      7.687318  15 C  s         
   344     -7.631395  21 C  s               106     -7.487845   7 N  s         
    13      7.240989   2 C  s               173      6.830688  11 C  s         
   163     -6.631134  10 H  s               283     -6.319249  17 N  px        
    64      6.280230   5 C  py              233     -5.514581  15 C  px        

 Vector  158  Occ=0.000000D+00  E= 4.411426D-01
              MO Center=  4.7D-01, -1.8D-01, -6.7D-01, r^2= 2.2D+01
   Bfn.  Coefficient  Atom+Function         Bfn.  Coefficient  Atom+Function  
  ----- ------------  ---------------      ----- ------------  ---------------
   301    -13.980897  18 C  s                56     12.866953   5 C  s         
   226     -9.008633  15 C  s               283      9.049634  17 N  px        
   140     -8.065969   9 C  s               276      7.540405  17 N  s         
   174     -7.120674  11 C  s               387      6.451278  24 C  s         
   300     -5.732848  18 C  s               163      5.586148  10 H  s         

 Vector  159  Occ=0.000000D+00  E= 4.438771D-01
              MO Center=  1.5D-01, -5.7D-01, -2.3D-01, r^2= 2.2D+01
   Bfn.  Coefficient  Atom+Function         Bfn.  Coefficient  Atom+Function  
  ----- ------------  ---------------      ----- ------------  ---------------
   301     13.988292  18 C  s               344      7.372230  21 C  s         
   276     -6.758213  17 N  s               387     -6.223020  24 C  s         
   148      6.058931   9 C  py              235      5.924244  15 C  pz        
   438     -5.779524  27 C  py              396      5.169286  24 C  pz        
   149     -4.757385   9 C  pz              283     -4.727289  17 N  px        

 Vector  160  Occ=0.000000D+00  E= 4.458257D-01
              MO Center= -5.8D-01, -5.1D-01,  4.4D-02, r^2= 2.0D+01
   Bfn.  Coefficient  Atom+Function         Bfn.  Coefficient  Atom+Function  
  ----- ------------  ---------------      ----- ------------  ---------------
   301     19.456303  18 C  s                56    -17.092250   5 C  s         
   106     -8.922229   7 N  s               387     -8.092353  24 C  s         
   149     -7.781097   9 C  pz              234     -7.413494  15 C  py        
   344     -7.132943  21 C  s               235      6.261718  15 C  pz        
   226      5.670812  15 C  s               114     -5.568488   7 N  py        

 Vector  161  Occ=0.000000D+00  E= 4.522973D-01
              MO Center=  5.7D-01,  1.4D+00, -6.8D-01, r^2= 1.6D+01
   Bfn.  Coefficient  Atom+Function         Bfn.  Coefficient  Atom+Function  
  ----- ------------  ---------------      ----- ------------  ---------------
   301     24.316161  18 C  s               387    -22.566211  24 C  s         
   464     11.494731  29 C  s               285      9.332289  17 N  pz        
    56      9.175418   5 C  s               235     -8.265703  15 C  pz        
   343      8.054612  21 C  s               174     -7.572489  11 C  s         
   283     -7.192159  17 N  px               12     -6.548664   2 C  s         

 Vector  162  Occ=0.000000D+00  E= 4.551425D-01
              MO Center=  5.3D-01, -6.0D-01,  3.9D-01, r^2= 1.9D+01
   Bfn.  Coefficient  Atom+Function         Bfn.  Coefficient  Atom+Function  
  ----- ------------  ---------------      ----- ------------  ---------------
   276     17.006778  17 N  s               438     16.751924  27 C  py        
   148     14.209175   9 C  py              387    -12.353295  24 C  s         
   149     11.228212   9 C  pz              464    -10.417260  29 C  s         
   514     10.087704  31 N  s                56      9.970559   5 C  s         
   174     -8.963908  11 C  s               344     -8.834335  21 C  s         

 Vector  163  Occ=0.000000D+00  E= 4.645073D-01
              MO Center= -1.5D-01, -3.8D-01,  6.1D-01, r^2= 1.9D+01
   Bfn.  Coefficient  Atom+Function         Bfn.  Coefficient  Atom+Function  
  ----- ------------  ---------------      ----- ------------  ---------------
   344     17.166594  21 C  s               464    -16.151603  29 C  s         
   514     16.055394  31 N  s               276     11.925594  17 N  s         
   301    -10.633292  18 C  s               283     -6.745169  17 N  px        
   140     -6.628570   9 C  s               174     -6.512964  11 C  s         
    56      6.137398   5 C  s               438     -5.859311  27 C  py        

 Vector  164  Occ=0.000000D+00  E= 4.671510D-01
              MO Center=  2.1D-01,  1.1D+00, -1.2D-01, r^2= 1.8D+01
   Bfn.  Coefficient  Atom+Function         Bfn.  Coefficient  Atom+Function  
  ----- ------------  ---------------      ----- ------------  ---------------
   514     10.954366  31 N  s                56     -8.435304   5 C  s         
   419     -7.932971  26 H  s               387      7.550356  24 C  s         
   472      7.130493  29 C  py              148      6.464786   9 C  py        
   439     -6.394610  27 C  pz              386      6.189647  24 C  s         
   324     -6.135641  19 H  s                81      5.892797   6 O  s         

 Vector  165  Occ=0.000000D+00  E= 4.719640D-01
              MO Center= -3.1D-02,  9.3D-01, -4.1D-02, r^2= 1.9D+01
   Bfn.  Coefficient  Atom+Function         Bfn.  Coefficient  Atom+Function  
  ----- ------------  ---------------      ----- ------------  ---------------
   419     -8.998110  26 H  s               386      8.684889  24 C  s         
   464      8.073116  29 C  s               394      5.446112  24 C  px        
    12      4.958114   2 C  s               235     -4.924340  15 C  pz        
   301      4.717082  18 C  s               453     -4.571276  28 H  s         
   344     -4.280575  21 C  s               351     -4.083920  21 C  px        

 Vector  166  Occ=0.000000D+00  E= 4.758532D-01
              MO Center=  4.3D-02,  8.0D-02, -4.4D-01, r^2= 2.0D+01
   Bfn.  Coefficient  Atom+Function         Bfn.  Coefficient  Atom+Function  
  ----- ------------  ---------------      ----- ------------  ---------------
   284      8.438211  17 N  py              344     -7.664915  21 C  s         
   106     -6.815300   7 N  s               301      5.466329  18 C  s         
   514     -4.968144  31 N  s               351      4.873890  21 C  px        
   174      4.595831  11 C  s               368      3.997713  22 H  s         
   521     -3.943532  31 N  px              367      3.843841  22 H  s         

 Vector  167  Occ=0.000000D+00  E= 4.828929D-01
              MO Center=  4.0D-01,  1.2D+00,  5.0D-01, r^2= 1.9D+01
   Bfn.  Coefficient  Atom+Function         Bfn.  Coefficient  Atom+Function  
  ----- ------------  ---------------      ----- ------------  ---------------
   148     13.026091   9 C  py              464    -10.117908  29 C  s         
   438      9.179293  27 C  py              173      8.625026  11 C  s         
   197     -7.978885  12 H  s               344     -7.798736  21 C  s         
    13      7.704034   2 C  s               206     -6.923725  13 H  s         
   309      6.673841  18 C  py              140      6.077900   9 C  s         

 Vector  168  Occ=0.000000D+00  E= 4.883686D-01
              MO Center=  4.3D-01, -3.5D-02,  1.1D+00, r^2= 1.6D+01
   Bfn.  Coefficient  Atom+Function         Bfn.  Coefficient  Atom+Function  
  ----- ------------  ---------------      ----- ------------  ---------------
    56     12.092472   5 C  s               284    -10.776174  17 N  py        
   464     10.740458  29 C  s               149      8.584246   9 C  pz        
   387     -8.054102  24 C  s                13     -7.395257   2 C  s         
   163      7.368953  10 H  s               148     -6.854362   9 C  py        
   514      6.710288  31 N  s               174     -6.661993  11 C  s         

 Vector  169  Occ=0.000000D+00  E= 4.921686D-01
              MO Center= -1.3D-01,  1.0D+00, -7.5D-01, r^2= 1.7D+01
   Bfn.  Coefficient  Atom+Function         Bfn.  Coefficient  Atom+Function  
  ----- ------------  ---------------      ----- ------------  ---------------
   344     26.332636  21 C  s               148    -15.679954   9 C  py        
   367    -10.921391  22 H  s               284    -10.545623  17 N  py        
   438     -9.208659  27 C  py              343      7.785322  21 C  s         
   309     -7.338930  18 C  py              235      7.235467  15 C  pz        
    13     -6.289384   2 C  s               106     -6.310969   7 N  s         

 Vector  170  Occ=0.000000D+00  E= 4.958937D-01
              MO Center=  4.3D-01, -8.9D-02, -2.9D-02, r^2= 1.8D+01
   Bfn.  Coefficient  Atom+Function         Bfn.  Coefficient  Atom+Function  
  ----- ------------  ---------------      ----- ------------  ---------------
    56     31.367215   5 C  s               464     17.639714  29 C  s         
   149     13.760149   9 C  pz              174    -13.042553  11 C  s         
   438     12.240581  27 C  py              226    -11.995623  15 C  s         
   148     10.368239   9 C  py              387    -10.254443  24 C  s         
   333      9.949849  20 H  s               140     -8.839489   9 C  s         

 Vector  171  Occ=0.000000D+00  E= 4.986826D-01
              MO Center=  4.4D-01,  3.4D-01, -1.4D-01, r^2= 1.7D+01
   Bfn.  Coefficient  Atom+Function         Bfn.  Coefficient  Atom+Function  
  ----- ------------  ---------------      ----- ------------  ---------------
   344     21.826967  21 C  s                56     19.560542   5 C  s         
   174    -13.602443  11 C  s               276     11.410880  17 N  s         
   226     -9.823904  15 C  s               284     -8.662837  17 N  py        
   376     -8.694426  23 H  s               149      7.984756   9 C  pz        
    13     -7.573250   2 C  s               148      7.446660   9 C  py        

 Vector  172  Occ=0.000000D+00  E= 5.035607D-01
              MO Center=  2.3D-01,  1.1D+00, -1.7D-01, r^2= 1.8D+01
   Bfn.  Coefficient  Atom+Function         Bfn.  Coefficient  Atom+Function  
  ----- ------------  ---------------      ----- ------------  ---------------
   344     24.444769  21 C  s               464    -22.120338  29 C  s         
   438    -13.241551  27 C  py              301    -12.683880  18 C  s         
   387     12.670218  24 C  s               514     12.392088  31 N  s         
   430     -8.899738  27 C  s               276     -7.137335  17 N  s         
   149     -7.044345   9 C  pz              472      6.892710  29 C  py        


 center of mass
 --------------
 x =  -0.03730390 y =   0.00730486 z =  -0.01988231

 moments of inertia (a.u.)
 ------------------
        4841.279767802253          -0.000000000001          -0.000000000002
          -0.000000000001        2206.282109844275          -0.000000000001
          -0.000000000002          -0.000000000001        5434.949398477314

  Mulliken analysis of the total density
  --------------------------------------

    Atom       Charge   Shell Charges
 -----------   ------   -------------------------------------------------------
    1 H    1     1.01   0.76  0.26  0.00  0.03 -0.05
    2 C    6     6.16   2.01  0.66  0.23  0.04  2.07  1.01  0.01  0.06  0.09
    3 H    1     0.87   0.76  0.14 -0.00  0.03 -0.06
    4 H    1     0.87   0.76  0.14 -0.00  0.03 -0.06
    5 C    6     5.13   2.01  0.68  0.10 -0.09  1.89  0.30  0.01  0.24 -0.01
    6 O    8     8.80   2.01  0.82  0.99  0.17  2.80  1.85  0.17  0.01 -0.01
    7 N    7     7.85   2.01  0.72  0.93  0.01  2.45  1.45  0.15  0.05  0.08
    8 H    1     0.96   0.77  0.19 -0.01  0.05 -0.05
    9 C    6     6.57   2.01  0.66  0.31 -0.04  2.00  1.23  0.03  0.14  0.23
   10 H    1     1.15   0.79  0.31 -0.01  0.03  0.03
   11 C    6     5.44   2.01  0.66  0.19  0.02  2.04  0.50 -0.04  0.07 -0.02
   12 H    1     0.99   0.77  0.24  0.01  0.03 -0.07
   13 H    1     0.91   0.77  0.21 -0.01  0.03 -0.10
   14 H    1     0.91   0.77  0.19  0.01  0.03 -0.09
   15 C    6     4.41   2.01  0.68 -0.06  0.04  1.88  0.20 -0.14  0.23 -0.43
   16 O    8     8.91   2.01  0.82  1.06  0.20  2.78  1.87  0.15  0.01  0.00
   17 N    7     7.71   2.01  0.71  0.74 -0.01  2.44  1.58  0.10  0.06  0.08
   18 C    6     5.94   2.01  0.67  0.55 -0.04  2.01  0.45  0.04  0.12  0.12
   19 H    1     0.90   0.78  0.19 -0.01  0.03 -0.09
   20 H    1     0.89   0.79  0.16 -0.02  0.03 -0.07
   21 C    6     5.88   2.01  0.66  0.23 -0.02  2.04  0.78  0.10  0.09 -0.01
   22 H    1     0.98   0.79  0.27 -0.03  0.03 -0.08
   23 H    1     1.03   0.78  0.33  0.01  0.03 -0.12
   24 C    6     6.07   2.01  0.66  0.45 -0.08  2.04  0.78  0.04  0.09  0.07
   25 H    1     0.97   0.77  0.27 -0.00  0.03 -0.10
   26 H    1     0.89   0.79  0.19 -0.02  0.03 -0.10
   27 C    6     6.20   2.01  0.67  0.13 -0.01  2.00  1.09  0.11  0.14  0.08
   28 H    1     1.17   0.79  0.37 -0.01  0.03  0.00
   29 C    6     4.61   2.01  0.68  0.06  0.02  1.89 -0.21  0.03  0.24 -0.11
   30 O    8     8.88   2.01  0.82  1.05  0.20  2.79  1.85  0.14  0.01  0.00
   31 N    7     7.16   2.01  0.72  0.80 -0.20  2.46  1.25  0.09  0.04 -0.02
   32 H    1     1.01   0.75  0.23 -0.01  0.05 -0.02
   33 H    1     0.78   0.74  0.09 -0.01  0.06 -0.09

       Multipole analysis of the density wrt the origin
       ------------------------------------------------

     L   x y z        total         open         nuclear
     -   - - -        -----         ----         -------
     0   0 0 0      0.000000      0.000000    122.000000

     1   1 0 0      1.009824      0.000000     -0.000000
     1   0 1 0     -0.767554      0.000000     -0.000000
     1   0 0 1      0.641805      0.000000      0.000000

     2   2 0 0    -82.068290      0.000000    759.784106
     2   1 1 0      8.580792      0.000000     27.403164
     2   1 0 1      7.200338      0.000000     17.288385
     2   0 2 0    -61.371046      0.000000   2274.082878
     2   0 1 1     -8.251452      0.000000    -19.204371
     2   0 0 2    -70.549128      0.000000    483.671054


 Task  times  cpu:     4727.9s     wall:     4922.0s


                                NWChem Input Module
                                -------------------


 Summary of allocated global arrays
-----------------------------------
  No active global arrays


MA_summarize_allocated_blocks: starting scan ...
MA_summarize_allocated_blocks: scan completed: 0 heap blocks, 0 stack blocks
MA usage statistics:

	allocation statistics:
					      heap	     stack
					      ----	     -----
	current number of blocks	         0	         0
	maximum number of blocks	        16	        14
	current total bytes		         0	         0
	maximum total bytes		    116920	  26223272
	maximum total K-bytes		       117	     26224
	maximum total M-bytes		         1	        27


                                     CITATION
                                     --------
                Please cite the following reference when publishing
                           results obtained with NWChem:

          E. Apra, E. J. Bylaska, W. A. de Jong, N. Govind, K. Kowalski,
       T. P. Straatsma, M. Valiev, H. J. J. van Dam, Y. Alexeev, J. Anchell,
       V. Anisimov, F. W. Aquino, R. Atta-Fynn, J. Autschbach, N. P. Bauman,
     J. C. Becca, D. E. Bernholdt, K. Bhaskaran-Nair, S. Bogatko, P. Borowski,
         J. Boschen, J. Brabec, A. Bruner, E. Cauet, Y. Chen, G. N. Chuev,
      C. J. Cramer, J. Daily, M. J. O. Deegan, T. H. Dunning Jr., M. Dupuis,
   K. G. Dyall, G. I. Fann, S. A. Fischer, A. Fonari, H. Fruchtl, L. Gagliardi,
      J. Garza, N. Gawande, S. Ghosh, K. Glaesemann, A. W. Gotz, J. Hammond,
       V. Helms, E. D. Hermes, K. Hirao, S. Hirata, M. Jacquelin, L. Jensen,
   B. G. Johnson, H. Jonsson, R. A. Kendall, M. Klemm, R. Kobayashi, V. Konkov,
      S. Krishnamoorthy, M. Krishnan, Z. Lin, R. D. Lins, R. J. Littlefield,
      A. J. Logsdail, K. Lopata, W. Ma, A. V. Marenich, J. Martin del Campo,
   D. Mejia-Rodriguez, J. E. Moore, J. M. Mullin, T. Nakajima, D. R. Nascimento,
    J. A. Nichols, P. J. Nichols, J. Nieplocha, A. Otero-de-la-Roza, B. Palmer,
    A. Panyala, T. Pirojsirikul, B. Peng, R. Peverati, J. Pittner, L. Pollack,
   R. M. Richard, P. Sadayappan, G. C. Schatz, W. A. Shelton, D. W. Silverstein,
   D. M. A. Smith, T. A. Soares, D. Song, M. Swart, H. L. Taylor, G. S. Thomas,
            V. Tipparaju, D. G. Truhlar, K. Tsemekhman, T. Van Voorhis,
      A. Vazquez-Mayagoitia, P. Verma, O. Villa, A. Vishnu, K. D. Vogiatzis,
        D. Wang, J. H. Weare, M. J. Williamson, T. L. Windus, K. Wolinski,
        A. T. Wong, Q. Wu, C. Yang, Q. Yu, M. Zacharias, Z. Zhang, Y. Zhao,
                                and R. J. Harrison
                        "NWChem: Past, present, and future
                         J. Chem. Phys. 152, 184102 (2020)
                               doi:10.1063/5.0004997

                                      AUTHORS
                                      -------
  E. Apra, E. J. Bylaska, N. Govind, K. Kowalski, M. Valiev, D. Mejia-Rodriguez,
       A. Kunitsa, N. P. Bauman, A. Panyala, W. A. de Jong, T. P. Straatsma,
   H. J. J. van Dam, D. Wang, T. L. Windus, J. Hammond, J. Autschbach, A. Woods,
    K. Bhaskaran-Nair, J. Brabec, K. Lopata, S. A. Fischer, S. Krishnamoorthy,
     M. Jacquelin, W. Ma, M. Klemm, O. Villa, Y. Chen, V. Anisimov, F. Aquino,
     S. Hirata, M. T. Hackler, E. Hermes, L. Jensen, J. E. Moore, J. C. Becca,
      V. Konjkov, T. Risthaus, M. Malagoli, A. Marenich, A. Otero-de-la-Roza,
        J. Mullin, P. Nichols, R. Peverati, J. Pittner, Y. Zhao, P.-D. Fan,
        A. Fonari, M. J. Williamson, R. J. Harrison, J. R. Rehr, M. Dupuis,
     D. Silverstein, D. M. A. Smith, J. Nieplocha, V. Tipparaju, M. Krishnan,
     B. E. Van Kuiken, A. Vazquez-Mayagoitia, M. Swart, Q. Wu, T. Van Voorhis,
     A. A. Auer, M. Nooijen, L. D. Crosby, E. Brown, G. Cisneros, G. I. Fann,
   H. Fruchtl, J. Garza, K. Hirao, R. A. Kendall, J. A. Nichols, K. Tsemekhman,
    K. Wolinski, J. Anchell, D. E. Bernholdt, P. Borowski, T. Clark, D. Clerc,
   H. Dachsel, M. J. O. Deegan, K. Dyall, D. Elwood, E. Glendening, M. Gutowski,
   A. C. Hess, J. Jaffe, B. G. Johnson, J. Ju, R. Kobayashi, R. Kutteh, Z. Lin,
   R. Littlefield, X. Long, B. Meng, T. Nakajima, S. Niu, L. Pollack, M. Rosing,
   K. Glaesemann, G. Sandrone, M. Stave, H. Taylor, G. Thomas, J. H. van Lenthe,
                               A. T. Wong, Z. Zhang.

 Total times  cpu:     4727.9s     wall:     4922.8s
