export TMOUT=5400
export TMPDIR=/tmp
export PTMPDIR=/tmp/ptmp
 argument  1 = ALA_LEU_4.nw
                                         
                                         


             Northwest Computational Chemistry Package (NWChem) 7.2.0
             --------------------------------------------------------


                    Environmental Molecular Sciences Laboratory
                       Pacific Northwest National Laboratory
                                Richland, WA 99352

                              Copyright (c) 1994-2022
                       Pacific Northwest National Laboratory
                            Battelle Memorial Institute

             NWChem is an open-source computational chemistry package
                        distributed under the terms of the
                      Educational Community License (ECL) 2.0
             A copy of the license is included with this distribution
                              in the LICENSE.TXT file

                                  ACKNOWLEDGMENT
                                  --------------

            This software and its documentation were developed at the
            EMSL at Pacific Northwest National Laboratory, a multiprogram
            national laboratory, operated for the U.S. Department of Energy
            by Battelle under Contract Number DE-AC05-76RL01830. Support
            for this work was provided by the Department of Energy Office
            of Biological and Environmental Research, Office of Basic
            Energy Sciences, and the Office of Advanced Scientific Computing.


           Job information
           ---------------

    hostname        = nova18-22
    program         = /opt/rit/el9/20230413/app/linux-rhel9-x86_64_v3/gcc-11.2.1/nwchem-7.2.0-oxtctbuhfuzyfaoziquq6bki22grib3g/bin/nwchem
    date            = Fri Jun 27 18:30:50 2025

    compiled        = Wed_May_17_23:46:39_2023
    source          = /tmp/root/spack-stage/spack-stage-nwchem-7.2.0-oxtctbuhfuzyfaoziquq6bki22grib3g/spack-src
    nwchem branch   = 7.2.0
    nwchem revision = d0d141fd
    ga revision     = 5.8.0
    use scalapack   = T
    input           = ALA_LEU_4.nw
    prefix          = ALA_LEU_4.
    data base       = ./ALA_LEU_4.db
    status          = startup
    nproc           =        8
    time left       =     -1s



           Memory information
           ------------------

    heap     =   26214396 doubles =    200.0 Mbytes
    stack    =   26214401 doubles =    200.0 Mbytes
    global   =   52428800 doubles =    400.0 Mbytes (distinct from heap & stack)
    total    =  104857597 doubles =    800.0 Mbytes
    verify   = yes
    hardfail = no 


           Directory information
           ---------------------

  0 permanent = .
  0 scratch   = .




                                NWChem Input Module
                                -------------------



 Scaling coordinates for geometry "geometry" by  1.889725989
 (inverse scale =  0.529177249)

 C1  symmetry detected

          ------
          auto-z
          ------
  no constraints, skipping    0.0000000000000000     
  no constraints, skipping    0.0000000000000000     


                             Geometry "geometry" -> ""
                             -------------------------

 Output coordinates in angstroms (scale by  1.889725989 to convert to a.u.)

  No.       Tag          Charge          X              Y              Z
 ---- ---------------- ---------- -------------- -------------- --------------
    1 H                    1.0000     0.85059650    -5.84393198    -1.12853436
    2 C                    6.0000    -0.20249170    -5.58875720    -1.22559656
    3 H                    1.0000    -0.81225380    -6.47017606    -1.03423053
    4 H                    1.0000    -0.40439742    -5.21410764    -2.22779254
    5 C                    6.0000    -0.55353087    -4.52270162    -0.21292929
    6 O                    8.0000    -1.40528538    -4.74002882     0.63769233
    7 N                    7.0000     0.10252458    -3.36958989    -0.31248621
    8 H                    1.0000     0.76555743    -3.25180855    -1.06383167
    9 C                    6.0000    -0.10482901    -2.21554176     0.56150602
   10 H                    1.0000    -1.15016383    -2.19320570     0.87577218
   11 C                    6.0000     0.77447854    -2.37285568     1.81011828
   12 H                    1.0000     1.82687721    -2.40100764     1.52344337
   13 H                    1.0000     0.61457227    -1.53426532     2.48894608
   14 H                    1.0000     0.51841977    -3.29776995     2.33004952
   15 C                    6.0000     0.19526929    -0.89750190    -0.17612865
   16 O                    8.0000     0.88542419    -0.88980926    -1.19693816
   17 N                    7.0000    -0.31090498     0.22306783     0.34634345
   18 H                    1.0000    -0.83143396     0.15884076     1.20750050
   19 C                    6.0000    -0.00605153     1.55949578    -0.16939651
   20 H                    1.0000    -0.09223828     1.53322569    -1.25666038
   21 C                    6.0000    -1.04823142     2.55392861     0.38129708
   22 H                    1.0000    -2.04012227     2.23718279     0.05472299
   23 H                    1.0000    -1.02157133     2.50803096     1.47108956
   24 C                    6.0000    -0.82930110     4.02066781    -0.03931036
   25 H                    1.0000     0.15348691     4.35639600     0.29123966
   26 C                    6.0000    -0.93369383     4.21126028    -1.55497611
   27 H                    1.0000    -0.83487504     5.26947853    -1.79717432
   28 H                    1.0000    -0.13354582     3.67269980    -2.05982239
   29 H                    1.0000    -1.89728459     3.85037834    -1.91263247
   30 C                    6.0000    -1.88498366     4.90597749     0.62293061
   31 H                    1.0000    -2.88290225     4.60888888     0.30062973
   32 H                    1.0000    -1.81323205     4.81294131     1.70650108
   33 H                    1.0000    -1.71362915     5.94803720     0.35331942
   34 C                    6.0000     1.43606922     1.96116840     0.19144812
   35 O                    8.0000     1.78708669     2.06507155     1.36021536
   36 N                    7.0000     2.27831679     2.22079376    -0.79812487
   37 H                    1.0000     1.99254874     2.08080449    -1.75261355
   38 H                    1.0000     3.22200877     2.47675713    -0.56158057

      Atomic Mass 
      ----------- 

      H                  1.007825
      C                 12.000000
      O                 15.994910
      N                 14.003070


 Effective nuclear repulsion energy (a.u.)    1265.6095664828

            Nuclear Dipole moment (a.u.) 
            ----------------------------
        X                 Y               Z
 ---------------- ---------------- ----------------
     0.0000000000    -0.0000000000    -0.0000000000



                                Z-matrix (autoz)
                                -------- 

 Units are Angstrom for bonds and degrees for angles

      Type          Name      I     J     K     L     M      Value
      ----------- --------  ----- ----- ----- ----- ----- ----------
    1 Stretch                  1     2                       1.08790
    2 Stretch                  2     3                       1.08873
    3 Stretch                  2     4                       1.08882
    4 Stretch                  2     5                       1.51169
    5 Stretch                  5     6                       1.22322
    6 Stretch                  5     7                       1.33041
    7 Stretch                  7     8                       1.00896
    8 Stretch                  7     9                       1.46242
    9 Stretch                  9    10                       1.09178
   10 Stretch                  9    11                       1.53524
   11 Stretch                  9    15                       1.53993
   12 Stretch                 11    12                       1.09111
   13 Stretch                 11    13                       1.09069
   14 Stretch                 11    14                       1.09149
   15 Stretch                 15    16                       1.23224
   16 Stretch                 15    17                       1.33599
   17 Stretch                 17    18                       1.00830
   18 Stretch                 17    19                       1.46457
   19 Stretch                 19    20                       1.09099
   20 Stretch                 19    21                       1.54217
   21 Stretch                 19    34                       1.53989
   22 Stretch                 21    22                       1.09125
   23 Stretch                 21    23                       1.09108
   24 Stretch                 21    24                       1.54148
   25 Stretch                 24    25                       1.08988
   26 Stretch                 24    26                       1.53116
   27 Stretch                 24    30                       1.52866
   28 Stretch                 26    27                       1.09007
   29 Stretch                 26    28                       1.08865
   30 Stretch                 26    29                       1.08934
   31 Stretch                 30    31                       1.08995
   32 Stretch                 30    32                       1.08992
   33 Stretch                 30    33                       1.08993
   34 Stretch                 34    35                       1.22476
   35 Stretch                 34    36                       1.32516
   36 Stretch                 36    37                       1.00614
   37 Stretch                 36    38                       1.00599
   38 Bend                     1     2     3               109.66801
   39 Bend                     1     2     4               110.01899
   40 Bend                     1     2     5               109.29487
   41 Bend                     2     5     6               120.14852
   42 Bend                     2     5     7               116.52503
   43 Bend                     3     2     4               109.66371
   44 Bend                     3     2     5               108.85188
   45 Bend                     4     2     5               109.32235
   46 Bend                     5     7     8               118.74787
   47 Bend                     5     7     9               124.70345
   48 Bend                     6     5     7               123.32586
   49 Bend                     7     9    10               108.90057
   50 Bend                     7     9    11               108.90409
   51 Bend                     7     9    15               111.19391
   52 Bend                     8     7     9               116.49342
   53 Bend                     9    11    12               109.96151
   54 Bend                     9    11    13               110.08595
   55 Bend                     9    11    14               109.86959
   56 Bend                     9    15    16               120.75078
   57 Bend                     9    15    17               117.17675
   58 Bend                    10     9    11               108.44374
   59 Bend                    10     9    15               107.87592
   60 Bend                    11     9    15               111.44836
   61 Bend                    12    11    13               108.95158
   62 Bend                    12    11    14               109.24222
   63 Bend                    13    11    14               108.70253
   64 Bend                    15    17    18               118.43559
   65 Bend                    15    17    19               123.28415
   66 Bend                    16    15    17               122.06881
   67 Bend                    17    19    20               108.21149
   68 Bend                    17    19    21               108.78353
   69 Bend                    17    19    34               110.51426
   70 Bend                    18    17    19               117.79688
   71 Bend                    19    21    22               108.67648
   72 Bend                    19    21    23               108.24185
   73 Bend                    19    21    24               114.84377
   74 Bend                    19    34    35               120.94090
   75 Bend                    19    34    36               118.12164
   76 Bend                    20    19    21               108.54262
   77 Bend                    20    19    34               108.28807
   78 Bend                    21    19    34               112.39584
   79 Bend                    21    24    25               109.78056
   80 Bend                    21    24    26               112.26272
   81 Bend                    21    24    30               109.55859
   82 Bend                    22    21    23               107.99364
   83 Bend                    22    21    24               108.88215
   84 Bend                    23    21    24               108.00453
   85 Bend                    24    26    27               109.54790
   86 Bend                    24    26    28               110.32552
   87 Bend                    24    26    29               110.12516
   88 Bend                    24    30    31               110.26261
   89 Bend                    24    30    32               109.62079
   90 Bend                    24    30    33               109.75327
   91 Bend                    25    24    26               108.86592
   92 Bend                    25    24    30               108.23675
   93 Bend                    26    24    30               108.03867
   94 Bend                    27    26    28               108.09450
   95 Bend                    27    26    29               109.19869
   96 Bend                    28    26    29               109.51194
   97 Bend                    31    30    32               109.32871
   98 Bend                    31    30    33               109.35355
   99 Bend                    32    30    33               108.49286
  100 Bend                    34    36    37               120.04269
  101 Bend                    34    36    38               118.06555
  102 Bend                    35    34    36               120.92004
  103 Bend                    37    36    38               121.66161
  104 Torsion                  1     2     5     6        -119.69952
  105 Torsion                  1     2     5     7          60.57082
  106 Torsion                  2     5     7     8           2.12947
  107 Torsion                  2     5     7     9         179.32540
  108 Torsion                  3     2     5     6           0.05920
  109 Torsion                  3     2     5     7        -179.67045
  110 Torsion                  4     2     5     6         119.82902
  111 Torsion                  4     2     5     7         -59.90064
  112 Torsion                  5     7     9    10         -31.89195
  113 Torsion                  5     7     9    11          86.18920
  114 Torsion                  5     7     9    15        -150.62627
  115 Torsion                  6     5     7     8        -177.59075
  116 Torsion                  6     5     7     9          -0.39482
  117 Torsion                  7     9    11    12          61.46762
  118 Torsion                  7     9    11    13        -178.48481
  119 Torsion                  7     9    11    14         -58.80296
  120 Torsion                  7     9    15    16         -19.68944
  121 Torsion                  7     9    15    17         160.99274
  122 Torsion                  8     7     9    10         145.36117
  123 Torsion                  8     7     9    11         -96.55768
  124 Torsion                  8     7     9    15          26.62685
  125 Torsion                  9    15    17    18           2.17186
  126 Torsion                  9    15    17    19         174.00971
  127 Torsion                 10     9    11    12         179.83639
  128 Torsion                 10     9    11    13         -60.11604
  129 Torsion                 10     9    11    14          59.56581
  130 Torsion                 10     9    15    16        -139.03723
  131 Torsion                 10     9    15    17          41.64494
  132 Torsion                 11     9    15    16         102.02454
  133 Torsion                 11     9    15    17         -77.29328
  134 Torsion                 12    11     9    15         -61.56461
  135 Torsion                 13    11     9    15          58.48296
  136 Torsion                 14    11     9    15         178.16481
  137 Torsion                 15    17    19    20          46.01020
  138 Torsion                 15    17    19    21         163.75338
  139 Torsion                 15    17    19    34         -72.40204
  140 Torsion                 16    15    17    18        -177.13631
  141 Torsion                 16    15    17    19          -5.29846
  142 Torsion                 17    19    21    22         -59.75297
  143 Torsion                 17    19    21    23          57.29571
  144 Torsion                 17    19    21    24         178.04194
  145 Torsion                 17    19    34    35         -61.83614
  146 Torsion                 17    19    34    36         119.66859
  147 Torsion                 18    17    19    20        -142.10314
  148 Torsion                 18    17    19    21         -24.35996
  149 Torsion                 18    17    19    34          99.48461
  150 Torsion                 19    21    24    25         -58.62078
  151 Torsion                 19    21    24    26          62.61321
  152 Torsion                 19    21    24    30        -177.35193
  153 Torsion                 19    34    36    37          -4.99293
  154 Torsion                 19    34    36    38        -179.57328
  155 Torsion                 20    19    21    22          57.78013
  156 Torsion                 20    19    21    23         174.82881
  157 Torsion                 20    19    21    24         -64.42496
  158 Torsion                 20    19    34    35         179.79833
  159 Torsion                 20    19    34    36           1.30306
  160 Torsion                 21    19    34    35          59.90155
  161 Torsion                 21    19    34    36        -118.59372
  162 Torsion                 21    24    26    27         176.45716
  163 Torsion                 21    24    26    28         -64.66222
  164 Torsion                 21    24    26    29          56.34063
  165 Torsion                 21    24    30    31         -61.29018
  166 Torsion                 21    24    30    32          59.11934
  167 Torsion                 21    24    30    33         178.18488
  168 Torsion                 22    21    19    34         177.52905
  169 Torsion                 22    21    24    25         179.28540
  170 Torsion                 22    21    24    26         -59.48061
  171 Torsion                 22    21    24    30          60.55425
  172 Torsion                 23    21    19    34         -65.42226
  173 Torsion                 23    21    24    25          62.25568
  174 Torsion                 23    21    24    26        -176.51033
  175 Torsion                 23    21    24    30         -56.47547
  176 Torsion                 24    21    19    34          55.32396
  177 Torsion                 25    24    26    27         -61.78539
  178 Torsion                 25    24    26    28          57.09524
  179 Torsion                 25    24    26    29         178.09809
  180 Torsion                 25    24    30    31         179.02729
  181 Torsion                 25    24    30    32         -60.56319
  182 Torsion                 25    24    30    33          58.50235
  183 Torsion                 26    24    30    31          61.29381
  184 Torsion                 26    24    30    32        -178.29667
  185 Torsion                 26    24    30    33         -59.23113
  186 Torsion                 27    26    24    30          55.54303
  187 Torsion                 28    26    24    30         174.42365
  188 Torsion                 29    26    24    30         -64.57350
  189 Torsion                 35    34    36    37         176.51147
  190 Torsion                 35    34    36    38           1.93112


            XYZ format geometry
            -------------------
    38
 geometry
 H                     0.85059650    -5.84393198    -1.12853436
 C                    -0.20249170    -5.58875720    -1.22559656
 H                    -0.81225380    -6.47017606    -1.03423053
 H                    -0.40439742    -5.21410764    -2.22779254
 C                    -0.55353087    -4.52270162    -0.21292929
 O                    -1.40528538    -4.74002882     0.63769233
 N                     0.10252458    -3.36958989    -0.31248621
 H                     0.76555743    -3.25180855    -1.06383167
 C                    -0.10482901    -2.21554176     0.56150602
 H                    -1.15016383    -2.19320570     0.87577218
 C                     0.77447854    -2.37285568     1.81011828
 H                     1.82687721    -2.40100764     1.52344337
 H                     0.61457227    -1.53426532     2.48894608
 H                     0.51841977    -3.29776995     2.33004952
 C                     0.19526929    -0.89750190    -0.17612865
 O                     0.88542419    -0.88980926    -1.19693816
 N                    -0.31090498     0.22306783     0.34634345
 H                    -0.83143396     0.15884076     1.20750050
 C                    -0.00605153     1.55949578    -0.16939651
 H                    -0.09223828     1.53322569    -1.25666038
 C                    -1.04823142     2.55392861     0.38129708
 H                    -2.04012227     2.23718279     0.05472299
 H                    -1.02157133     2.50803096     1.47108956
 C                    -0.82930110     4.02066781    -0.03931036
 H                     0.15348691     4.35639600     0.29123966
 C                    -0.93369383     4.21126028    -1.55497611
 H                    -0.83487504     5.26947853    -1.79717432
 H                    -0.13354582     3.67269980    -2.05982239
 H                    -1.89728459     3.85037834    -1.91263247
 C                    -1.88498366     4.90597749     0.62293061
 H                    -2.88290225     4.60888888     0.30062973
 H                    -1.81323205     4.81294131     1.70650108
 H                    -1.71362915     5.94803720     0.35331942
 C                     1.43606922     1.96116840     0.19144812
 O                     1.78708669     2.06507155     1.36021536
 N                     2.27831679     2.22079376    -0.79812487
 H                     1.99254874     2.08080449    -1.75261355
 H                     3.22200877     2.47675713    -0.56158057

 ==============================================================================
                                internuclear distances
 ------------------------------------------------------------------------------
       center one      |      center two      | atomic units |  angstroms
 ------------------------------------------------------------------------------
    2 C                |   1 H                |     2.05584  |     1.08790
    3 H                |   2 C                |     2.05740  |     1.08873
    4 H                |   2 C                |     2.05757  |     1.08882
    5 C                |   2 C                |     2.85667  |     1.51169
    6 O                |   5 C                |     2.31156  |     1.22322
    7 N                |   5 C                |     2.51411  |     1.33041
    8 H                |   7 N                |     1.90666  |     1.00896
    9 C                |   7 N                |     2.76358  |     1.46242
   10 H                |   9 C                |     2.06317  |     1.09178
   11 C                |   9 C                |     2.90118  |     1.53524
   12 H                |  11 C                |     2.06190  |     1.09111
   13 H                |  11 C                |     2.06111  |     1.09069
   14 H                |  11 C                |     2.06263  |     1.09149
   15 C                |   9 C                |     2.91005  |     1.53993
   16 O                |  15 C                |     2.32860  |     1.23224
   17 N                |  15 C                |     2.52465  |     1.33599
   18 H                |  17 N                |     1.90541  |     1.00830
   19 C                |  17 N                |     2.76763  |     1.46457
   20 H                |  19 C                |     2.06167  |     1.09099
   21 C                |  19 C                |     2.91429  |     1.54217
   22 H                |  21 C                |     2.06216  |     1.09125
   23 H                |  21 C                |     2.06185  |     1.09108
   24 C                |  21 C                |     2.91298  |     1.54148
   25 H                |  24 C                |     2.05958  |     1.08988
   26 C                |  24 C                |     2.89348  |     1.53116
   27 H                |  26 C                |     2.05993  |     1.09007
   28 H                |  26 C                |     2.05725  |     1.08865
   29 H                |  26 C                |     2.05855  |     1.08934
   30 C                |  24 C                |     2.88875  |     1.52866
   31 H                |  30 C                |     2.05970  |     1.08995
   32 H                |  30 C                |     2.05965  |     1.08992
   33 H                |  30 C                |     2.05966  |     1.08993
   34 C                |  19 C                |     2.90997  |     1.53989
   35 O                |  34 C                |     2.31445  |     1.22476
   36 N                |  34 C                |     2.50418  |     1.32516
   37 H                |  36 N                |     1.90132  |     1.00614
   38 H                |  36 N                |     1.90105  |     1.00599
 ------------------------------------------------------------------------------
                         number of included internuclear distances:         37
 ==============================================================================



 ==============================================================================
                                 internuclear angles
 ------------------------------------------------------------------------------
        center 1       |       center 2       |       center 3       |  degrees
 ------------------------------------------------------------------------------
    1 H                |   2 C                |   3 H                |   109.67
    1 H                |   2 C                |   4 H                |   110.02
    1 H                |   2 C                |   5 C                |   109.29
    3 H                |   2 C                |   4 H                |   109.66
    3 H                |   2 C                |   5 C                |   108.85
    4 H                |   2 C                |   5 C                |   109.32
    2 C                |   5 C                |   6 O                |   120.15
    2 C                |   5 C                |   7 N                |   116.53
    6 O                |   5 C                |   7 N                |   123.33
    5 C                |   7 N                |   8 H                |   118.75
    5 C                |   7 N                |   9 C                |   124.70
    8 H                |   7 N                |   9 C                |   116.49
    7 N                |   9 C                |  10 H                |   108.90
    7 N                |   9 C                |  11 C                |   108.90
    7 N                |   9 C                |  15 C                |   111.19
   10 H                |   9 C                |  11 C                |   108.44
   10 H                |   9 C                |  15 C                |   107.88
   11 C                |   9 C                |  15 C                |   111.45
    9 C                |  11 C                |  12 H                |   109.96
    9 C                |  11 C                |  13 H                |   110.09
    9 C                |  11 C                |  14 H                |   109.87
   12 H                |  11 C                |  13 H                |   108.95
   12 H                |  11 C                |  14 H                |   109.24
   13 H                |  11 C                |  14 H                |   108.70
    9 C                |  15 C                |  16 O                |   120.75
    9 C                |  15 C                |  17 N                |   117.18
   16 O                |  15 C                |  17 N                |   122.07
   15 C                |  17 N                |  18 H                |   118.44
   15 C                |  17 N                |  19 C                |   123.28
   18 H                |  17 N                |  19 C                |   117.80
   17 N                |  19 C                |  20 H                |   108.21
   17 N                |  19 C                |  21 C                |   108.78
   17 N                |  19 C                |  34 C                |   110.51
   20 H                |  19 C                |  21 C                |   108.54
   20 H                |  19 C                |  34 C                |   108.29
   21 C                |  19 C                |  34 C                |   112.40
   19 C                |  21 C                |  22 H                |   108.68
   19 C                |  21 C                |  23 H                |   108.24
   19 C                |  21 C                |  24 C                |   114.84
   22 H                |  21 C                |  23 H                |   107.99
   22 H                |  21 C                |  24 C                |   108.88
   23 H                |  21 C                |  24 C                |   108.00
   21 C                |  24 C                |  25 H                |   109.78
   21 C                |  24 C                |  26 C                |   112.26
   21 C                |  24 C                |  30 C                |   109.56
   25 H                |  24 C                |  26 C                |   108.87
   25 H                |  24 C                |  30 C                |   108.24
   26 C                |  24 C                |  30 C                |   108.04
   24 C                |  26 C                |  27 H                |   109.55
   24 C                |  26 C                |  28 H                |   110.33
   24 C                |  26 C                |  29 H                |   110.13
   27 H                |  26 C                |  28 H                |   108.09
   27 H                |  26 C                |  29 H                |   109.20
   28 H                |  26 C                |  29 H                |   109.51
   24 C                |  30 C                |  31 H                |   110.26
   24 C                |  30 C                |  32 H                |   109.62
   24 C                |  30 C                |  33 H                |   109.75
   31 H                |  30 C                |  32 H                |   109.33
   31 H                |  30 C                |  33 H                |   109.35
   32 H                |  30 C                |  33 H                |   108.49
   19 C                |  34 C                |  35 O                |   120.94
   19 C                |  34 C                |  36 N                |   118.12
   35 O                |  34 C                |  36 N                |   120.92
   34 C                |  36 N                |  37 H                |   120.04
   34 C                |  36 N                |  38 H                |   118.07
   37 H                |  36 N                |  38 H                |   121.66
 ------------------------------------------------------------------------------
                            number of included internuclear angles:         66
 ==============================================================================



  library name resolved from: environment
  library file name is: </opt/rit/el9/20230413/app/linux-rhel9-x86_64_v3/gcc-11.2.1/nwchem-7.2.0-oxtctbuhfuzyfaoziquq6bki22grib3g/share/nwchem/libraries/>
  


 Summary of "ao basis" -> "" (cartesian)
 ------------------------------------------------------------------------------
       Tag                 Description            Shells   Functions and Types
 ---------------- ------------------------------  ------  ---------------------
 *                        aug-cc-pvdz                 on all atoms 


                      Basis "ao basis" -> "ao basis" (cartesian)
                      -----
  H (Hydrogen)
  ------------
            Exponent  Coefficients 
       -------------- ---------------------------------------------------------
  1 S  1.30100000E+01  0.019685
  1 S  1.96200000E+00  0.137977
  1 S  4.44600000E-01  0.478148

  2 S  1.22000000E-01  1.000000

  3 S  2.97400000E-02  1.000000

  4 P  7.27000000E-01  1.000000

  5 P  1.41000000E-01  1.000000

  C (Carbon)
  ----------
            Exponent  Coefficients 
       -------------- ---------------------------------------------------------
  1 S  6.66500000E+03  0.000692
  1 S  1.00000000E+03  0.005329
  1 S  2.28000000E+02  0.027077
  1 S  6.47100000E+01  0.101718
  1 S  2.10600000E+01  0.274740
  1 S  7.49500000E+00  0.448564
  1 S  2.79700000E+00  0.285074
  1 S  5.21500000E-01  0.015204

  2 S  6.66500000E+03 -0.000146
  2 S  1.00000000E+03 -0.001154
  2 S  2.28000000E+02 -0.005725
  2 S  6.47100000E+01 -0.023312
  2 S  2.10600000E+01 -0.063955
  2 S  7.49500000E+00 -0.149981
  2 S  2.79700000E+00 -0.127262
  2 S  5.21500000E-01  0.544529

  3 S  1.59600000E-01  1.000000

  4 S  4.69000000E-02  1.000000

  5 P  9.43900000E+00  0.038109
  5 P  2.00200000E+00  0.209480
  5 P  5.45600000E-01  0.508557

  6 P  1.51700000E-01  1.000000

  7 P  4.04100000E-02  1.000000

  8 D  5.50000000E-01  1.000000

  9 D  1.51000000E-01  1.000000

  O (Oxygen)
  ----------
            Exponent  Coefficients 
       -------------- ---------------------------------------------------------
  1 S  1.17200000E+04  0.000710
  1 S  1.75900000E+03  0.005470
  1 S  4.00800000E+02  0.027837
  1 S  1.13700000E+02  0.104800
  1 S  3.70300000E+01  0.283062
  1 S  1.32700000E+01  0.448719
  1 S  5.02500000E+00  0.270952
  1 S  1.01300000E+00  0.015458

  2 S  1.17200000E+04 -0.000160
  2 S  1.75900000E+03 -0.001263
  2 S  4.00800000E+02 -0.006267
  2 S  1.13700000E+02 -0.025716
  2 S  3.70300000E+01 -0.070924
  2 S  1.32700000E+01 -0.165411
  2 S  5.02500000E+00 -0.116955
  2 S  1.01300000E+00  0.557368

  3 S  3.02300000E-01  1.000000

  4 S  7.89600000E-02  1.000000

  5 P  1.77000000E+01  0.043018
  5 P  3.85400000E+00  0.228913
  5 P  1.04600000E+00  0.508728

  6 P  2.75300000E-01  1.000000

  7 P  6.85600000E-02  1.000000

  8 D  1.18500000E+00  1.000000

  9 D  3.32000000E-01  1.000000

  N (Nitrogen)
  ------------
            Exponent  Coefficients 
       -------------- ---------------------------------------------------------
  1 S  9.04600000E+03  0.000700
  1 S  1.35700000E+03  0.005389
  1 S  3.09300000E+02  0.027406
  1 S  8.77300000E+01  0.103207
  1 S  2.85600000E+01  0.278723
  1 S  1.02100000E+01  0.448540
  1 S  3.83800000E+00  0.278238
  1 S  7.46600000E-01  0.015440

  2 S  9.04600000E+03 -0.000153
  2 S  1.35700000E+03 -0.001208
  2 S  3.09300000E+02 -0.005992
  2 S  8.77300000E+01 -0.024544
  2 S  2.85600000E+01 -0.067459
  2 S  1.02100000E+01 -0.158078
  2 S  3.83800000E+00 -0.121831
  2 S  7.46600000E-01  0.549003

  3 S  2.24800000E-01  1.000000

  4 S  6.12400000E-02  1.000000

  5 P  1.35500000E+01  0.039919
  5 P  2.91700000E+00  0.217169
  5 P  7.97300000E-01  0.510319

  6 P  2.18500000E-01  1.000000

  7 P  5.61100000E-02  1.000000

  8 D  8.17000000E-01  1.000000

  9 D  2.30000000E-01  1.000000



 Summary of "ao basis" -> "ao basis" (cartesian)
 ------------------------------------------------------------------------------
       Tag                 Description            Shells   Functions and Types
 ---------------- ------------------------------  ------  ---------------------
 H                        aug-cc-pvdz                5        9   3s2p
 C                        aug-cc-pvdz                9       25   4s3p2d
 O                        aug-cc-pvdz                9       25   4s3p2d
 N                        aug-cc-pvdz                9       25   4s3p2d


                                 NWChem SCF Module
                                 -----------------



  ao basis        = "ao basis"
  functions       =   614
  atoms           =    38
  closed shells   =    66
  open shells     =     0
  charge          =   0.00
  wavefunction    = RHF 
  input vectors   = atomic
  output vectors  = ./ALA_LEU_4.movecs
  use symmetry    = F
  symmetry adapt  = F


 Summary of "ao basis" -> "ao basis" (cartesian)
 ------------------------------------------------------------------------------
       Tag                 Description            Shells   Functions and Types
 ---------------- ------------------------------  ------  ---------------------
 H                        aug-cc-pvdz                5        9   3s2p
 C                        aug-cc-pvdz                9       25   4s3p2d
 O                        aug-cc-pvdz                9       25   4s3p2d
 N                        aug-cc-pvdz                9       25   4s3p2d



 Forming initial guess at       0.9s


 !! The overlap matrix has   7 vectors deemed linearly dependent with
    eigenvalues:
 2.08D-06 2.75D-06 3.53D-06 5.18D-06 7.74D-06 9.27D-06 9.84D-06


      Superposition of Atomic Density Guess
      -------------------------------------

 Sum of atomic energies:        -812.03184720

      Non-variational initial energy
      ------------------------------

 Total energy =    -823.493790
 1-e energy   =   -3615.051607
 2-e energy   =    1525.948251
 HOMO         =      -0.309560
 LUMO         =       0.012864


 Starting SCF solution at     229.6s



 ----------------------------------------------
         Quadratically convergent ROHF

 Convergence threshold     :          1.000E-04
 Maximum no. of iterations :           30
 Final Fock-matrix accuracy:          1.000E-10
 ----------------------------------------------


              iter       energy          gnorm     gmax       time
             ----- ------------------- --------- --------- --------
                 1     -816.5073490607  2.45D+00  1.21D-01    487.1
                 2     -816.8329708691  8.51D-01  4.80D-02    988.8
                 3     -816.8957503720  6.27D-02  5.40D-03   1647.8
                 4     -816.8963494749  3.63D-03  3.41D-04   2613.1
                 5     -816.8963520537  6.38D-06  4.14D-07   4295.5


       Final RHF  results 
       ------------------ 

         Total SCF energy =   -816.896352053688
      One-electron energy =  -3628.307123804640
      Two-electron energy =   1545.801205268153
 Nuclear repulsion energy =   1265.609566482800

        Time for solution =   4069.2s


             Final eigenvalues
             -----------------

              1      
    1  -20.5433
    2  -20.5280
    3  -20.5167
    4  -15.6150
    5  -15.6026
    6  -15.5920
    7  -11.3727
    8  -11.3612
    9  -11.3490
   10  -11.3054
   11  -11.2995
   12  -11.2513
   13  -11.2460
   14  -11.2378
   15  -11.2357
   16  -11.2314
   17  -11.2275
   18   -1.4027
   19   -1.3888
   20   -1.3788
   21   -1.2587
   22   -1.2409
   23   -1.2289
   24   -1.1143
   25   -1.0647
   26   -1.0237
   27   -0.9872
   28   -0.9433
   29   -0.9163
   30   -0.8921
   31   -0.8347
   32   -0.7992
   33   -0.7892
   34   -0.7780
   35   -0.7503
   36   -0.7229
   37   -0.6996
   38   -0.6766
   39   -0.6606
   40   -0.6512
   41   -0.6476
   42   -0.6311
   43   -0.6179
   44   -0.6089
   45   -0.6027
   46   -0.5920
   47   -0.5815
   48   -0.5741
   49   -0.5650
   50   -0.5624
   51   -0.5504
   52   -0.5454
   53   -0.5429
   54   -0.5339
   55   -0.5248
   56   -0.5200
   57   -0.4976
   58   -0.4828
   59   -0.4810
   60   -0.4679
   61   -0.4427
   62   -0.4364
   63   -0.4180
   64   -0.4150
   65   -0.4028
   66   -0.3900
   67    0.0292
   68    0.0350
   69    0.0373
   70    0.0429
   71    0.0445
   72    0.0519
   73    0.0538
   74    0.0584
   75    0.0614
   76    0.0645

                       ROHF Final Molecular Orbital Analysis
                       -------------------------------------

 Vector   18  Occ=2.000000D+00  E=-1.402697D+00
              MO Center=  6.3D-01, -5.1D-01, -5.1D-01, r^2= 2.5D+00
   Bfn.  Coefficient  Atom+Function         Bfn.  Coefficient  Atom+Function  
  ----- ------------  ---------------      ----- ------------  ---------------
   250      0.337650  16 O  s               249      0.317874  16 O  s         
   224      0.227029  15 C  s               309     -0.164367  19 C  s         

 Vector   19  Occ=2.000000D+00  E=-1.388838D+00
              MO Center=  1.6D+00,  1.6D+00,  6.0D-01, r^2= 3.0D+00
   Bfn.  Coefficient  Atom+Function         Bfn.  Coefficient  Atom+Function  
  ----- ------------  ---------------      ----- ------------  ---------------
   549      0.365638  35 O  s               548      0.328720  35 O  s         
   523      0.234581  34 C  s               574      0.150060  36 N  s         

 Vector   20  Occ=2.000000D+00  E=-1.378821D+00
              MO Center= -9.1D-01, -4.3D+00,  2.5D-01, r^2= 1.9D+00
   Bfn.  Coefficient  Atom+Function         Bfn.  Coefficient  Atom+Function  
  ----- ------------  ---------------      ----- ------------  ---------------
    79      0.342517   6 O  s                80      0.343393   6 O  s         
    54      0.241781   5 C  s                12      0.154427   2 C  s         

 Vector   21  Occ=2.000000D+00  E=-1.258723D+00
              MO Center= -4.2D-02,  1.6D-01,  9.4D-02, r^2= 1.8D+00
   Bfn.  Coefficient  Atom+Function         Bfn.  Coefficient  Atom+Function  
  ----- ------------  ---------------      ----- ------------  ---------------
   275      0.455233  17 N  s               274      0.342600  17 N  s         
   250     -0.223419  16 O  s               309     -0.217984  19 C  s         
   249     -0.184146  16 O  s               298      0.156297  18 H  s         

 Vector   22  Occ=2.000000D+00  E=-1.240879D+00
              MO Center= -1.4D-01, -3.5D+00, -9.6D-02, r^2= 1.8D+00
   Bfn.  Coefficient  Atom+Function         Bfn.  Coefficient  Atom+Function  
  ----- ------------  ---------------      ----- ------------  ---------------
   105      0.443182   7 N  s               104      0.342305   7 N  s         
    80     -0.213769   6 O  s                79     -0.186264   6 O  s         
   128      0.152580   8 H  s         

 Vector   23  Occ=2.000000D+00  E=-1.228948D+00
              MO Center=  2.0D+00,  2.1D+00, -4.1D-01, r^2= 1.5D+00
   Bfn.  Coefficient  Atom+Function         Bfn.  Coefficient  Atom+Function  
  ----- ------------  ---------------      ----- ------------  ---------------
   574      0.372133  36 N  s               573      0.368658  36 N  s         
   549     -0.218087  35 O  s               528     -0.207959  34 C  pz        
   548     -0.183801  35 O  s               597      0.169936  37 H  s         
   606      0.156640  38 H  s         

 Vector   24  Occ=2.000000D+00  E=-1.114335D+00
              MO Center= -8.7D-01,  3.2D+00, -4.8D-02, r^2= 3.8D+00
   Bfn.  Coefficient  Atom+Function         Bfn.  Coefficient  Atom+Function  
  ----- ------------  ---------------      ----- ------------  ---------------
   343      0.242130  21 C  s               385      0.241034  24 C  s         
   342      0.207140  21 C  s               349      0.195709  21 C  py        
   386     -0.189618  24 C  s               472      0.151984  30 C  s         

 Vector   25  Occ=2.000000D+00  E=-1.064673D+00
              MO Center= -4.3D-02, -1.6D+00,  3.4D-01, r^2= 9.3D+00
   Bfn.  Coefficient  Atom+Function         Bfn.  Coefficient  Atom+Function  
  ----- ------------  ---------------      ----- ------------  ---------------
   138      0.226843   9 C  s               172      0.181325  11 C  s         
    12     -0.166182   2 C  s               349      0.153576  21 C  py        

 Vector   26  Occ=2.000000D+00  E=-1.023715D+00
              MO Center= -3.3D-01,  8.7D-01, -5.7D-02, r^2= 1.2D+01
   Bfn.  Coefficient  Atom+Function         Bfn.  Coefficient  Atom+Function  
  ----- ------------  ---------------      ----- ------------  ---------------
   308      0.214988  19 C  s               392     -0.188691  24 C  py        
   349     -0.175706  21 C  py              343     -0.154713  21 C  s         

 Vector   27  Occ=2.000000D+00  E=-9.871534D-01
              MO Center= -5.6D-02, -4.3D+00, -4.1D-01, r^2= 6.5D+00
   Bfn.  Coefficient  Atom+Function         Bfn.  Coefficient  Atom+Function  
  ----- ------------  ---------------      ----- ------------  ---------------
    11      0.309737   2 C  s                56     -0.255661   5 C  s         
    13      0.198305   2 C  s               146      0.192468   9 C  pz        
   172      0.170908  11 C  s                55      0.152127   5 C  s         

 Vector   28  Occ=2.000000D+00  E=-9.432566D-01
              MO Center= -1.2D+00,  4.3D+00, -6.4D-01, r^2= 3.0D+00
   Bfn.  Coefficient  Atom+Function         Bfn.  Coefficient  Atom+Function  
  ----- ------------  ---------------      ----- ------------  ---------------
   393      0.354491  24 C  pz              419     -0.298743  26 C  s         
   471      0.236536  30 C  s               421     -0.215957  26 C  s         
   473      0.180906  30 C  s               427      0.174385  26 C  pz        
   452     -0.160698  28 H  s         

 Vector   29  Occ=2.000000D+00  E=-9.162998D-01
              MO Center= -4.5D-01,  1.7D+00,  4.3D-01, r^2= 9.2D+00
   Bfn.  Coefficient  Atom+Function         Bfn.  Coefficient  Atom+Function  
  ----- ------------  ---------------      ----- ------------  ---------------
   309      0.298452  19 C  s               342     -0.227415  21 C  s         
   314      0.222580  19 C  px              392      0.172123  24 C  py        
   471      0.168529  30 C  s               420      0.161827  26 C  s         
   146      0.152618   9 C  pz              529      0.150597  34 C  px        

 Vector   30  Occ=2.000000D+00  E=-8.920512D-01
              MO Center=  4.0D-01, -1.0D+00,  5.6D-01, r^2= 8.5D+00
   Bfn.  Coefficient  Atom+Function         Bfn.  Coefficient  Atom+Function  
  ----- ------------  ---------------      ----- ------------  ---------------
   309     -0.250646  19 C  s               314     -0.237256  19 C  px        
   146      0.234781   9 C  pz              172      0.212804  11 C  s         
   138     -0.153091   9 C  s         

 Vector   31  Occ=2.000000D+00  E=-8.346691D-01
              MO Center=  1.7D-01,  4.4D-01, -6.8D-02, r^2= 1.0D+01
   Bfn.  Coefficient  Atom+Function         Bfn.  Coefficient  Atom+Function  
  ----- ------------  ---------------      ----- ------------  ---------------
   309      0.324456  19 C  s               278     -0.203679  17 N  py        
   225      0.198589  15 C  s               108     -0.151456   7 N  py        

 Vector   32  Occ=2.000000D+00  E=-7.991610D-01
              MO Center=  6.7D-01,  8.0D-01, -1.6D-01, r^2= 7.1D+00
   Bfn.  Coefficient  Atom+Function         Bfn.  Coefficient  Atom+Function  
  ----- ------------  ---------------      ----- ------------  ---------------
   225      0.265377  15 C  s               314     -0.247674  19 C  px        
   298     -0.227896  18 H  s               275     -0.221167  17 N  s         
   578     -0.216217  36 N  pz              279     -0.206643  17 N  pz        
   328     -0.197387  19 C  dxz             333      0.187876  20 H  s         
   597      0.162441  37 H  s               523     -0.161384  34 C  s         

 Vector   33  Occ=2.000000D+00  E=-7.891713D-01
              MO Center= -5.5D-02, -2.0D+00, -9.4D-02, r^2= 8.9D+00
   Bfn.  Coefficient  Atom+Function         Bfn.  Coefficient  Atom+Function  
  ----- ------------  ---------------      ----- ------------  ---------------
   343     -0.274518  21 C  s               128      0.264449   8 H  s         
   105      0.235744   7 N  s               107      0.222920   7 N  px        
   225      0.204070  15 C  s                55     -0.191570   5 C  s         
   163     -0.180153  10 H  s               146      0.178791   9 C  pz        
   139     -0.164426   9 C  s                54     -0.159247   5 C  s         

 Vector   34  Occ=2.000000D+00  E=-7.780023D-01
              MO Center= -4.9D-01,  2.4D+00, -1.1D-01, r^2= 1.0D+01
   Bfn.  Coefficient  Atom+Function         Bfn.  Coefficient  Atom+Function  
  ----- ------------  ---------------      ----- ------------  ---------------
   386      0.484865  24 C  s               343     -0.355070  21 C  s         
   472     -0.296589  30 C  s               420     -0.229081  26 C  s         
   385      0.209676  24 C  s               409      0.200789  25 H  s         
   524     -0.177263  34 C  s         

 Vector   35  Occ=2.000000D+00  E=-7.503124D-01
              MO Center=  1.1D+00,  8.7D-01, -3.4D-01, r^2= 7.3D+00
   Bfn.  Coefficient  Atom+Function         Bfn.  Coefficient  Atom+Function  
  ----- ------------  ---------------      ----- ------------  ---------------
   578      0.277379  36 N  pz              597     -0.261624  37 H  s         
   314     -0.230075  19 C  px              524      0.186523  34 C  s         
   225      0.180165  15 C  s               343     -0.179915  21 C  s         
   279     -0.174957  17 N  pz              526      0.171412  34 C  px        
   606      0.170097  38 H  s               145     -0.152763   9 C  py        

 Vector   36  Occ=2.000000D+00  E=-7.228792D-01
              MO Center=  6.9D-01, -3.1D-01, -3.2D-01, r^2= 1.2D+01
   Bfn.  Coefficient  Atom+Function         Bfn.  Coefficient  Atom+Function  
  ----- ------------  ---------------      ----- ------------  ---------------
   576      0.223417  36 N  px              606      0.220738  38 H  s         
   386      0.210331  24 C  s               228     -0.193033  15 C  py        
   142      0.186878   9 C  py        

 Vector   37  Occ=2.000000D+00  E=-6.995747D-01
              MO Center=  4.5D-01,  1.3D+00,  1.9D-02, r^2= 5.8D+00
   Bfn.  Coefficient  Atom+Function         Bfn.  Coefficient  Atom+Function  
  ----- ------------  ---------------      ----- ------------  ---------------
   313      0.221753  19 C  pz              332     -0.210275  20 H  s         
   529     -0.211042  34 C  px              276      0.161660  17 N  s         
   343      0.160937  21 C  s               543      0.156475  34 C  dxz       
   333     -0.154564  20 H  s               277      0.153492  17 N  px        
   386     -0.153525  24 C  s               551     -0.152390  35 O  px        

 Vector   38  Occ=2.000000D+00  E=-6.766419D-01
              MO Center=  1.2D-01, -1.4D+00, -8.6D-02, r^2= 1.0D+01
   Bfn.  Coefficient  Atom+Function         Bfn.  Coefficient  Atom+Function  
  ----- ------------  ---------------      ----- ------------  ---------------
   254     -0.185851  16 O  pz              309      0.182419  19 C  s         
    80      0.174220   6 O  s               278     -0.165429  17 N  py        
    12     -0.156973   2 C  s               250      0.152566  16 O  s         

 Vector   39  Occ=2.000000D+00  E=-6.605508D-01
              MO Center= -9.3D-02, -1.7D+00, -3.3D-01, r^2= 1.3D+01
   Bfn.  Coefficient  Atom+Function         Bfn.  Coefficient  Atom+Function  
  ----- ------------  ---------------      ----- ------------  ---------------
    58      0.200438   5 C  py              254      0.179927  16 O  pz        
   250     -0.158579  16 O  s                13      0.153143   2 C  s         

 Vector   40  Occ=2.000000D+00  E=-6.511550D-01
              MO Center= -3.1D-01, -7.7D-01,  6.7D-02, r^2= 1.3D+01
   Bfn.  Coefficient  Atom+Function         Bfn.  Coefficient  Atom+Function  
  ----- ------------  ---------------      ----- ------------  ---------------
   278      0.191421  17 N  py              315     -0.188669  19 C  py        
   312     -0.169238  19 C  py              309     -0.166974  19 C  s         
    80      0.153296   6 O  s                82     -0.151513   6 O  px        

 Vector   41  Occ=2.000000D+00  E=-6.476124D-01
              MO Center= -5.9D-01,  1.9D+00, -1.2D-02, r^2= 1.2D+01
   Bfn.  Coefficient  Atom+Function         Bfn.  Coefficient  Atom+Function  
  ----- ------------  ---------------      ----- ------------  ---------------
   314      0.275045  19 C  px              309      0.243582  19 C  s         
   524     -0.206943  34 C  s               529      0.182321  34 C  px        
   347     -0.169330  21 C  pz              375     -0.166068  23 H  s         

 Vector   42  Occ=2.000000D+00  E=-6.311337D-01
              MO Center=  2.0D-01, -2.4D+00,  1.9D-01, r^2= 9.4D+00
   Bfn.  Coefficient  Atom+Function         Bfn.  Coefficient  Atom+Function  
  ----- ------------  ---------------      ----- ------------  ---------------
   173      0.355394  11 C  s               139     -0.258293   9 C  s         
    57     -0.175788   5 C  px              177      0.163185  11 C  pz        
    84     -0.159561   6 O  pz               14     -0.153028   2 C  px        
   146     -0.150397   9 C  pz              252     -0.150768  16 O  px        

 Vector   43  Occ=2.000000D+00  E=-6.179385D-01
              MO Center=  3.3D-01, -1.4D+00,  3.2D-02, r^2= 1.4D+01
   Bfn.  Coefficient  Atom+Function         Bfn.  Coefficient  Atom+Function  
  ----- ------------  ---------------      ----- ------------  ---------------
   524      0.225238  34 C  s               553     -0.218482  35 O  pz        
    56      0.173047   5 C  s               173     -0.170981  11 C  s         
   549     -0.165149  35 O  s               528      0.160002  34 C  pz        
   215      0.154715  14 H  s               139      0.152738   9 C  s         
    16      0.151190   2 C  pz        

 Vector   44  Occ=2.000000D+00  E=-6.089145D-01
              MO Center= -5.3D-01,  2.0D+00, -1.7D-01, r^2= 1.3D+01
   Bfn.  Coefficient  Atom+Function         Bfn.  Coefficient  Atom+Function  
  ----- ------------  ---------------      ----- ------------  ---------------
   367     -0.198466  22 H  s               139      0.187067   9 C  s         
   423     -0.182454  26 C  py              343      0.157244  21 C  s         
   254      0.154937  16 O  pz              524     -0.151776  34 C  s         

 Vector   45  Occ=2.000000D+00  E=-6.026819D-01
              MO Center=  3.1D-01,  2.2D+00,  2.7D-01, r^2= 9.8D+00
   Bfn.  Coefficient  Atom+Function         Bfn.  Coefficient  Atom+Function  
  ----- ------------  ---------------      ----- ------------  ---------------
   333      0.316604  20 H  s               553     -0.294651  35 O  pz        
   528      0.203859  34 C  pz              549     -0.193112  35 O  s         
   309     -0.190834  19 C  s               524      0.185917  34 C  s         
   386      0.181216  24 C  s               453      0.181610  28 H  s         
   452      0.169661  28 H  s               476      0.163934  30 C  pz        

 Vector   46  Occ=2.000000D+00  E=-5.919521D-01
              MO Center= -1.5D-01, -1.6D+00, -1.9D-01, r^2= 1.6D+01
   Bfn.  Coefficient  Atom+Function         Bfn.  Coefficient  Atom+Function  
  ----- ------------  ---------------      ----- ------------  ---------------
     1      0.179847   1 H  s                14      0.160642   2 C  px        
    59      0.153391   5 C  pz              254     -0.153173  16 O  pz        
    55      0.151831   5 C  s         

 Vector   47  Occ=2.000000D+00  E=-5.815442D-01
              MO Center= -2.3D-02, -9.7D-01,  2.2D-01, r^2= 1.5D+01
   Bfn.  Coefficient  Atom+Function         Bfn.  Coefficient  Atom+Function  
  ----- ------------  ---------------      ----- ------------  ---------------
    15      0.167875   2 C  py              205     -0.165116  13 H  s         
   275      0.159615  17 N  s         

 Vector   48  Occ=2.000000D+00  E=-5.740835D-01
              MO Center=  3.9D-01,  7.6D-01,  1.6D-01, r^2= 1.2D+01
   Bfn.  Coefficient  Atom+Function         Bfn.  Coefficient  Atom+Function  
  ----- ------------  ---------------      ----- ------------  ---------------
   314      0.248826  19 C  px              527     -0.204693  34 C  py        
   552     -0.201192  35 O  py              524     -0.176159  34 C  s         
   577     -0.168868  36 N  py              284     -0.155203  17 N  py        
   555     -0.151003  35 O  py        

 Vector   49  Occ=2.000000D+00  E=-5.649937D-01
              MO Center= -3.5D-01,  2.9D-01, -1.9D-01, r^2= 1.7D+01
   Bfn.  Coefficient  Atom+Function         Bfn.  Coefficient  Atom+Function  
  ----- ------------  ---------------      ----- ------------  ---------------
   453      0.155711  28 H  s         

 Vector   50  Occ=2.000000D+00  E=-5.624008D-01
              MO Center= -2.5D-01, -3.9D+00, -2.9D-01, r^2= 1.2D+01
   Bfn.  Coefficient  Atom+Function         Bfn.  Coefficient  Atom+Function  
  ----- ------------  ---------------      ----- ------------  ---------------
    36      0.280545   3 H  s                35      0.263903   3 H  s         
    15     -0.191654   2 C  py               44     -0.178259   4 H  s         
   176      0.174291  11 C  py               14     -0.172829   2 C  px        
    16      0.171882   2 C  pz               13     -0.161064   2 C  s         
    82     -0.157569   6 O  px              215     -0.153099  14 H  s         

 Vector   51  Occ=2.000000D+00  E=-5.504220D-01
              MO Center= -1.4D+00,  4.2D+00, -6.6D-01, r^2= 4.5D+00
   Bfn.  Coefficient  Atom+Function         Bfn.  Coefficient  Atom+Function  
  ----- ------------  ---------------      ----- ------------  ---------------
   461     -0.274337  29 H  s               333      0.253124  20 H  s         
   422      0.252828  26 C  px              495      0.214604  31 H  s         
   444      0.204956  27 H  s               462     -0.205603  29 H  s         
   475     -0.187539  30 C  py              423      0.177080  26 C  py        
   513     -0.177693  33 H  s               474     -0.175796  30 C  px        

 Vector   52  Occ=2.000000D+00  E=-5.454448D-01
              MO Center=  6.7D-02, -3.0D+00,  9.7D-02, r^2= 1.1D+01
   Bfn.  Coefficient  Atom+Function         Bfn.  Coefficient  Atom+Function  
  ----- ------------  ---------------      ----- ------------  ---------------
   215      0.232176  14 H  s                35      0.215964   3 H  s         
    14     -0.210662   2 C  px              163     -0.200176  10 H  s         
   176     -0.191412  11 C  py              214      0.176914  14 H  s         
   139      0.169487   9 C  s                 1     -0.164745   1 H  s         
   108     -0.158529   7 N  py              234     -0.151743  15 C  py        

 Vector   53  Occ=2.000000D+00  E=-5.429085D-01
              MO Center= -1.3D-01,  1.3D+00,  4.3D-01, r^2= 1.0D+01
   Bfn.  Coefficient  Atom+Function         Bfn.  Coefficient  Atom+Function  
  ----- ------------  ---------------      ----- ------------  ---------------
   367     -0.228150  22 H  s               366     -0.225029  22 H  s         
   345      0.223755  21 C  px              333      0.179588  20 H  s         
   577     -0.171256  36 N  py              214     -0.164583  14 H  s         
   343      0.161192  21 C  s               376      0.150050  23 H  s         

 Vector   54  Occ=2.000000D+00  E=-5.339093D-01
              MO Center=  1.5D-01, -3.0D-01,  8.2D-02, r^2= 1.2D+01
   Bfn.  Coefficient  Atom+Function         Bfn.  Coefficient  Atom+Function  
  ----- ------------  ---------------      ----- ------------  ---------------
   252      0.206178  16 O  px              309      0.193429  19 C  s         
   343     -0.158064  21 C  s               214      0.157163  14 H  s         
   177      0.155099  11 C  pz        

 Vector   55  Occ=2.000000D+00  E=-5.248301D-01
              MO Center=  2.6D-01, -2.4D+00,  7.4D-01, r^2= 7.1D+00
   Bfn.  Coefficient  Atom+Function         Bfn.  Coefficient  Atom+Function  
  ----- ------------  ---------------      ----- ------------  ---------------
   163      0.318737  10 H  s               197      0.267958  12 H  s         
   196      0.234365  12 H  s               205     -0.222128  13 H  s         
   206     -0.209223  13 H  s               175      0.200971  11 C  px        
   162      0.187967  10 H  s               109     -0.183340   7 N  pz        
   141     -0.158875   9 C  px              177     -0.152572  11 C  pz        

 Vector   56  Occ=2.000000D+00  E=-5.199926D-01
              MO Center= -8.2D-01,  3.0D+00,  1.3D-01, r^2= 7.7D+00
   Bfn.  Coefficient  Atom+Function         Bfn.  Coefficient  Atom+Function  
  ----- ------------  ---------------      ----- ------------  ---------------
   376      0.300348  23 H  s               444     -0.250601  27 H  s         
   505     -0.236282  32 H  s               347      0.234755  21 C  pz        
   333      0.230367  20 H  s               476     -0.216972  30 C  pz        
   375      0.213765  23 H  s               504     -0.209857  32 H  s         
   514      0.200996  33 H  s               313     -0.176049  19 C  pz        

 Vector   57  Occ=2.000000D+00  E=-4.975972D-01
              MO Center= -2.9D-01, -3.6D+00,  3.0D-01, r^2= 5.5D+00
   Bfn.  Coefficient  Atom+Function         Bfn.  Coefficient  Atom+Function  
  ----- ------------  ---------------      ----- ------------  ---------------
    82      0.227876   6 O  px              141     -0.215199   9 C  px        
   175      0.189851  11 C  px               84      0.185620   6 O  pz        
    85      0.166865   6 O  px              162      0.161980  10 H  s         
   163      0.152184  10 H  s         

 Vector   58  Occ=2.000000D+00  E=-4.827963D-01
              MO Center= -1.0D+00,  4.0D+00, -1.0D-01, r^2= 3.2D+00
   Bfn.  Coefficient  Atom+Function         Bfn.  Coefficient  Atom+Function  
  ----- ------------  ---------------      ----- ------------  ---------------
   409      0.329644  25 H  s               410      0.320559  25 H  s         
   388      0.306379  24 C  px              473      0.297272  30 C  s         
   474     -0.203009  30 C  px              495      0.192736  31 H  s         
   462      0.191560  29 H  s               514     -0.189364  33 H  s         
   344     -0.185873  21 C  s               376     -0.186414  23 H  s         

 Vector   59  Occ=2.000000D+00  E=-4.809553D-01
              MO Center= -9.4D-01,  3.5D+00, -1.4D-01, r^2= 5.0D+00
   Bfn.  Coefficient  Atom+Function         Bfn.  Coefficient  Atom+Function  
  ----- ------------  ---------------      ----- ------------  ---------------
   346      0.292883  21 C  py              389     -0.286267  24 C  py        
   349      0.198616  21 C  py              475      0.187659  30 C  py        
   443      0.179953  27 H  s               513      0.180754  33 H  s         
   444      0.170848  27 H  s               514      0.169225  33 H  s         
   453     -0.165486  28 H  s               423      0.156016  26 C  py        

 Vector   60  Occ=2.000000D+00  E=-4.678512D-01
              MO Center= -1.0D+00,  3.8D+00, -1.5D-01, r^2= 3.6D+00
   Bfn.  Coefficient  Atom+Function         Bfn.  Coefficient  Atom+Function  
  ----- ------------  ---------------      ----- ------------  ---------------
   390      0.285102  24 C  pz              424     -0.275621  26 C  pz        
   453      0.256582  28 H  s               427     -0.245538  26 C  pz        
   420     -0.219821  26 C  s               476     -0.205957  30 C  pz        
   376     -0.188969  23 H  s               472      0.188900  30 C  s         
   452      0.186866  28 H  s               477      0.185280  30 C  px        

 Vector   61  Occ=2.000000D+00  E=-4.426532D-01
              MO Center=  9.1D-01,  6.4D-01,  2.0D-01, r^2= 5.0D+00
   Bfn.  Coefficient  Atom+Function         Bfn.  Coefficient  Atom+Function  
  ----- ------------  ---------------      ----- ------------  ---------------
   551      0.363634  35 O  px              554      0.283956  35 O  px        
   252     -0.231896  16 O  px              276     -0.185041  17 N  s         
   277      0.185677  17 N  px              279      0.183416  17 N  pz        
   255     -0.181573  16 O  px              280      0.179930  17 N  px        
   253      0.173982  16 O  py              367      0.173007  22 H  s         

 Vector   62  Occ=2.000000D+00  E=-4.363684D-01
              MO Center=  6.0D-01, -4.9D-01, -3.0D-01, r^2= 5.4D+00
   Bfn.  Coefficient  Atom+Function         Bfn.  Coefficient  Atom+Function  
  ----- ------------  ---------------      ----- ------------  ---------------
   253      0.454775  16 O  py              256      0.369896  16 O  py        
   551     -0.186361  35 O  px              145      0.163910   9 C  py        
   142      0.161203   9 C  py              554     -0.152586  35 O  px        

 Vector   63  Occ=2.000000D+00  E=-4.179518D-01
              MO Center=  1.8D+00,  2.0D+00,  2.2D-01, r^2= 2.9D+00
   Bfn.  Coefficient  Atom+Function         Bfn.  Coefficient  Atom+Function  
  ----- ------------  ---------------      ----- ------------  ---------------
   552      0.402539  35 O  py              577     -0.368167  36 N  py        
   580     -0.329375  36 N  py              555      0.322166  35 O  py        

 Vector   64  Occ=2.000000D+00  E=-4.149817D-01
              MO Center= -1.0D+00, -4.7D+00,  2.4D-01, r^2= 2.3D+00
   Bfn.  Coefficient  Atom+Function         Bfn.  Coefficient  Atom+Function  
  ----- ------------  ---------------      ----- ------------  ---------------
    83      0.492326   6 O  py               13     -0.419482   2 C  s         
    86      0.392324   6 O  py               84      0.243795   6 O  pz        
   105     -0.241263   7 N  s                64     -0.230144   5 C  py        
    19      0.191021   2 C  pz               56      0.190646   5 C  s         
    87      0.186086   6 O  pz               16      0.172143   2 C  pz        

 Vector   65  Occ=2.000000D+00  E=-4.028016D-01
              MO Center=  6.7D-01,  4.6D-01,  1.5D-01, r^2= 5.9D+00
   Bfn.  Coefficient  Atom+Function         Bfn.  Coefficient  Atom+Function  
  ----- ------------  ---------------      ----- ------------  ---------------
   551     -0.294001  35 O  px              277      0.279901  17 N  px        
   529      0.274963  34 C  px              280      0.264496  17 N  px        
   309      0.240911  19 C  s               554     -0.238961  35 O  px        
   367     -0.219257  22 H  s               252     -0.193125  16 O  px        
   524     -0.191352  34 C  s               577     -0.169833  36 N  py        

 Vector   66  Occ=2.000000D+00  E=-3.899757D-01
              MO Center= -2.7D-01, -3.2D+00,  1.7D-01, r^2= 4.5D+00
   Bfn.  Coefficient  Atom+Function         Bfn.  Coefficient  Atom+Function  
  ----- ------------  ---------------      ----- ------------  ---------------
   107      0.306897   7 N  px              110      0.274594   7 N  px        
   109      0.263702   7 N  pz              112      0.249797   7 N  pz        
    82     -0.231637   6 O  px               84     -0.205263   6 O  pz        
    85     -0.178367   6 O  px               87     -0.159616   6 O  pz        

 Vector   67  Occ=0.000000D+00  E= 2.915102D-02
              MO Center=  7.4D-01,  3.5D+00, -2.1D+00, r^2= 2.8D+01
   Bfn.  Coefficient  Atom+Function         Bfn.  Coefficient  Atom+Function  
  ----- ------------  ---------------      ----- ------------  ---------------
   344      2.352145  21 C  s               575     -2.254921  36 N  s         
   421      1.876465  26 C  s               472      1.761707  30 C  s         
   532      1.766568  34 C  px              420      1.462406  26 C  s         
   608     -1.433793  38 H  s               444     -1.403523  27 H  s         
   445     -1.394069  27 H  s               410     -1.381050  25 H  s         

 Vector   68  Occ=0.000000D+00  E= 3.501118D-02
              MO Center= -1.3D+00,  2.4D+00,  2.6D-01, r^2= 3.2D+01
   Bfn.  Coefficient  Atom+Function         Bfn.  Coefficient  Atom+Function  
  ----- ------------  ---------------      ----- ------------  ---------------
   421      3.167822  26 C  s               575      2.779645  36 N  s         
   532     -2.341969  34 C  px              148      2.045103   9 C  py        
    13      1.608243   2 C  s               608      1.542846  38 H  s         
   276     -1.524421  17 N  s               164     -1.478317  10 H  s         
   472      1.454631  30 C  s               497     -1.422179  31 H  s         

 Vector   69  Occ=0.000000D+00  E= 3.730841D-02
              MO Center=  3.0D-01, -2.6D+00, -1.6D+00, r^2= 4.7D+01
   Bfn.  Coefficient  Atom+Function         Bfn.  Coefficient  Atom+Function  
  ----- ------------  ---------------      ----- ------------  ---------------
   148      4.202601   9 C  py               64      2.843901   5 C  py        
   106      2.840558   7 N  s               318      2.851840  19 C  py        
   174     -2.194142  11 C  s                56     -1.873496   5 C  s         
    65      1.842659   5 C  pz                3      1.712619   1 H  s         
    46      1.714580   4 H  s               395      1.608233  24 C  py        

 Vector   70  Occ=0.000000D+00  E= 4.287142D-02
              MO Center= -1.5D-01,  1.7D+00,  3.0D-01, r^2= 3.7D+01
   Bfn.  Coefficient  Atom+Function         Bfn.  Coefficient  Atom+Function  
  ----- ------------  ---------------      ----- ------------  ---------------
   334      2.114561  20 H  s               463      2.090908  29 H  s         
    64      1.913195   5 C  py              506     -1.669499  32 H  s         
   396      1.613995  24 C  pz               13      1.604898   2 C  s         
   173      1.612588  11 C  s               319      1.543715  19 C  pz        
   608     -1.510770  38 H  s               420     -1.446071  26 C  s         

 Vector   71  Occ=0.000000D+00  E= 4.445387D-02
              MO Center= -5.4D-01,  1.7D+00, -5.0D-01, r^2= 5.4D+01
   Bfn.  Coefficient  Atom+Function         Bfn.  Coefficient  Atom+Function  
  ----- ------------  ---------------      ----- ------------  ---------------
   352      4.618193  21 C  py              515     -3.061509  33 H  s         
    64     -2.489958   5 C  py              421     -2.479362  26 C  s         
   148     -2.196522   9 C  py              276      2.186640  17 N  s         
   481      1.965353  30 C  py              395      1.885718  24 C  py        
   317     -1.857561  19 C  px                3     -1.789265   1 H  s         

 Vector   72  Occ=0.000000D+00  E= 5.187945D-02
              MO Center=  3.1D-01, -4.0D-01,  3.2D-01, r^2= 5.0D+01
   Bfn.  Coefficient  Atom+Function         Bfn.  Coefficient  Atom+Function  
  ----- ------------  ---------------      ----- ------------  ---------------
   396      2.952701  24 C  pz              352     -2.318411  21 C  py        
    46     -2.245829   4 H  s               216      2.222975  14 H  s         
   377      2.116188  23 H  s               173     -2.006273  11 C  s         
   334     -2.007001  20 H  s               411     -2.004887  25 H  s         
    64     -1.934515   5 C  py              445      1.888713  27 H  s         

 Vector   73  Occ=0.000000D+00  E= 5.381523D-02
              MO Center= -8.3D-01,  6.3D-01, -3.6D-01, r^2= 5.0D+01
   Bfn.  Coefficient  Atom+Function         Bfn.  Coefficient  Atom+Function  
  ----- ------------  ---------------      ----- ------------  ---------------
   497      2.857099  31 H  s               445     -2.374114  27 H  s         
   198      2.200983  12 H  s               454     -2.025064  28 H  s         
   164     -2.004791  10 H  s               174      1.993140  11 C  s         
    37     -1.930997   3 H  s                56     -1.749749   5 C  s         
   147     -1.691964   9 C  px              463      1.639141  29 H  s         

 Vector   74  Occ=0.000000D+00  E= 5.838538D-02
              MO Center= -3.2D-01, -1.4D-01, -4.9D-01, r^2= 5.0D+01
   Bfn.  Coefficient  Atom+Function         Bfn.  Coefficient  Atom+Function  
  ----- ------------  ---------------      ----- ------------  ---------------
    37      2.976623   3 H  s               334     -2.801650  20 H  s         
   506     -2.620841  32 H  s               497      2.439044  31 H  s         
   106     -2.335643   7 N  s               130     -2.234560   8 H  s         
   575      2.161440  36 N  s               368      2.148447  22 H  s         
   608      2.149879  38 H  s               319     -2.055109  19 C  pz        

 Vector   75  Occ=0.000000D+00  E= 6.139572D-02
              MO Center=  6.7D-02,  9.1D-01, -7.5D-01, r^2= 4.8D+01
   Bfn.  Coefficient  Atom+Function         Bfn.  Coefficient  Atom+Function  
  ----- ------------  ---------------      ----- ------------  ---------------
   334      3.503382  20 H  s               352     -3.428160  21 C  py        
   454     -3.286875  28 H  s               421      3.111306  26 C  s         
   515      2.779665  33 H  s               411      2.715704  25 H  s         
   599     -2.375978  37 H  s               106      2.350721   7 N  s         
   463      2.358141  29 H  s               394     -2.318917  24 C  px        

 Vector   76  Occ=0.000000D+00  E= 6.449782D-02
              MO Center= -6.4D-01, -1.1D+00, -3.6D-01, r^2= 5.1D+01
   Bfn.  Coefficient  Atom+Function         Bfn.  Coefficient  Atom+Function  
  ----- ------------  ---------------      ----- ------------  ---------------
   463     -3.870297  29 H  s               445      3.694767  27 H  s         
   368      3.178395  22 H  s                37     -3.147695   3 H  s         
   334     -2.758892  20 H  s               148     -2.383751   9 C  py        
     3      2.333037   1 H  s               352      2.326796  21 C  py        
   318     -2.236736  19 C  py              164      2.024402  10 H  s         

 Vector   77  Occ=0.000000D+00  E= 6.734857D-02
              MO Center= -6.2D-01,  1.5D+00, -5.0D-01, r^2= 4.9D+01
   Bfn.  Coefficient  Atom+Function         Bfn.  Coefficient  Atom+Function  
  ----- ------------  ---------------      ----- ------------  ---------------
   421      5.649960  26 C  s               411     -4.109475  25 H  s         
   497      3.756538  31 H  s               394      3.144483  24 C  px        
     3     -3.022629   1 H  s               463     -2.764914  29 H  s         
   506     -2.492426  32 H  s                13     -2.371685   2 C  s         
   174     -2.267555  11 C  s               445      2.272865  27 H  s         

 Vector   78  Occ=0.000000D+00  E= 6.931007D-02
              MO Center= -4.7D-01,  1.1D+00, -4.2D-02, r^2= 5.0D+01
   Bfn.  Coefficient  Atom+Function         Bfn.  Coefficient  Atom+Function  
  ----- ------------  ---------------      ----- ------------  ---------------
   515      4.215526  33 H  s               445     -3.455652  27 H  s         
   216      3.245581  14 H  s               377     -3.181262  23 H  s         
   207     -2.759601  13 H  s               318      2.535131  19 C  py        
    56     -2.461440   5 C  s               276      2.207197  17 N  s         
   368      2.088817  22 H  s                46     -1.996252   4 H  s         

 Vector   79  Occ=0.000000D+00  E= 7.712851D-02
              MO Center=  3.3D-01, -1.1D+00,  7.5D-01, r^2= 5.1D+01
   Bfn.  Coefficient  Atom+Function         Bfn.  Coefficient  Atom+Function  
  ----- ------------  ---------------      ----- ------------  ---------------
    13      6.569091   2 C  s               198      4.912330  12 H  s         
   411     -4.914105  25 H  s               216     -4.355818  14 H  s         
    64      3.866720   5 C  py               37      3.466199   3 H  s         
   234      3.260284  15 C  py              497     -3.148064  31 H  s         
   140     -2.748277   9 C  s               114      2.596538   7 N  py        

 Vector   80  Occ=0.000000D+00  E= 7.824548D-02
              MO Center=  1.8D-01,  9.6D-01, -7.5D-03, r^2= 4.8D+01
   Bfn.  Coefficient  Atom+Function         Bfn.  Coefficient  Atom+Function  
  ----- ------------  ---------------      ----- ------------  ---------------
   463      5.405448  29 H  s               368     -4.497998  22 H  s         
   515      4.246286  33 H  s               421      4.156712  26 C  s         
   198     -3.839058  12 H  s               454     -3.686369  28 H  s         
   234     -3.529631  15 C  py              352     -3.503526  21 C  py        
   396      3.377716  24 C  pz              377      3.078045  23 H  s         

 Vector   81  Occ=0.000000D+00  E= 8.494998D-02
              MO Center= -6.2D-02,  5.7D-01,  1.3D+00, r^2= 4.6D+01
   Bfn.  Coefficient  Atom+Function         Bfn.  Coefficient  Atom+Function  
  ----- ------------  ---------------      ----- ------------  ---------------
   207      4.745677  13 H  s                56      4.707627   5 C  s         
   506     -4.728103  32 H  s               216     -4.358957  14 H  s         
   148      3.752060   9 C  py              411      3.672550  25 H  s         
   174     -3.535142  11 C  s               300     -3.431506  18 H  s         
   421      3.301590  26 C  s               368      2.986477  22 H  s         

 Vector   82  Occ=0.000000D+00  E= 8.772357D-02
              MO Center=  4.3D-01, -4.1D-01, -1.2D+00, r^2= 5.1D+01
   Bfn.  Coefficient  Atom+Function         Bfn.  Coefficient  Atom+Function  
  ----- ------------  ---------------      ----- ------------  ---------------
   454      8.254396  28 H  s               130     -4.825859   8 H  s         
   515      4.188418  33 H  s               411     -4.080707  25 H  s         
    13     -3.553168   2 C  s               599     -3.478896  37 H  s         
   445     -3.150436  27 H  s                56      3.123074   5 C  s         
   234     -3.120080  15 C  py              463     -2.815957  29 H  s         

 Vector   83  Occ=0.000000D+00  E= 9.390742D-02
              MO Center= -1.3D+00,  1.4D+00, -2.4D-01, r^2= 4.3D+01
   Bfn.  Coefficient  Atom+Function         Bfn.  Coefficient  Atom+Function  
  ----- ------------  ---------------      ----- ------------  ---------------
   368      7.220238  22 H  s               454     -6.620343  28 H  s         
   497     -5.799763  31 H  s               164     -5.269295  10 H  s         
    56      4.671749   5 C  s               473      4.349935  30 C  s         
   445      3.834054  27 H  s                13     -3.570273   2 C  s         
   599      3.517535  37 H  s               506      3.410978  32 H  s         

 Vector   84  Occ=0.000000D+00  E= 9.522917D-02
              MO Center= -4.7D-01,  9.0D-01, -1.6D+00, r^2= 4.1D+01
   Bfn.  Coefficient  Atom+Function         Bfn.  Coefficient  Atom+Function  
  ----- ------------  ---------------      ----- ------------  ---------------
   334     11.640187  20 H  s               463     -5.945436  29 H  s         
   319      5.476965  19 C  pz              599     -4.792807  37 H  s         
   445      4.292129  27 H  s               310     -3.489317  19 C  s         
[...]
   473     12.347701  30 C  s               284     -8.046123  17 N  py        
    12      7.366997   2 C  s               174      7.337218  11 C  s         
   575     -6.503842  36 N  s               114     -6.342348   7 N  py        

 Vector  175  Occ=0.000000D+00  E= 4.435018D-01
              MO Center=  2.6D-01, -1.9D-02,  4.0D-01, r^2= 2.4D+01
   Bfn.  Coefficient  Atom+Function         Bfn.  Coefficient  Atom+Function  
  ----- ------------  ---------------      ----- ------------  ---------------
   173     12.697758  11 C  s               276    -11.357169  17 N  s         
   197     -9.126257  12 H  s               206     -8.172004  13 H  s         
   215     -7.910947  14 H  s               284      7.244176  17 N  py        
   318     -7.238942  19 C  py              147      6.800733   9 C  px        
   233     -6.251451  15 C  px              235      6.163203  15 C  pz        

 Vector  176  Occ=0.000000D+00  E= 4.484670D-01
              MO Center= -4.7D-01,  5.1D-01,  3.3D-02, r^2= 2.4D+01
   Bfn.  Coefficient  Atom+Function         Bfn.  Coefficient  Atom+Function  
  ----- ------------  ---------------      ----- ------------  ---------------
   318     19.751414  19 C  py              352    -17.321184  21 C  py        
   234    -14.976037  15 C  py              276     13.397541  17 N  s         
   472     -8.831253  30 C  s               106     -7.011927   7 N  s         
   496      6.770990  31 H  s               147     -6.106189   9 C  px        
    13      6.004525   2 C  s               283      6.033942  17 N  px        

 Vector  177  Occ=0.000000D+00  E= 4.504643D-01
              MO Center= -3.7D-01, -9.0D-01, -5.9D-01, r^2= 3.3D+01
   Bfn.  Coefficient  Atom+Function         Bfn.  Coefficient  Atom+Function  
  ----- ------------  ---------------      ----- ------------  ---------------
   352      8.487331  21 C  py              284      8.253417  17 N  py        
   318     -7.655667  19 C  py              420     -5.083172  26 C  s         
     2      4.714076   1 H  s               344     -4.672525  21 C  s         
   106      4.101733   7 N  s               173      3.998472  11 C  s         
   394      3.644348  24 C  px              148      3.602549   9 C  py        

 Vector  178  Occ=0.000000D+00  E= 4.543261D-01
              MO Center= -7.1D-01,  1.6D-01, -3.2D-01, r^2= 2.9D+01
   Bfn.  Coefficient  Atom+Function         Bfn.  Coefficient  Atom+Function  
  ----- ------------  ---------------      ----- ------------  ---------------
   473     15.416149  30 C  s               344    -11.608648  21 C  s         
    56     -9.010364   5 C  s               387     -8.289737  24 C  s         
    13      8.209948   2 C  s               309     -7.299035  19 C  s         
   174      7.088390  11 C  s               333      6.846715  20 H  s         
   148     -6.237338   9 C  py              318     -6.058557  19 C  py        

 Vector  179  Occ=0.000000D+00  E= 4.571615D-01
              MO Center=  1.1D-01,  5.5D-01,  2.8D-02, r^2= 2.5D+01
   Bfn.  Coefficient  Atom+Function         Bfn.  Coefficient  Atom+Function  
  ----- ------------  ---------------      ----- ------------  ---------------
   421     15.267923  26 C  s               344    -11.460151  21 C  s         
    56     -9.666045   5 C  s               174      7.875114  11 C  s         
   473      7.778112  30 C  s               420      7.551036  26 C  s         
   453     -6.360001  28 H  s               462     -6.369053  29 H  s         
   317      6.185806  19 C  px              310     -6.096764  19 C  s         

 Vector  180  Occ=0.000000D+00  E= 4.590035D-01
              MO Center=  2.3D-01, -6.9D-02, -1.5D-01, r^2= 2.1D+01
   Bfn.  Coefficient  Atom+Function         Bfn.  Coefficient  Atom+Function  
  ----- ------------  ---------------      ----- ------------  ---------------
   276     15.907280  17 N  s                56    -11.023981   5 C  s         
    13      8.612414   2 C  s               334     -6.901559  20 H  s         
   197      6.735659  12 H  s               319     -6.690792  19 C  pz        
   318      6.377529  19 C  py              235     -6.288067  15 C  pz        
   174      6.250484  11 C  s               525     -6.048209  34 C  s         

 Vector  181  Occ=0.000000D+00  E= 4.638115D-01
              MO Center= -1.4D-01, -4.9D-01,  7.6D-01, r^2= 2.5D+01
   Bfn.  Coefficient  Atom+Function         Bfn.  Coefficient  Atom+Function  
  ----- ------------  ---------------      ----- ------------  ---------------
   234     16.208593  15 C  py               13     11.769072   2 C  s         
    64     10.046541   5 C  py              473      8.145520  30 C  s         
   114      7.789210   7 N  py              284     -7.125578  17 N  py        
   421     -7.150470  26 C  s               575     -6.593639  36 N  s         
   394      6.128486  24 C  px              148     -5.469130   9 C  py        

 Vector  182  Occ=0.000000D+00  E= 4.663712D-01
              MO Center= -1.2D-01, -9.1D-01,  3.0D-01, r^2= 2.7D+01
   Bfn.  Coefficient  Atom+Function         Bfn.  Coefficient  Atom+Function  
  ----- ------------  ---------------      ----- ------------  ---------------
   148     26.156914   9 C  py               56     14.590336   5 C  s         
   106      9.963353   7 N  s               174     -9.847541  11 C  s         
   387     -8.974884  24 C  s               173     -7.686990  11 C  s         
   215      7.622412  14 H  s               284      7.461615  17 N  py        
   344     -7.065623  21 C  s               421      6.497037  26 C  s         

 Vector  183  Occ=0.000000D+00  E= 4.708496D-01
              MO Center= -8.4D-01,  1.7D+00,  5.4D-01, r^2= 2.2D+01
   Bfn.  Coefficient  Atom+Function         Bfn.  Coefficient  Atom+Function  
  ----- ------------  ---------------      ----- ------------  ---------------
   148     17.862383   9 C  py              343    -10.391663  21 C  s         
   284      9.886700  17 N  py              234     -9.549620  15 C  py        
   472     -9.019033  30 C  s               410      8.289679  25 H  s         
   367      7.946275  22 H  s                56      7.889946   5 C  s         
   376      7.857173  23 H  s               505      6.293639  32 H  s         

 Vector  184  Occ=0.000000D+00  E= 4.730721D-01
              MO Center=  1.7D-01,  1.3D-01,  1.7D-02, r^2= 2.6D+01
   Bfn.  Coefficient  Atom+Function         Bfn.  Coefficient  Atom+Function  
  ----- ------------  ---------------      ----- ------------  ---------------
    13     14.649560   2 C  s               318     11.280533  19 C  py        
   276     10.980000  17 N  s               148      9.894535   9 C  py        
   525     -8.307109  34 C  s               234     -8.054765  15 C  py        
    64      7.206816   5 C  py              344     -7.140826  21 C  s         
   387     -5.600152  24 C  s               421      5.484882  26 C  s         

 Vector  185  Occ=0.000000D+00  E= 4.796229D-01
              MO Center= -1.5D-01,  2.1D+00, -7.7D-02, r^2= 2.3D+01
   Bfn.  Coefficient  Atom+Function         Bfn.  Coefficient  Atom+Function  
  ----- ------------  ---------------      ----- ------------  ---------------
   473     12.274433  30 C  s               318      8.380901  19 C  py        
   421     -7.569379  26 C  s               352     -6.218607  21 C  py        
   410     -6.094328  25 H  s               386      6.043008  24 C  s         
   525      5.926489  34 C  s               106     -5.483719   7 N  s         
   234     -5.426830  15 C  py              387     -5.338979  24 C  s         

 Vector  186  Occ=0.000000D+00  E= 4.818685D-01
              MO Center= -5.5D-01,  7.6D-01,  1.3D-01, r^2= 2.9D+01
   Bfn.  Coefficient  Atom+Function         Bfn.  Coefficient  Atom+Function  
  ----- ------------  ---------------      ----- ------------  ---------------
   473     20.710880  30 C  s               394      9.630422  24 C  px        
   344     -9.179539  21 C  s               387     -7.880465  24 C  s         
   525      6.967149  34 C  s               386      6.380454  24 C  s         
   514     -5.495990  33 H  s               396     -5.417565  24 C  pz        
   395     -5.156019  24 C  py              174     -4.746107  11 C  s         

 Vector  187  Occ=0.000000D+00  E= 4.893680D-01
              MO Center= -7.5D-01,  1.7D+00,  4.4D-02, r^2= 2.6D+01
   Bfn.  Coefficient  Atom+Function         Bfn.  Coefficient  Atom+Function  
  ----- ------------  ---------------      ----- ------------  ---------------
   421     12.822670  26 C  s               420     10.203469  26 C  s         
   234     -8.210295  15 C  py              462     -8.210964  29 H  s         
    56      7.354563   5 C  s               377      6.809089  23 H  s         
    13     -6.655004   2 C  s               300     -6.290314  18 H  s         
   352     -6.000232  21 C  py              394      5.341546  24 C  px        

 Vector  188  Occ=0.000000D+00  E= 4.919992D-01
              MO Center=  2.0D-01,  1.7D-01,  6.0D-01, r^2= 2.4D+01
   Bfn.  Coefficient  Atom+Function         Bfn.  Coefficient  Atom+Function  
  ----- ------------  ---------------      ----- ------------  ---------------
    13     13.273031   2 C  s               148      7.217845   9 C  py        
   276     -7.066471  17 N  s               174      6.650637  11 C  s         
    12      5.244573   2 C  s                56     -4.978454   5 C  s         
   318      4.786236  19 C  py               36     -4.622832   3 H  s         
    65      4.603173   5 C  pz              234      4.335889  15 C  py        

 Vector  189  Occ=0.000000D+00  E= 4.929424D-01
              MO Center= -7.2D-02,  1.5D+00, -9.3D-02, r^2= 2.3D+01
   Bfn.  Coefficient  Atom+Function         Bfn.  Coefficient  Atom+Function  
  ----- ------------  ---------------      ----- ------------  ---------------
   421     20.025965  26 C  s               344     -9.625093  21 C  s         
   148     -8.383004   9 C  py              318     -8.371994  19 C  py        
   310     -8.108685  19 C  s               396      7.467497  24 C  pz        
   444     -5.780688  27 H  s               462     -5.461085  29 H  s         
    12     -5.269307   2 C  s               352     -5.227202  21 C  py        

 Vector  190  Occ=0.000000D+00  E= 4.966134D-01
              MO Center=  1.1D-01,  1.5D+00, -4.9D-02, r^2= 2.4D+01
   Bfn.  Coefficient  Atom+Function         Bfn.  Coefficient  Atom+Function  
  ----- ------------  ---------------      ----- ------------  ---------------
    56     18.670047   5 C  s               421     18.624504  26 C  s         
    13    -15.860301   2 C  s               174    -14.758385  11 C  s         
   473    -12.592050  30 C  s               420     11.068864  26 C  s         
   396      9.019720  24 C  pz              444     -8.335265  27 H  s         
   453     -8.276058  28 H  s               318     -7.379755  19 C  py        

 Vector  191  Occ=0.000000D+00  E= 5.005367D-01
              MO Center=  9.7D-02, -1.2D+00, -4.5D-01, r^2= 2.7D+01
   Bfn.  Coefficient  Atom+Function         Bfn.  Coefficient  Atom+Function  
  ----- ------------  ---------------      ----- ------------  ---------------
   473     13.104905  30 C  s               148     -8.978193   9 C  py        
   575     -8.009229  36 N  s               234      7.339432  15 C  py        
   352     -6.744013  21 C  py              319      6.553586  19 C  pz        
   344     -5.152911  21 C  s               276     -5.099207  17 N  s         
   106     -4.744839   7 N  s               505     -4.230763  32 H  s         


 center of mass
 --------------
 x =   0.04382409 y =  -0.10249137 z =   0.01684947

 moments of inertia (a.u.)
 ------------------
       10029.799717207972           0.000000000001           0.000000000001
           0.000000000001        1939.481811494401          -0.000000000001
           0.000000000001          -0.000000000001       10428.950786637810

  Mulliken analysis of the total density
  --------------------------------------

    Atom       Charge   Shell Charges
 -----------   ------   -------------------------------------------------------
    1 H    1     0.86   0.76  0.12  0.00  0.03 -0.06
    2 C    6     6.38   2.01  0.66  0.24  0.23  2.06  1.04 -0.03  0.06  0.10
    3 H    1     0.99   0.76  0.24  0.01  0.03 -0.05
    4 H    1     0.84   0.76  0.10  0.00  0.03 -0.06
    5 C    6     5.10   2.01  0.68  0.10 -0.10  1.90  0.30 -0.06  0.24  0.03
    6 O    8     8.71   2.01  0.82  0.99  0.15  2.79  1.82  0.14  0.01 -0.02
    7 N    7     7.55   2.01  0.72  0.86 -0.07  2.46  1.44  0.03  0.05  0.05
    8 H    1     1.01   0.75  0.23 -0.00  0.06 -0.03
    9 C    6     6.42   2.01  0.66  0.17  0.01  2.00  1.38 -0.10  0.14  0.16
   10 H    1     1.10   0.78  0.31  0.00  0.03 -0.01
   11 C    6     5.50   2.01  0.66  0.16  0.14  2.04  0.44 -0.01  0.07 -0.01
   12 H    1     0.89   0.77  0.16 -0.00  0.03 -0.08
   13 H    1     0.90   0.77  0.15  0.02  0.03 -0.07
   14 H    1     1.03   0.77  0.30  0.00  0.03 -0.06
   15 C    6     4.70   2.01  0.68  0.04  0.08  1.88  0.13 -0.01  0.23 -0.34
   16 O    8     8.83   2.01  0.82  1.02  0.17  2.79  1.87  0.15  0.01 -0.00
   17 N    7     7.61   2.01  0.72  0.94 -0.06  2.45  1.47 -0.03  0.05  0.06
   18 H    1     0.95   0.77  0.22 -0.04  0.05 -0.04
   19 C    6     5.99   2.01  0.66  0.08  0.08  2.00  1.13  0.01  0.14 -0.10
   20 H    1     1.30   0.79  0.48 -0.01  0.03  0.02
   21 C    6     6.01   2.01  0.67  0.44 -0.02  2.03  0.60  0.04  0.09  0.15
   22 H    1     1.00   0.79  0.32 -0.02  0.03 -0.11
   23 H    1     1.01   0.78  0.31 -0.01  0.03 -0.10
   24 C    6     6.66   2.01  0.65 -0.06  0.17  2.02  1.56 -0.16  0.12  0.35
   25 H    1     1.11   0.79  0.32  0.02  0.03 -0.05
   26 C    6     5.68   2.01  0.66  0.36  0.09  2.04  0.51 -0.06  0.07 -0.01
   27 H    1     0.96   0.78  0.25  0.00  0.03 -0.10
   28 H    1     1.01   0.78  0.25  0.02  0.03 -0.07
   29 H    1     0.87   0.78  0.16  0.00  0.03 -0.10
   30 C    6     5.82   2.01  0.66  0.26  0.30  2.04  0.55 -0.06  0.07 -0.02
   31 H    1     0.90   0.78  0.16  0.02  0.03 -0.08
   32 H    1     0.98   0.78  0.24  0.02  0.03 -0.09
   33 H    1     0.98   0.78  0.25  0.01  0.03 -0.09
   34 C    6     4.23   2.01  0.69 -0.10 -0.00  1.89 -0.30  0.01  0.24 -0.20
   35 O    8     8.89   2.01  0.82  1.06  0.18  2.79  1.87  0.15  0.01  0.01
   36 N    7     7.29   2.01  0.72  0.82 -0.11  2.46  1.27  0.09  0.04 -0.01
   37 H    1     0.92   0.76  0.18 -0.02  0.05 -0.05
   38 H    1     1.00   0.75  0.21 -0.01  0.05 -0.02

       Multipole analysis of the density wrt the origin
       ------------------------------------------------

     L   x y z        total         open         nuclear
     -   - - -        -----         ----         -------
     0   0 0 0     -0.000000      0.000000    132.000000

     1   1 0 0      0.178008      0.000000      0.000000
     1   0 1 0      1.184322      0.000000     -0.000000
     1   0 0 1     -1.220271      0.000000     -0.000000

     2   2 0 0    -78.958627      0.000000    667.418960
     2   1 1 0     -9.703112      0.000000    -77.758782
     2   1 0 1     -3.592249      0.000000     -4.220355
     2   0 2 0    -80.334786      0.000000   5192.061057
     2   0 1 1      0.791965      0.000000     -5.708879
     2   0 0 2    -79.882892      0.000000    466.787142


 Task  times  cpu:     4301.3s     wall:     4387.6s


                                NWChem Input Module
                                -------------------


 Summary of allocated global arrays
-----------------------------------
  No active global arrays


MA_summarize_allocated_blocks: starting scan ...
MA_summarize_allocated_blocks: scan completed: 0 heap blocks, 0 stack blocks
MA usage statistics:

	allocation statistics:
					      heap	     stack
					      ----	     -----
	current number of blocks	         0	         0
	maximum number of blocks	        16	        14
	current total bytes		         0	         0
	maximum total bytes		    131240	  28332200
	maximum total K-bytes		       132	     28333
	maximum total M-bytes		         1	        29


                                     CITATION
                                     --------
                Please cite the following reference when publishing
                           results obtained with NWChem:

          E. Apra, E. J. Bylaska, W. A. de Jong, N. Govind, K. Kowalski,
       T. P. Straatsma, M. Valiev, H. J. J. van Dam, Y. Alexeev, J. Anchell,
       V. Anisimov, F. W. Aquino, R. Atta-Fynn, J. Autschbach, N. P. Bauman,
     J. C. Becca, D. E. Bernholdt, K. Bhaskaran-Nair, S. Bogatko, P. Borowski,
         J. Boschen, J. Brabec, A. Bruner, E. Cauet, Y. Chen, G. N. Chuev,
      C. J. Cramer, J. Daily, M. J. O. Deegan, T. H. Dunning Jr., M. Dupuis,
   K. G. Dyall, G. I. Fann, S. A. Fischer, A. Fonari, H. Fruchtl, L. Gagliardi,
      J. Garza, N. Gawande, S. Ghosh, K. Glaesemann, A. W. Gotz, J. Hammond,
       V. Helms, E. D. Hermes, K. Hirao, S. Hirata, M. Jacquelin, L. Jensen,
   B. G. Johnson, H. Jonsson, R. A. Kendall, M. Klemm, R. Kobayashi, V. Konkov,
      S. Krishnamoorthy, M. Krishnan, Z. Lin, R. D. Lins, R. J. Littlefield,
      A. J. Logsdail, K. Lopata, W. Ma, A. V. Marenich, J. Martin del Campo,
   D. Mejia-Rodriguez, J. E. Moore, J. M. Mullin, T. Nakajima, D. R. Nascimento,
    J. A. Nichols, P. J. Nichols, J. Nieplocha, A. Otero-de-la-Roza, B. Palmer,
    A. Panyala, T. Pirojsirikul, B. Peng, R. Peverati, J. Pittner, L. Pollack,
   R. M. Richard, P. Sadayappan, G. C. Schatz, W. A. Shelton, D. W. Silverstein,
   D. M. A. Smith, T. A. Soares, D. Song, M. Swart, H. L. Taylor, G. S. Thomas,
            V. Tipparaju, D. G. Truhlar, K. Tsemekhman, T. Van Voorhis,
      A. Vazquez-Mayagoitia, P. Verma, O. Villa, A. Vishnu, K. D. Vogiatzis,
        D. Wang, J. H. Weare, M. J. Williamson, T. L. Windus, K. Wolinski,
        A. T. Wong, Q. Wu, C. Yang, Q. Yu, M. Zacharias, Z. Zhang, Y. Zhao,
                                and R. J. Harrison
                        "NWChem: Past, present, and future
                         J. Chem. Phys. 152, 184102 (2020)
                               doi:10.1063/5.0004997

                                      AUTHORS
                                      -------
  E. Apra, E. J. Bylaska, N. Govind, K. Kowalski, M. Valiev, D. Mejia-Rodriguez,
       A. Kunitsa, N. P. Bauman, A. Panyala, W. A. de Jong, T. P. Straatsma,
   H. J. J. van Dam, D. Wang, T. L. Windus, J. Hammond, J. Autschbach, A. Woods,
    K. Bhaskaran-Nair, J. Brabec, K. Lopata, S. A. Fischer, S. Krishnamoorthy,
     M. Jacquelin, W. Ma, M. Klemm, O. Villa, Y. Chen, V. Anisimov, F. Aquino,
     S. Hirata, M. T. Hackler, E. Hermes, L. Jensen, J. E. Moore, J. C. Becca,
      V. Konjkov, T. Risthaus, M. Malagoli, A. Marenich, A. Otero-de-la-Roza,
        J. Mullin, P. Nichols, R. Peverati, J. Pittner, Y. Zhao, P.-D. Fan,
        A. Fonari, M. J. Williamson, R. J. Harrison, J. R. Rehr, M. Dupuis,
     D. Silverstein, D. M. A. Smith, J. Nieplocha, V. Tipparaju, M. Krishnan,
     B. E. Van Kuiken, A. Vazquez-Mayagoitia, M. Swart, Q. Wu, T. Van Voorhis,
     A. A. Auer, M. Nooijen, L. D. Crosby, E. Brown, G. Cisneros, G. I. Fann,
   H. Fruchtl, J. Garza, K. Hirao, R. A. Kendall, J. A. Nichols, K. Tsemekhman,
    K. Wolinski, J. Anchell, D. E. Bernholdt, P. Borowski, T. Clark, D. Clerc,
   H. Dachsel, M. J. O. Deegan, K. Dyall, D. Elwood, E. Glendening, M. Gutowski,
   A. C. Hess, J. Jaffe, B. G. Johnson, J. Ju, R. Kobayashi, R. Kutteh, Z. Lin,
   R. Littlefield, X. Long, B. Meng, T. Nakajima, S. Niu, L. Pollack, M. Rosing,
   K. Glaesemann, G. Sandrone, M. Stave, H. Taylor, G. Thomas, J. H. van Lenthe,
                               A. T. Wong, Z. Zhang.

 Total times  cpu:     4301.4s     wall:     4388.2s
