export TMOUT=5400
export TMPDIR=/tmp
export PTMPDIR=/tmp/ptmp
 argument  1 = ALA_MET_0.nw
                                         
                                         


             Northwest Computational Chemistry Package (NWChem) 7.2.0
             --------------------------------------------------------


                    Environmental Molecular Sciences Laboratory
                       Pacific Northwest National Laboratory
                                Richland, WA 99352

                              Copyright (c) 1994-2022
                       Pacific Northwest National Laboratory
                            Battelle Memorial Institute

             NWChem is an open-source computational chemistry package
                        distributed under the terms of the
                      Educational Community License (ECL) 2.0
             A copy of the license is included with this distribution
                              in the LICENSE.TXT file

                                  ACKNOWLEDGMENT
                                  --------------

            This software and its documentation were developed at the
            EMSL at Pacific Northwest National Laboratory, a multiprogram
            national laboratory, operated for the U.S. Department of Energy
            by Battelle under Contract Number DE-AC05-76RL01830. Support
            for this work was provided by the Department of Energy Office
            of Biological and Environmental Research, Office of Basic
            Energy Sciences, and the Office of Advanced Scientific Computing.


           Job information
           ---------------

    hostname        = nova18-45
    program         = /opt/rit/el9/20230413/app/linux-rhel9-x86_64_v3/gcc-11.2.1/nwchem-7.2.0-oxtctbuhfuzyfaoziquq6bki22grib3g/bin/nwchem
    date            = Fri Jun 27 14:02:27 2025

    compiled        = Wed_May_17_23:46:39_2023
    source          = /tmp/root/spack-stage/spack-stage-nwchem-7.2.0-oxtctbuhfuzyfaoziquq6bki22grib3g/spack-src
    nwchem branch   = 7.2.0
    nwchem revision = d0d141fd
    ga revision     = 5.8.0
    use scalapack   = T
    input           = ALA_MET_0.nw
    prefix          = ALA_MET_0.
    data base       = ./ALA_MET_0.db
    status          = startup
    nproc           =        8
    time left       =     -1s



           Memory information
           ------------------

    heap     =   26214400 doubles =    200.0 Mbytes
    stack    =   26214397 doubles =    200.0 Mbytes
    global   =   52428800 doubles =    400.0 Mbytes (distinct from heap & stack)
    total    =  104857597 doubles =    800.0 Mbytes
    verify   = yes
    hardfail = no 


           Directory information
           ---------------------

  0 permanent = .
  0 scratch   = .




                                NWChem Input Module
                                -------------------



 Scaling coordinates for geometry "geometry" by  1.889725989
 (inverse scale =  0.529177249)

 C1  symmetry detected

          ------
          auto-z
          ------
  no constraints, skipping    0.0000000000000000     
  no constraints, skipping    0.0000000000000000     


                             Geometry "geometry" -> ""
                             -------------------------

 Output coordinates in angstroms (scale by  1.889725989 to convert to a.u.)

  No.       Tag          Charge          X              Y              Z
 ---- ---------------- ---------- -------------- -------------- --------------
    1 H                    1.0000    -0.85342073    -5.33552419     1.56717234
    2 C                    6.0000    -0.35092141    -5.49366019     0.61421461
    3 H                    1.0000    -1.07669556    -5.77067615    -0.14848850
    4 H                    1.0000     0.39011238    -6.28471788     0.71837628
    5 C                    6.0000     0.34837475    -4.22055143     0.19944965
    6 O                    8.0000     1.56080015    -4.21057991     0.03692206
    7 N                    7.0000    -0.41974903    -3.14594963     0.03462606
    8 H                    1.0000    -1.40734665    -3.22393998     0.22529449
    9 C                    6.0000     0.07512811    -1.82311067    -0.34564582
   10 H                    1.0000     1.07895694    -1.68935495     0.06376973
   11 C                    6.0000     0.16299028    -1.74315328    -1.87712976
   12 H                    1.0000     0.82672272    -2.52482888    -2.24919227
   13 H                    1.0000    -0.82695930    -1.87263514    -2.31592388
   14 H                    1.0000     0.56496614    -0.77425945    -2.17819808
   15 C                    6.0000    -0.81938807    -0.70856173     0.22702378
   16 O                    8.0000    -1.97574650    -0.94336845     0.57432047
   17 N                    7.0000    -0.29274726     0.51618309     0.29209740
   18 H                    1.0000     0.64627646     0.63967658    -0.06058350
   19 C                    6.0000    -0.95149787     1.72050873     0.82848009
   20 H                    1.0000    -1.46521014     1.42481862     1.74388604
   21 C                    6.0000     0.12475015     2.75271868     1.22822851
   22 H                    1.0000    -0.37276396     3.59345158     1.71249486
   23 H                    1.0000     0.78834732     2.30735619     1.96985109
   24 C                    6.0000     0.96574547     3.30387021     0.06186584
   25 H                    1.0000     0.29439911     3.63457798    -0.72994881
   26 H                    1.0000     1.49624967     4.18726326     0.41915007
   27 S                   16.0000     2.19763596     2.17860228    -0.66681233
   28 C                    6.0000     3.41941731     2.08971588     0.67020021
   29 H                    1.0000     3.77601056     3.09305545     0.90810768
   30 H                    1.0000     2.97275710     1.64243824     1.55792504
   31 H                    1.0000     4.26302208     1.47850167     0.34882163
   32 C                    6.0000    -2.04758531     2.31598025    -0.08697990
   33 O                    8.0000    -2.23900606     3.52421293    -0.14695410
   34 N                    7.0000    -2.77750923     1.50014659    -0.83567377
   35 H                    1.0000    -2.67227458     0.50199484    -0.72547050
   36 H                    1.0000    -3.48574755     1.89785020    -1.42794509

      Atomic Mass 
      ----------- 

      H                  1.007825
      C                 12.000000
      O                 15.994910
      N                 14.003070
      S                 31.972070


 Effective nuclear repulsion energy (a.u.)    1410.1498064472

            Nuclear Dipole moment (a.u.) 
            ----------------------------
        X                 Y               Z
 ---------------- ---------------- ----------------
    -0.0000000000    -0.0000000000     0.0000000000



                                Z-matrix (autoz)
                                -------- 

 Units are Angstrom for bonds and degrees for angles

      Type          Name      I     J     K     L     M      Value
      ----------- --------  ----- ----- ----- ----- ----- ----------
    1 Stretch                  1     2                       1.08887
    2 Stretch                  2     3                       1.08867
    3 Stretch                  2     4                       1.08892
    4 Stretch                  2     5                       1.51058
    5 Stretch                  5     6                       1.22331
    6 Stretch                  5     7                       1.33115
    7 Stretch                  7     8                       1.00885
    8 Stretch                  7     9                       1.46267
    9 Stretch                  9    10                       1.09233
   10 Stretch                  9    11                       1.53608
   11 Stretch                  9    15                       1.53959
   12 Stretch                 11    12                       1.09087
   13 Stretch                 11    13                       1.09055
   14 Stretch                 11    14                       1.09132
   15 Stretch                 15    16                       1.23001
   16 Stretch                 15    17                       1.33476
   17 Stretch                 17    18                       1.01064
   18 Stretch                 17    19                       1.47379
   19 Stretch                 19    20                       1.09055
   20 Stretch                 19    21                       1.54388
   21 Stretch                 19    32                       1.54728
   22 Stretch                 21    22                       1.09035
   23 Stretch                 21    23                       1.09028
   24 Stretch                 21    24                       1.53995
   25 Stretch                 24    25                       1.08952
   26 Stretch                 24    26                       1.09063
   27 Stretch                 24    27                       1.82065
   28 Stretch                 27    28                       1.81335
   29 Stretch                 28    29                       1.09108
   30 Stretch                 28    30                       1.08978
   31 Stretch                 28    31                       1.09020
   32 Stretch                 32    33                       1.22477
   33 Stretch                 32    34                       1.32624
   34 Stretch                 34    35                       1.00972
   35 Stretch                 34    36                       1.00526
   36 Bend                     1     2     3               110.02526
   37 Bend                     1     2     4               109.62350
   38 Bend                     1     2     5               109.36224
   39 Bend                     2     5     6               120.14315
   40 Bend                     2     5     7               116.56645
   41 Bend                     3     2     4               109.62369
   42 Bend                     3     2     5               109.31187
   43 Bend                     4     2     5               108.87385
   44 Bend                     5     7     8               118.62486
   45 Bend                     5     7     9               124.54518
   46 Bend                     6     5     7               123.28977
   47 Bend                     7     9    10               108.91858
   48 Bend                     7     9    11               109.00401
   49 Bend                     7     9    15               111.18843
   50 Bend                     8     7     9               116.76036
   51 Bend                     9    11    12               109.72783
   52 Bend                     9    11    13               110.06291
   53 Bend                     9    11    14               110.01893
   54 Bend                     9    15    16               120.86723
   55 Bend                     9    15    17               116.94599
   56 Bend                    10     9    11               108.34564
   57 Bend                    10     9    15               107.81091
   58 Bend                    11     9    15               111.49375
   59 Bend                    12    11    13               109.26911
   60 Bend                    12    11    14               108.54028
   61 Bend                    13    11    14               109.19411
   62 Bend                    15    17    18               117.49725
   63 Bend                    15    17    19               126.24176
   64 Bend                    16    15    17               122.16320
   65 Bend                    17    19    20               107.12665
   66 Bend                    17    19    21               109.20713
   67 Bend                    17    19    32               114.56913
   68 Bend                    18    17    19               116.26069
   69 Bend                    19    21    22               108.20621
   70 Bend                    19    21    23               109.10562
   71 Bend                    19    21    24               115.07976
   72 Bend                    19    32    33               121.28821
   73 Bend                    19    32    34               119.15320
   74 Bend                    20    19    21               106.99657
   75 Bend                    20    19    32               105.50302
   76 Bend                    21    19    32               112.93702
   77 Bend                    21    24    25               108.81866
   78 Bend                    21    24    26               107.90369
   79 Bend                    21    24    27               116.83658
   80 Bend                    22    21    23               106.89261
   81 Bend                    22    21    24               108.03589
   82 Bend                    23    21    24               109.20800
   83 Bend                    24    27    28               101.01624
   84 Bend                    25    24    26               106.97466
   85 Bend                    25    24    27               108.27991
   86 Bend                    26    24    27               107.61440
   87 Bend                    27    28    29               109.62727
   88 Bend                    27    28    30               110.15590
   89 Bend                    27    28    31               109.35964
   90 Bend                    29    28    30               109.49712
   91 Bend                    29    28    31               109.08302
   92 Bend                    30    28    31               109.09785
   93 Bend                    32    34    35               119.28326
   94 Bend                    32    34    36               118.48882
   95 Bend                    33    32    34               119.54976
   96 Bend                    35    34    36               121.92586
   97 Torsion                  1     2     5     6         119.84225
   98 Torsion                  1     2     5     7         -59.87981
   99 Torsion                  2     5     7     8           2.26546
  100 Torsion                  2     5     7     9         179.12707
  101 Torsion                  3     2     5     6        -119.64372
  102 Torsion                  3     2     5     7          60.63421
  103 Torsion                  4     2     5     6           0.08442
  104 Torsion                  4     2     5     7        -179.63765
  105 Torsion                  5     7     9    10         -31.87303
  106 Torsion                  5     7     9    11          86.15761
  107 Torsion                  5     7     9    15        -150.53541
  108 Torsion                  6     5     7     8        -177.44701
  109 Torsion                  6     5     7     9          -0.58540
  110 Torsion                  7     9    11    12         -58.61916
  111 Torsion                  7     9    11    13          61.65891
  112 Torsion                  7     9    11    14        -177.97118
  113 Torsion                  7     9    15    16         -20.51577
  114 Torsion                  7     9    15    17         161.21320
  115 Torsion                  8     7     9    10         145.04179
  116 Torsion                  8     7     9    11         -96.92757
  117 Torsion                  8     7     9    15          26.37940
  118 Torsion                  9    15    17    18           1.65133
  119 Torsion                  9    15    17    19        -178.55513
  120 Torsion                 10     9    11    12          59.77159
  121 Torsion                 10     9    11    13        -179.95034
  122 Torsion                 10     9    11    14         -59.58043
  123 Torsion                 10     9    15    16        -139.84170
  124 Torsion                 10     9    15    17          41.88727
  125 Torsion                 11     9    15    16         101.35427
  126 Torsion                 11     9    15    17         -76.91675
  127 Torsion                 12    11     9    15         178.25605
  128 Torsion                 13    11     9    15         -61.46588
  129 Torsion                 14    11     9    15          58.90403
  130 Torsion                 15    17    19    20          42.54874
  131 Torsion                 15    17    19    21         158.09632
  132 Torsion                 15    17    19    32         -74.09343
  133 Torsion                 16    15    17    18        -176.59554
  134 Torsion                 16    15    17    19           3.19800
  135 Torsion                 17    19    21    22        -174.47439
  136 Torsion                 17    19    21    23         -58.52015
  137 Torsion                 17    19    21    24          64.60934
  138 Torsion                 17    19    32    33        -145.72456
  139 Torsion                 17    19    32    34          33.18948
  140 Torsion                 18    17    19    20        -137.65547
  141 Torsion                 18    17    19    21         -22.10789
  142 Torsion                 18    17    19    32         105.70236
  143 Torsion                 19    21    24    25          49.96040
  144 Torsion                 19    21    24    26         165.69667
  145 Torsion                 19    21    24    27         -72.98161
  146 Torsion                 19    32    34    35           6.29555
  147 Torsion                 19    32    34    36        -179.89278
  148 Torsion                 20    19    21    22         -58.84344
  149 Torsion                 20    19    21    23          57.11080
  150 Torsion                 20    19    21    24        -179.75971
  151 Torsion                 20    19    32    33          96.70478
  152 Torsion                 20    19    32    34         -84.38117
  153 Torsion                 21    19    32    33         -19.83233
  154 Torsion                 21    19    32    34         159.08172
  155 Torsion                 21    24    27    28         -70.36604
  156 Torsion                 22    21    19    32          56.80474
  157 Torsion                 22    21    24    25         -71.04877
  158 Torsion                 22    21    24    26          44.68750
  159 Torsion                 22    21    24    27         166.00922
  160 Torsion                 23    21    19    32         172.75898
  161 Torsion                 23    21    24    25         173.03534
  162 Torsion                 23    21    24    26         -71.22839
  163 Torsion                 23    21    24    27          50.09333
  164 Torsion                 24    21    19    32         -64.11153
  165 Torsion                 24    27    28    29         -57.35875
  166 Torsion                 24    27    28    30          63.19614
  167 Torsion                 24    27    28    31        -176.91067
  168 Torsion                 25    24    27    28         166.41444
  169 Torsion                 26    24    27    28          51.10748
  170 Torsion                 33    32    34    35        -174.77122
  171 Torsion                 33    32    34    36          -0.95955


            XYZ format geometry
            -------------------
    36
 geometry
 H                    -0.85342073    -5.33552419     1.56717234
 C                    -0.35092141    -5.49366019     0.61421461
 H                    -1.07669556    -5.77067615    -0.14848850
 H                     0.39011238    -6.28471788     0.71837628
 C                     0.34837475    -4.22055143     0.19944965
 O                     1.56080015    -4.21057991     0.03692206
 N                    -0.41974903    -3.14594963     0.03462606
 H                    -1.40734665    -3.22393998     0.22529449
 C                     0.07512811    -1.82311067    -0.34564582
 H                     1.07895694    -1.68935495     0.06376973
 C                     0.16299028    -1.74315328    -1.87712976
 H                     0.82672272    -2.52482888    -2.24919227
 H                    -0.82695930    -1.87263514    -2.31592388
 H                     0.56496614    -0.77425945    -2.17819808
 C                    -0.81938807    -0.70856173     0.22702378
 O                    -1.97574650    -0.94336845     0.57432047
 N                    -0.29274726     0.51618309     0.29209740
 H                     0.64627646     0.63967658    -0.06058350
 C                    -0.95149787     1.72050873     0.82848009
 H                    -1.46521014     1.42481862     1.74388604
 C                     0.12475015     2.75271868     1.22822851
 H                    -0.37276396     3.59345158     1.71249486
 H                     0.78834732     2.30735619     1.96985109
 C                     0.96574547     3.30387021     0.06186584
 H                     0.29439911     3.63457798    -0.72994881
 H                     1.49624967     4.18726326     0.41915007
 S                     2.19763596     2.17860228    -0.66681233
 C                     3.41941731     2.08971588     0.67020021
 H                     3.77601056     3.09305545     0.90810768
 H                     2.97275710     1.64243824     1.55792504
 H                     4.26302208     1.47850167     0.34882163
 C                    -2.04758531     2.31598025    -0.08697990
 O                    -2.23900606     3.52421293    -0.14695410
 N                    -2.77750923     1.50014659    -0.83567377
 H                    -2.67227458     0.50199484    -0.72547050
 H                    -3.48574755     1.89785020    -1.42794509

 ==============================================================================
                                internuclear distances
 ------------------------------------------------------------------------------
       center one      |      center two      | atomic units |  angstroms
 ------------------------------------------------------------------------------
    2 C                |   1 H                |     2.05767  |     1.08887
    3 H                |   2 C                |     2.05729  |     1.08867
    4 H                |   2 C                |     2.05777  |     1.08892
    5 C                |   2 C                |     2.85458  |     1.51058
    6 O                |   5 C                |     2.31172  |     1.22331
    7 N                |   5 C                |     2.51550  |     1.33115
    8 H                |   7 N                |     1.90646  |     1.00885
    9 C                |   7 N                |     2.76405  |     1.46267
   10 H                |   9 C                |     2.06420  |     1.09233
   11 C                |   9 C                |     2.90278  |     1.53608
   12 H                |  11 C                |     2.06144  |     1.09087
   13 H                |  11 C                |     2.06085  |     1.09055
   14 H                |  11 C                |     2.06230  |     1.09132
   15 C                |   9 C                |     2.90940  |     1.53959
   16 O                |  15 C                |     2.32437  |     1.23001
   17 N                |  15 C                |     2.52233  |     1.33476
   18 H                |  17 N                |     1.90984  |     1.01064
   19 C                |  17 N                |     2.78506  |     1.47379
   20 H                |  19 C                |     2.06084  |     1.09055
   21 C                |  19 C                |     2.91751  |     1.54388
   22 H                |  21 C                |     2.06047  |     1.09035
   23 H                |  21 C                |     2.06033  |     1.09028
   24 C                |  21 C                |     2.91008  |     1.53995
   25 H                |  24 C                |     2.05889  |     1.08952
   26 H                |  24 C                |     2.06099  |     1.09063
   27 S                |  24 C                |     3.44052  |     1.82065
   28 C                |  27 S                |     3.42674  |     1.81335
   29 H                |  28 C                |     2.06184  |     1.09108
   30 H                |  28 C                |     2.05938  |     1.08978
   31 H                |  28 C                |     2.06018  |     1.09020
   32 C                |  19 C                |     2.92393  |     1.54728
   33 O                |  32 C                |     2.31448  |     1.22477
   34 N                |  32 C                |     2.50623  |     1.32624
   35 H                |  34 N                |     1.90809  |     1.00972
   36 H                |  34 N                |     1.89967  |     1.00526
 ------------------------------------------------------------------------------
                         number of included internuclear distances:         35
 ==============================================================================



 ==============================================================================
                                 internuclear angles
 ------------------------------------------------------------------------------
        center 1       |       center 2       |       center 3       |  degrees
 ------------------------------------------------------------------------------
    1 H                |   2 C                |   3 H                |   110.03
    1 H                |   2 C                |   4 H                |   109.62
    1 H                |   2 C                |   5 C                |   109.36
    3 H                |   2 C                |   4 H                |   109.62
    3 H                |   2 C                |   5 C                |   109.31
    4 H                |   2 C                |   5 C                |   108.87
    2 C                |   5 C                |   6 O                |   120.14
    2 C                |   5 C                |   7 N                |   116.57
    6 O                |   5 C                |   7 N                |   123.29
    5 C                |   7 N                |   8 H                |   118.62
    5 C                |   7 N                |   9 C                |   124.55
    8 H                |   7 N                |   9 C                |   116.76
    7 N                |   9 C                |  10 H                |   108.92
    7 N                |   9 C                |  11 C                |   109.00
    7 N                |   9 C                |  15 C                |   111.19
   10 H                |   9 C                |  11 C                |   108.35
   10 H                |   9 C                |  15 C                |   107.81
   11 C                |   9 C                |  15 C                |   111.49
    9 C                |  11 C                |  12 H                |   109.73
    9 C                |  11 C                |  13 H                |   110.06
    9 C                |  11 C                |  14 H                |   110.02
   12 H                |  11 C                |  13 H                |   109.27
   12 H                |  11 C                |  14 H                |   108.54
   13 H                |  11 C                |  14 H                |   109.19
    9 C                |  15 C                |  16 O                |   120.87
    9 C                |  15 C                |  17 N                |   116.95
   16 O                |  15 C                |  17 N                |   122.16
   15 C                |  17 N                |  18 H                |   117.50
   15 C                |  17 N                |  19 C                |   126.24
   18 H                |  17 N                |  19 C                |   116.26
   17 N                |  19 C                |  20 H                |   107.13
   17 N                |  19 C                |  21 C                |   109.21
   17 N                |  19 C                |  32 C                |   114.57
   20 H                |  19 C                |  21 C                |   107.00
   20 H                |  19 C                |  32 C                |   105.50
   21 C                |  19 C                |  32 C                |   112.94
   19 C                |  21 C                |  22 H                |   108.21
   19 C                |  21 C                |  23 H                |   109.11
   19 C                |  21 C                |  24 C                |   115.08
   22 H                |  21 C                |  23 H                |   106.89
   22 H                |  21 C                |  24 C                |   108.04
   23 H                |  21 C                |  24 C                |   109.21
   21 C                |  24 C                |  25 H                |   108.82
   21 C                |  24 C                |  26 H                |   107.90
   21 C                |  24 C                |  27 S                |   116.84
   25 H                |  24 C                |  26 H                |   106.97
   25 H                |  24 C                |  27 S                |   108.28
   26 H                |  24 C                |  27 S                |   107.61
   24 C                |  27 S                |  28 C                |   101.02
   27 S                |  28 C                |  29 H                |   109.63
   27 S                |  28 C                |  30 H                |   110.16
   27 S                |  28 C                |  31 H                |   109.36
   29 H                |  28 C                |  30 H                |   109.50
   29 H                |  28 C                |  31 H                |   109.08
   30 H                |  28 C                |  31 H                |   109.10
   19 C                |  32 C                |  33 O                |   121.29
   19 C                |  32 C                |  34 N                |   119.15
   33 O                |  32 C                |  34 N                |   119.55
   32 C                |  34 N                |  35 H                |   119.28
   32 C                |  34 N                |  36 H                |   118.49
   35 H                |  34 N                |  36 H                |   121.93
 ------------------------------------------------------------------------------
                            number of included internuclear angles:         61
 ==============================================================================



  library name resolved from: environment
  library file name is: </opt/rit/el9/20230413/app/linux-rhel9-x86_64_v3/gcc-11.2.1/nwchem-7.2.0-oxtctbuhfuzyfaoziquq6bki22grib3g/share/nwchem/libraries/>
  


 Summary of "ao basis" -> "" (cartesian)
 ------------------------------------------------------------------------------
       Tag                 Description            Shells   Functions and Types
 ---------------- ------------------------------  ------  ---------------------
 *                        aug-cc-pvdz                 on all atoms 


                      Basis "ao basis" -> "ao basis" (cartesian)
                      -----
  H (Hydrogen)
  ------------
            Exponent  Coefficients 
       -------------- ---------------------------------------------------------
  1 S  1.30100000E+01  0.019685
  1 S  1.96200000E+00  0.137977
  1 S  4.44600000E-01  0.478148

  2 S  1.22000000E-01  1.000000

  3 S  2.97400000E-02  1.000000

  4 P  7.27000000E-01  1.000000

  5 P  1.41000000E-01  1.000000

  C (Carbon)
  ----------
            Exponent  Coefficients 
       -------------- ---------------------------------------------------------
  1 S  6.66500000E+03  0.000692
  1 S  1.00000000E+03  0.005329
  1 S  2.28000000E+02  0.027077
  1 S  6.47100000E+01  0.101718
  1 S  2.10600000E+01  0.274740
  1 S  7.49500000E+00  0.448564
  1 S  2.79700000E+00  0.285074
  1 S  5.21500000E-01  0.015204

  2 S  6.66500000E+03 -0.000146
  2 S  1.00000000E+03 -0.001154
  2 S  2.28000000E+02 -0.005725
  2 S  6.47100000E+01 -0.023312
  2 S  2.10600000E+01 -0.063955
  2 S  7.49500000E+00 -0.149981
  2 S  2.79700000E+00 -0.127262
  2 S  5.21500000E-01  0.544529

  3 S  1.59600000E-01  1.000000

  4 S  4.69000000E-02  1.000000

  5 P  9.43900000E+00  0.038109
  5 P  2.00200000E+00  0.209480
  5 P  5.45600000E-01  0.508557

  6 P  1.51700000E-01  1.000000

  7 P  4.04100000E-02  1.000000

  8 D  5.50000000E-01  1.000000

  9 D  1.51000000E-01  1.000000

  O (Oxygen)
  ----------
            Exponent  Coefficients 
       -------------- ---------------------------------------------------------
  1 S  1.17200000E+04  0.000710
  1 S  1.75900000E+03  0.005470
  1 S  4.00800000E+02  0.027837
  1 S  1.13700000E+02  0.104800
  1 S  3.70300000E+01  0.283062
  1 S  1.32700000E+01  0.448719
  1 S  5.02500000E+00  0.270952
  1 S  1.01300000E+00  0.015458

  2 S  1.17200000E+04 -0.000160
  2 S  1.75900000E+03 -0.001263
  2 S  4.00800000E+02 -0.006267
  2 S  1.13700000E+02 -0.025716
  2 S  3.70300000E+01 -0.070924
  2 S  1.32700000E+01 -0.165411
  2 S  5.02500000E+00 -0.116955
  2 S  1.01300000E+00  0.557368

  3 S  3.02300000E-01  1.000000

  4 S  7.89600000E-02  1.000000

  5 P  1.77000000E+01  0.043018
  5 P  3.85400000E+00  0.228913
  5 P  1.04600000E+00  0.508728

  6 P  2.75300000E-01  1.000000

  7 P  6.85600000E-02  1.000000

  8 D  1.18500000E+00  1.000000

  9 D  3.32000000E-01  1.000000

  N (Nitrogen)
  ------------
            Exponent  Coefficients 
       -------------- ---------------------------------------------------------
  1 S  9.04600000E+03  0.000700
  1 S  1.35700000E+03  0.005389
  1 S  3.09300000E+02  0.027406
  1 S  8.77300000E+01  0.103207
  1 S  2.85600000E+01  0.278723
  1 S  1.02100000E+01  0.448540
  1 S  3.83800000E+00  0.278238
  1 S  7.46600000E-01  0.015440

  2 S  9.04600000E+03 -0.000153
  2 S  1.35700000E+03 -0.001208
  2 S  3.09300000E+02 -0.005992
  2 S  8.77300000E+01 -0.024544
  2 S  2.85600000E+01 -0.067459
  2 S  1.02100000E+01 -0.158078
  2 S  3.83800000E+00 -0.121831
  2 S  7.46600000E-01  0.549003

  3 S  2.24800000E-01  1.000000

  4 S  6.12400000E-02  1.000000

  5 P  1.35500000E+01  0.039919
  5 P  2.91700000E+00  0.217169
  5 P  7.97300000E-01  0.510319

  6 P  2.18500000E-01  1.000000

  7 P  5.61100000E-02  1.000000

  8 D  8.17000000E-01  1.000000

  9 D  2.30000000E-01  1.000000

  S (Sulphur)
  -----------
            Exponent  Coefficients 
       -------------- ---------------------------------------------------------
  1 S  1.10800000E+05  0.000248
  1 S  1.66100000E+04  0.001920
  1 S  3.78100000E+03  0.009962
  1 S  1.07100000E+03  0.040298
  1 S  3.49800000E+02  0.128604
  1 S  1.26300000E+02  0.303480
  1 S  4.92600000E+01  0.421432
  1 S  2.01600000E+01  0.230781
  1 S  5.72000000E+00  0.017897
  1 S  2.18200000E+00 -0.002975
  1 S  4.32700000E-01  0.000850

  2 S  1.10800000E+05 -0.000069
  2 S  1.66100000E+04 -0.000528
  2 S  3.78100000E+03 -0.002797
  2 S  1.07100000E+03 -0.011265
  2 S  3.49800000E+02 -0.038883
  2 S  1.26300000E+02 -0.099503
  2 S  4.92600000E+01 -0.199740
  2 S  2.01600000E+01 -0.123360
  2 S  5.72000000E+00  0.513194
  2 S  2.18200000E+00  0.607120
  2 S  4.32700000E-01  0.039675

  3 S  1.10800000E+05  0.000020
  3 S  1.66100000E+04  0.000153
  3 S  3.78100000E+03  0.000810
  3 S  1.07100000E+03  0.003290
  3 S  3.49800000E+02  0.011297
  3 S  1.26300000E+02  0.029639
  3 S  4.92600000E+01  0.059985
  3 S  2.01600000E+01  0.041325
  3 S  5.72000000E+00 -0.207474
  3 S  2.18200000E+00 -0.392889
  3 S  4.32700000E-01  0.632840

  4 S  1.57000000E-01  1.000000

  5 S  5.07000000E-02  1.000000

  6 P  3.99700000E+02  0.004475
  6 P  9.41900000E+01  0.034171
  6 P  2.97500000E+01  0.144250
  6 P  1.07700000E+01  0.353928
  6 P  4.11900000E+00  0.459085
  6 P  1.62500000E+00  0.206383
  6 P  4.72600000E-01  0.010214

  7 P  3.99700000E+02 -0.001163
  7 P  9.41900000E+01 -0.008657
  7 P  2.97500000E+01 -0.039089
  7 P  1.07700000E+01 -0.093463
  7 P  4.11900000E+00 -0.147994
  7 P  1.62500000E+00  0.030190
  7 P  4.72600000E-01  0.561573

  8 P  1.40700000E-01  1.000000

  9 P  3.99000000E-02  1.000000

 10 D  4.79000000E-01  1.000000

 11 D  1.52000000E-01  1.000000



 Summary of "ao basis" -> "ao basis" (cartesian)
 ------------------------------------------------------------------------------
       Tag                 Description            Shells   Functions and Types
 ---------------- ------------------------------  ------  ---------------------
 H                        aug-cc-pvdz                5        9   3s2p
 C                        aug-cc-pvdz                9       25   4s3p2d
 O                        aug-cc-pvdz                9       25   4s3p2d
 N                        aug-cc-pvdz                9       25   4s3p2d
 S                        aug-cc-pvdz               11       29   5s4p2d


                                 NWChem SCF Module
                                 -----------------



  ao basis        = "ao basis"
  functions       =   600
  atoms           =    36
  closed shells   =    70
  open shells     =     0
  charge          =   0.00
  wavefunction    = RHF 
  input vectors   = atomic
  output vectors  = ./ALA_MET_0.movecs
  use symmetry    = F
  symmetry adapt  = F


 Summary of "ao basis" -> "ao basis" (cartesian)
 ------------------------------------------------------------------------------
       Tag                 Description            Shells   Functions and Types
 ---------------- ------------------------------  ------  ---------------------
 H                        aug-cc-pvdz                5        9   3s2p
 C                        aug-cc-pvdz                9       25   4s3p2d
 O                        aug-cc-pvdz                9       25   4s3p2d
 N                        aug-cc-pvdz                9       25   4s3p2d
 S                        aug-cc-pvdz               11       29   5s4p2d



 Forming initial guess at       1.7s


 !! The overlap matrix has   4 vectors deemed linearly dependent with
    eigenvalues:
 2.63D-06 4.31D-06 6.28D-06 8.40D-06


      Superposition of Atomic Density Guess
      -------------------------------------

 Sum of atomic energies:       -1170.84498976

      Non-variational initial energy
      ------------------------------

 Total energy =   -1181.704001
 1-e energy   =   -4402.659970
 2-e energy   =    1810.806163
 HOMO         =      -0.263834
 LUMO         =       0.011328


 Starting SCF solution at     295.9s



 ----------------------------------------------
         Quadratically convergent ROHF

 Convergence threshold     :          1.000E-04
 Maximum no. of iterations :           30
 Final Fock-matrix accuracy:          1.000E-10
 ----------------------------------------------


              iter       energy          gnorm     gmax       time
             ----- ------------------- --------- --------- --------
                 1    -1175.0073292640  2.41D+00  1.22D-01    615.1
                 2    -1175.3226121394  8.31D-01  4.61D-02   1230.0
                 3    -1175.3837841232  6.25D-02  4.60D-03   2080.5
                 4    -1175.3843902748  3.83D-03  3.39D-04   3272.8
                 5    -1175.3843931155  8.69D-06  6.95D-07   5257.7


       Final RHF  results 
       ------------------ 

         Total SCF energy =  -1175.384393115473
      One-electron energy =  -4414.700245116374
      Two-electron energy =   1829.166045553670
 Nuclear repulsion energy =   1410.149806447232

        Time for solution =   4969.7s


             Final eigenvalues
             -----------------

              1      
    1  -91.9683
    2  -20.5509
    3  -20.5269
    4  -20.5210
    5  -15.6106
    6  -15.5969
    7  -15.5889
    8  -11.3787
    9  -11.3615
   10  -11.3532
   11  -11.3110
   12  -11.3044
   13  -11.2784
   14  -11.2780
   15  -11.2609
   16  -11.2417
   17  -11.2413
   18   -8.9694
   19   -6.6517
   20   -6.6503
   21   -6.6486
   22   -1.4126
   23   -1.3897
   24   -1.3833
   25   -1.2626
   26   -1.2457
   27   -1.2168
   28   -1.1099
   29   -1.0702
   30   -1.0440
   31   -0.9936
   32   -0.9760
   33   -0.9072
   34   -0.8876
   35   -0.8380
   36   -0.8062
   37   -0.7921
   38   -0.7887
   39   -0.7461
   40   -0.7318
   41   -0.6928
   42   -0.6832
   43   -0.6637
   44   -0.6491
   45   -0.6363
   46   -0.6343
   47   -0.6221
   48   -0.6162
   49   -0.6031
   50   -0.6015
   51   -0.5945
   52   -0.5842
   53   -0.5723
   54   -0.5672
   55   -0.5598
   56   -0.5498
   57   -0.5476
   58   -0.5369
   59   -0.5310
   60   -0.5153
   61   -0.5029
   62   -0.4990
   63   -0.4539
   64   -0.4457
   65   -0.4413
   66   -0.4192
   67   -0.4125
   68   -0.4026
   69   -0.3925
   70   -0.3591
   71    0.0283
   72    0.0333
   73    0.0390
   74    0.0419
   75    0.0461
   76    0.0526
   77    0.0540
   78    0.0592
   79    0.0623
   80    0.0676

                       ROHF Final Molecular Orbital Analysis
                       -------------------------------------

 Vector   22  Occ=2.000000D+00  E=-1.412604D+00
              MO Center= -1.4D+00, -6.8D-01,  4.1D-01, r^2= 1.5D+00
   Bfn.  Coefficient  Atom+Function         Bfn.  Coefficient  Atom+Function  
  ----- ------------  ---------------      ----- ------------  ---------------
   250      0.362411  16 O  s               249      0.342646  16 O  s         
   224      0.237666  15 C  s         

 Vector   23  Occ=2.000000D+00  E=-1.389651D+00
              MO Center= -2.2D+00,  2.8D+00, -1.7D-01, r^2= 2.0D+00
   Bfn.  Coefficient  Atom+Function         Bfn.  Coefficient  Atom+Function  
  ----- ------------  ---------------      ----- ------------  ---------------
   535      0.370238  33 O  s               534      0.347278  33 O  s         
   509      0.241603  32 C  s         

 Vector   24  Occ=2.000000D+00  E=-1.383259D+00
              MO Center=  9.0D-01, -3.9D+00,  9.0D-02, r^2= 1.8D+00
   Bfn.  Coefficient  Atom+Function         Bfn.  Coefficient  Atom+Function  
  ----- ------------  ---------------      ----- ------------  ---------------
    79      0.344128   6 O  s                80      0.345480   6 O  s         
    54      0.243504   5 C  s                12      0.170128   2 C  s         

 Vector   25  Occ=2.000000D+00  E=-1.262558D+00
              MO Center= -6.4D-01,  4.6D-01,  3.4D-01, r^2= 1.9D+00
   Bfn.  Coefficient  Atom+Function         Bfn.  Coefficient  Atom+Function  
  ----- ------------  ---------------      ----- ------------  ---------------
   275      0.406536  17 N  s               274      0.338407  17 N  s         
   250     -0.222625  16 O  s               249     -0.176957  16 O  s         
   309     -0.169953  19 C  s               298      0.152680  18 H  s         

 Vector   26  Occ=2.000000D+00  E=-1.245655D+00
              MO Center= -7.7D-02, -3.2D+00,  3.6D-03, r^2= 1.9D+00
   Bfn.  Coefficient  Atom+Function         Bfn.  Coefficient  Atom+Function  
  ----- ------------  ---------------      ----- ------------  ---------------
   105      0.446658   7 N  s               104      0.341884   7 N  s         
    80     -0.213744   6 O  s                79     -0.186524   6 O  s         
    57     -0.173907   5 C  px              128      0.152819   8 H  s         

 Vector   27  Occ=2.000000D+00  E=-1.216841D+00
              MO Center= -2.5D+00,  1.7D+00, -6.0D-01, r^2= 1.7D+00
   Bfn.  Coefficient  Atom+Function         Bfn.  Coefficient  Atom+Function  
  ----- ------------  ---------------      ----- ------------  ---------------
   560      0.397678  34 N  s               559      0.368529  34 N  s         
   535     -0.209973  33 O  s               513     -0.187197  32 C  py        
   534     -0.173126  33 O  s               583      0.165165  35 H  s         
   592      0.157881  36 H  s               275     -0.151313  17 N  s         

 Vector   28  Occ=2.000000D+00  E=-1.109917D+00
              MO Center=  8.3D-01,  2.3D+00,  3.5D-01, r^2= 4.3D+00
   Bfn.  Coefficient  Atom+Function         Bfn.  Coefficient  Atom+Function  
  ----- ------------  ---------------      ----- ------------  ---------------
   385      0.217845  24 C  s               342      0.205332  21 C  s         
   429      0.195088  27 S  s         

 Vector   29  Occ=2.000000D+00  E=-1.070152D+00
              MO Center=  4.3D-01, -8.2D-01, -2.4D-01, r^2= 9.0D+00
   Bfn.  Coefficient  Atom+Function         Bfn.  Coefficient  Atom+Function  
  ----- ------------  ---------------      ----- ------------  ---------------
   138      0.205467   9 C  s               172      0.165656  11 C  s         
   429      0.152451  27 S  s         

 Vector   30  Occ=2.000000D+00  E=-1.044036D+00
              MO Center=  7.9D-01,  5.4D-01,  2.3D-01, r^2= 1.1D+01
   Bfn.  Coefficient  Atom+Function         Bfn.  Coefficient  Atom+Function  
  ----- ------------  ---------------      ----- ------------  ---------------
   429      0.171779  27 S  s               457      0.172469  28 C  s         
   342     -0.162299  21 C  s               308     -0.152350  19 C  s         

 Vector   31  Occ=2.000000D+00  E=-9.936066D-01
              MO Center= -5.0D-02, -3.9D+00,  2.2D-01, r^2= 8.5D+00
   Bfn.  Coefficient  Atom+Function         Bfn.  Coefficient  Atom+Function  
  ----- ------------  ---------------      ----- ------------  ---------------
    11      0.312768   2 C  s                56     -0.299123   5 C  s         
    13      0.209505   2 C  s         

 Vector   32  Occ=2.000000D+00  E=-9.759992D-01
              MO Center=  7.9D-01,  1.6D+00,  2.2D-01, r^2= 9.0D+00
   Bfn.  Coefficient  Atom+Function         Bfn.  Coefficient  Atom+Function  
  ----- ------------  ---------------      ----- ------------  ---------------
   387      0.226251  24 C  s               457      0.199748  28 C  s         
   385     -0.195903  24 C  s               308      0.186050  19 C  s         
   333      0.169127  20 H  s               225      0.162083  15 C  s         

 Vector   33  Occ=2.000000D+00  E=-9.071895D-01
              MO Center=  4.4D-01, -3.1D-01, -3.6D-01, r^2= 9.1D+00
   Bfn.  Coefficient  Atom+Function         Bfn.  Coefficient  Atom+Function  
  ----- ------------  ---------------      ----- ------------  ---------------
   146      0.232987   9 C  pz              172     -0.215361  11 C  s         
   144     -0.171526   9 C  px              225     -0.163469  15 C  s         

 Vector   34  Occ=2.000000D+00  E=-8.875582D-01
              MO Center=  1.4D-01,  1.0D+00,  7.1D-02, r^2= 1.0D+01
   Bfn.  Coefficient  Atom+Function         Bfn.  Coefficient  Atom+Function  
  ----- ------------  ---------------      ----- ------------  ---------------
   309      0.271161  19 C  s               342     -0.167631  21 C  s         
   429      0.163365  27 S  s               316     -0.153001  19 C  pz        
   430      0.150680  27 S  s         

 Vector   35  Occ=2.000000D+00  E=-8.379931D-01
              MO Center= -2.8D-01,  6.1D-01,  6.8D-02, r^2= 8.1D+00
   Bfn.  Coefficient  Atom+Function         Bfn.  Coefficient  Atom+Function  
  ----- ------------  ---------------      ----- ------------  ---------------
   309      0.340430  19 C  s               225      0.206167  15 C  s         
   278     -0.199240  17 N  py              430     -0.200226  27 S  s         
   139      0.190814   9 C  s               299     -0.191208  18 H  s         
   298     -0.175772  18 H  s               277     -0.167494  17 N  px        

 Vector   36  Occ=2.000000D+00  E=-8.061981D-01
              MO Center=  6.2D-01,  6.9D-01,  1.9D-01, r^2= 1.1D+01
   Bfn.  Coefficient  Atom+Function         Bfn.  Coefficient  Atom+Function  
  ----- ------------  ---------------      ----- ------------  ---------------
   430      0.301512  27 S  s               429      0.230720  27 S  s         

 Vector   37  Occ=2.000000D+00  E=-7.920872D-01
              MO Center= -6.1D-01, -1.3D+00, -2.6D-02, r^2= 7.5D+00
   Bfn.  Coefficient  Atom+Function         Bfn.  Coefficient  Atom+Function  
  ----- ------------  ---------------      ----- ------------  ---------------
   225      0.297965  15 C  s               107     -0.251420   7 N  px        
   128      0.230069   8 H  s               105      0.213622   7 N  s         
   277     -0.167710  17 N  px              298     -0.164435  18 H  s         
   163     -0.160203  10 H  s                55     -0.154868   5 C  s         

 Vector   38  Occ=2.000000D+00  E=-7.886873D-01
              MO Center= -8.4D-01,  6.9D-01, -9.9D-02, r^2= 9.5D+00
   Bfn.  Coefficient  Atom+Function         Bfn.  Coefficient  Atom+Function  
  ----- ------------  ---------------      ----- ------------  ---------------
   511      0.233144  32 C  s               343     -0.198941  21 C  s         
   563     -0.180566  34 N  py              314      0.176021  19 C  px        
   107      0.174349   7 N  px              128     -0.162068   8 H  s         
   430     -0.161045  27 S  s               139      0.155623   9 C  s         
   583      0.153176  35 H  s               509     -0.150806  32 C  s         

 Vector   39  Occ=2.000000D+00  E=-7.461184D-01
              MO Center= -1.5D+00,  7.3D-01, -1.8D-01, r^2= 6.0D+00
   Bfn.  Coefficient  Atom+Function         Bfn.  Coefficient  Atom+Function  
  ----- ------------  ---------------      ----- ------------  ---------------
   563      0.293548  34 N  py              583     -0.249124  35 H  s         
   225      0.223561  15 C  s               510      0.179192  32 C  s         
   145     -0.162490   9 C  py              314      0.160285  19 C  px        
   512     -0.160959  32 C  px              315     -0.157077  19 C  py        

 Vector   40  Occ=2.000000D+00  E=-7.317582D-01
              MO Center= -1.1D+00, -2.6D-01, -7.0D-02, r^2= 1.0D+01
   Bfn.  Coefficient  Atom+Function         Bfn.  Coefficient  Atom+Function  
  ----- ------------  ---------------      ----- ------------  ---------------
   592      0.215654  36 H  s               228     -0.187724  15 C  py        
   145      0.170823   9 C  py              142      0.168846   9 C  py        
   562     -0.151792  34 N  px              563      0.151707  34 N  py        

 Vector   41  Occ=2.000000D+00  E=-6.927555D-01
              MO Center= -1.1D+00,  4.5D-02,  1.5D-01, r^2= 9.5D+00
   Bfn.  Coefficient  Atom+Function         Bfn.  Coefficient  Atom+Function  
  ----- ------------  ---------------      ----- ------------  ---------------
   315     -0.197846  19 C  py              252      0.182461  16 O  px        
   278      0.175674  17 N  py              250     -0.163161  16 O  s         
   592     -0.157840  36 H  s         

 Vector   42  Occ=2.000000D+00  E=-6.832082D-01
              MO Center= -9.2D-01,  2.3D-02,  2.4D-01, r^2= 9.6D+00
   Bfn.  Coefficient  Atom+Function         Bfn.  Coefficient  Atom+Function  
  ----- ------------  ---------------      ----- ------------  ---------------
   252      0.179355  16 O  px              332     -0.155526  20 H  s         
   313     -0.153659  19 C  pz        

 Vector   43  Occ=2.000000D+00  E=-6.637066D-01
              MO Center=  1.8D-01, -3.0D+00,  1.3D-01, r^2= 8.2D+00
   Bfn.  Coefficient  Atom+Function         Bfn.  Coefficient  Atom+Function  
  ----- ------------  ---------------      ----- ------------  ---------------
    82      0.257213   6 O  px               80      0.223667   6 O  s         
    58      0.198913   5 C  py               12     -0.170966   2 C  s         
    13      0.171754   2 C  s                14     -0.162677   2 C  px        
    56     -0.162198   5 C  s                57     -0.154135   5 C  px        

 Vector   44  Occ=2.000000D+00  E=-6.490658D-01
              MO Center= -2.6D-01, -2.7D-01,  1.6D-01, r^2= 1.0D+01
   Bfn.  Coefficient  Atom+Function         Bfn.  Coefficient  Atom+Function  
  ----- ------------  ---------------      ----- ------------  ---------------
   277     -0.194075  17 N  px              139      0.185523   9 C  s         
   313     -0.168409  19 C  pz              332     -0.167575  20 H  s         
   141      0.165257   9 C  px              162      0.159497  10 H  s         
   298     -0.153194  18 H  s         

 Vector   45  Occ=2.000000D+00  E=-6.363037D-01
              MO Center=  3.0D-01,  6.9D-01,  4.8D-02, r^2= 1.3D+01
   Bfn.  Coefficient  Atom+Function         Bfn.  Coefficient  Atom+Function  
  ----- ------------  ---------------      ----- ------------  ---------------
   173      0.261860  11 C  s               139     -0.234630   9 C  s         
   344      0.226159  21 C  s               409      0.153960  25 H  s         
   538      0.153638  33 O  py        

 Vector   46  Occ=2.000000D+00  E=-6.342626D-01
              MO Center= -1.3D-01, -8.9D-01, -4.2D-02, r^2= 1.4D+01
   Bfn.  Coefficient  Atom+Function         Bfn.  Coefficient  Atom+Function  
  ----- ------------  ---------------      ----- ------------  ---------------
   139      0.357640   9 C  s               173     -0.293070  11 C  s         
   538      0.155332  33 O  py               13     -0.151842   2 C  s         
   109     -0.152572   7 N  pz        

 Vector   47  Occ=2.000000D+00  E=-6.221275D-01
              MO Center=  7.0D-01,  6.9D-01,  4.1D-01, r^2= 1.3D+01
   Bfn.  Coefficient  Atom+Function         Bfn.  Coefficient  Atom+Function  
  ----- ------------  ---------------      ----- ------------  ---------------
   344      0.233986  21 C  s               367     -0.197299  22 H  s         
   490      0.184141  30 H  s               284     -0.182654  17 N  py        
   462      0.156923  28 C  pz        

 Vector   48  Occ=2.000000D+00  E=-6.162366D-01
              MO Center=  5.1D-02, -7.4D-01,  1.6D-01, r^2= 1.2D+01
   Bfn.  Coefficient  Atom+Function         Bfn.  Coefficient  Atom+Function  
  ----- ------------  ---------------      ----- ------------  ---------------
   252      0.248764  16 O  px              139      0.244253   9 C  s         
    56      0.228831   5 C  s               227     -0.160617  15 C  px        

 Vector   49  Occ=2.000000D+00  E=-6.030537D-01
              MO Center=  8.0D-01,  2.2D+00,  4.1D-01, r^2= 9.2D+00
   Bfn.  Coefficient  Atom+Function         Bfn.  Coefficient  Atom+Function  
  ----- ------------  ---------------      ----- ------------  ---------------
   538     -0.227693  33 O  py              461      0.221874  28 C  py        
   481      0.211577  29 H  s               490     -0.200350  30 H  s         
   343      0.171218  21 C  s               491     -0.171750  30 H  s         
   513      0.171566  32 C  py              387     -0.170448  24 C  s         
   460      0.160671  28 C  px        

 Vector   50  Occ=2.000000D+00  E=-6.015003D-01
              MO Center=  9.9D-01,  1.6D+00,  2.4D-01, r^2= 1.3D+01
   Bfn.  Coefficient  Atom+Function         Bfn.  Coefficient  Atom+Function  
  ----- ------------  ---------------      ----- ------------  ---------------
   500     -0.275559  31 H  s               461      0.258212  28 C  py        
   538      0.247802  33 O  py              343      0.227626  21 C  s         
   499     -0.215455  31 H  s               300     -0.208880  18 H  s         
   481      0.206494  29 H  s               344      0.193533  21 C  s         
   376     -0.187715  23 H  s               513     -0.175559  32 C  py        

 Vector   51  Occ=2.000000D+00  E=-5.944648D-01
              MO Center=  1.2D-01, -1.2D+00,  1.8D-01, r^2= 1.4D+01
   Bfn.  Coefficient  Atom+Function         Bfn.  Coefficient  Atom+Function  
  ----- ------------  ---------------      ----- ------------  ---------------
   344      0.216082  21 C  s               343      0.200742  21 C  s         
   376     -0.192227  23 H  s               387     -0.185973  24 C  s         
   500     -0.175634  31 H  s                35     -0.168561   3 H  s         
   227     -0.167079  15 C  px        

 Vector   52  Occ=2.000000D+00  E=-5.841724D-01
              MO Center=  2.2D-02, -2.3D+00, -4.9D-01, r^2= 8.5D+00
   Bfn.  Coefficient  Atom+Function         Bfn.  Coefficient  Atom+Function  
  ----- ------------  ---------------      ----- ------------  ---------------
    82      0.218329   6 O  px              215     -0.216242  14 H  s         
   214     -0.203666  14 H  s               176     -0.202414  11 C  py        
    57     -0.196410   5 C  px               15      0.188519   2 C  py        
   205      0.159445  13 H  s         

 Vector   53  Occ=2.000000D+00  E=-5.723018D-01
              MO Center=  1.9D-02,  2.5D+00,  3.9D-01, r^2= 7.2D+00
   Bfn.  Coefficient  Atom+Function         Bfn.  Coefficient  Atom+Function  
  ----- ------------  ---------------      ----- ------------  ---------------
   300     -0.232507  18 H  s               148      0.217038   9 C  py        
   500     -0.216798  31 H  s               345     -0.178338  21 C  px        
   284      0.173774  17 N  py              366      0.173976  22 H  s         
   514     -0.173898  32 C  pz              490      0.161495  30 H  s         
   389      0.160249  24 C  py              459      0.158590  28 C  s         

 Vector   54  Occ=2.000000D+00  E=-5.671625D-01
              MO Center=  2.0D-01, -4.4D+00,  1.6D-01, r^2= 5.0D+00
   Bfn.  Coefficient  Atom+Function         Bfn.  Coefficient  Atom+Function  
  ----- ------------  ---------------      ----- ------------  ---------------
    14      0.269669   2 C  px               45      0.264367   4 H  s         
    82      0.257321   6 O  px               44      0.235504   4 H  s         
     1     -0.221105   1 H  s                57     -0.189427   5 C  px        

 Vector   55  Occ=2.000000D+00  E=-5.598337D-01
              MO Center= -3.1D-01,  7.0D-01,  6.5D-02, r^2= 1.5D+01
   Bfn.  Coefficient  Atom+Function         Bfn.  Coefficient  Atom+Function  
  ----- ------------  ---------------      ----- ------------  ---------------
   376      0.280625  23 H  s               343     -0.208657  21 C  s         
   346     -0.173788  21 C  py              500      0.159254  31 H  s         
   197      0.157302  12 H  s               512      0.151371  32 C  px        

 Vector   56  Occ=2.000000D+00  E=-5.498131D-01
              MO Center=  1.5D-01, -1.7D+00,  2.9D-01, r^2= 1.5D+01
   Bfn.  Coefficient  Atom+Function         Bfn.  Coefficient  Atom+Function  
  ----- ------------  ---------------      ----- ------------  ---------------
   139      0.202251   9 C  s                44      0.198342   4 H  s         
    13     -0.174173   2 C  s               375     -0.159157  23 H  s         
    35     -0.156886   3 H  s               108     -0.156460   7 N  py        
   163     -0.154394  10 H  s               347     -0.153362  21 C  pz        
    16      0.151701   2 C  pz        

 Vector   57  Occ=2.000000D+00  E=-5.475804D-01
              MO Center= -4.4D-01, -9.6D-01, -7.6D-01, r^2= 7.5D+00
   Bfn.  Coefficient  Atom+Function         Bfn.  Coefficient  Atom+Function  
  ----- ------------  ---------------      ----- ------------  ---------------
   196      0.277138  12 H  s               197      0.249912  12 H  s         
   176     -0.216112  11 C  py              309      0.190732  19 C  s         
   253     -0.182451  16 O  py              175      0.176731  11 C  px        
   163     -0.157424  10 H  s               254     -0.157231  16 O  pz        
   229     -0.153245  15 C  pz        

 Vector   58  Occ=2.000000D+00  E=-5.368772D-01
              MO Center=  7.1D-02,  1.3D+00,  5.0D-01, r^2= 9.8D+00
   Bfn.  Coefficient  Atom+Function         Bfn.  Coefficient  Atom+Function  
  ----- ------------  ---------------      ----- ------------  ---------------
   343      0.275975  21 C  s               387     -0.234953  24 C  s         
   315     -0.231883  19 C  py              347      0.223666  21 C  pz        
   344      0.181293  21 C  s               375      0.179206  23 H  s         
   163     -0.176393  10 H  s               309     -0.175365  19 C  s         
   390     -0.163864  24 C  pz        

 Vector   59  Occ=2.000000D+00  E=-5.310147D-01
              MO Center=  1.1D-03, -2.2D+00, -8.9D-01, r^2= 5.2D+00
   Bfn.  Coefficient  Atom+Function         Bfn.  Coefficient  Atom+Function  
  ----- ------------  ---------------      ----- ------------  ---------------
   163      0.310256  10 H  s               206      0.277983  13 H  s         
   205      0.244827  13 H  s               175     -0.239753  11 C  px        
   214     -0.230587  14 H  s               215     -0.227042  14 H  s         
   162      0.198302  10 H  s               141      0.186672   9 C  px        
   176     -0.173134  11 C  py        

 Vector   60  Occ=2.000000D+00  E=-5.153499D-01
              MO Center= -3.1D-01,  2.3D+00,  5.9D-01, r^2= 5.0D+00
   Bfn.  Coefficient  Atom+Function         Bfn.  Coefficient  Atom+Function  
  ----- ------------  ---------------      ----- ------------  ---------------
   332     -0.234409  20 H  s               311      0.224585  19 C  px        
   346     -0.216679  21 C  py              312      0.196359  19 C  py        
   343      0.195839  21 C  s               419      0.191495  26 H  s         
   386     -0.186847  24 C  s               345     -0.173909  21 C  px        
   388      0.167247  24 C  px              333     -0.165359  20 H  s         

 Vector   61  Occ=2.000000D+00  E=-5.029352D-01
              MO Center=  3.6D-01, -3.2D+00, -1.7D-01, r^2= 6.4D+00
   Bfn.  Coefficient  Atom+Function         Bfn.  Coefficient  Atom+Function  
  ----- ------------  ---------------      ----- ------------  ---------------
    84      0.305413   6 O  pz               87      0.222839   6 O  pz        
   143     -0.207941   9 C  pz               59      0.198164   5 C  pz        
   177      0.193094  11 C  pz               16     -0.163453   2 C  pz        
    36      0.154551   3 H  s               162     -0.150917  10 H  s         

 Vector   62  Occ=2.000000D+00  E=-4.989568D-01
              MO Center=  1.4D+00,  2.5D+00,  2.4D-01, r^2= 5.4D+00
   Bfn.  Coefficient  Atom+Function         Bfn.  Coefficient  Atom+Function  
  ----- ------------  ---------------      ----- ------------  ---------------
   435     -0.245442  27 S  px              409     -0.239247  25 H  s         
   367      0.236311  22 H  s               410     -0.230610  25 H  s         
   388      0.216175  24 C  px              376     -0.198599  23 H  s         
   375     -0.187621  23 H  s               387     -0.185590  24 C  s         
   419      0.183790  26 H  s               460      0.183939  28 C  px        

 Vector   63  Occ=2.000000D+00  E=-4.539473D-01
              MO Center= -9.9D-01,  7.4D-01,  9.4D-02, r^2= 7.6D+00
   Bfn.  Coefficient  Atom+Function         Bfn.  Coefficient  Atom+Function  
  ----- ------------  ---------------      ----- ------------  ---------------
   254      0.271023  16 O  pz              253      0.259762  16 O  py        
   256      0.216983  16 O  py              537     -0.217836  33 O  px        
   257      0.208104  16 O  pz              539     -0.198354  33 O  pz        
   540     -0.171378  33 O  px              279     -0.168801  17 N  pz        
   282     -0.158420  17 N  pz              542     -0.154569  33 O  pz        

 Vector   64  Occ=2.000000D+00  E=-4.456528D-01
              MO Center= -2.9D-01,  1.3D+00, -4.0D-02, r^2= 8.3D+00
   Bfn.  Coefficient  Atom+Function         Bfn.  Coefficient  Atom+Function  
  ----- ------------  ---------------      ----- ------------  ---------------
   430      0.270483  27 S  s               253      0.240006  16 O  py        
   537      0.233806  33 O  px              437     -0.215782  27 S  pz        
   279      0.210583  17 N  pz              256      0.201458  16 O  py        
   540      0.187036  33 O  px              282      0.182341  17 N  pz        

 Vector   65  Occ=2.000000D+00  E=-4.413253D-01
              MO Center=  3.6D-01,  9.1D-01, -5.5D-02, r^2= 8.9D+00
   Bfn.  Coefficient  Atom+Function         Bfn.  Coefficient  Atom+Function  
  ----- ------------  ---------------      ----- ------------  ---------------
   253      0.317923  16 O  py              430     -0.283735  27 S  s         
   256      0.265620  16 O  py              437      0.260843  27 S  pz        
   343      0.218357  21 C  s               440      0.185609  27 S  pz        
   500      0.176578  31 H  s               391      0.166142  24 C  px        
   459     -0.152459  28 C  s         

 Vector   66  Occ=2.000000D+00  E=-4.192292D-01
              MO Center=  1.0D+00, -4.2D+00,  1.3D-01, r^2= 2.3D+00
   Bfn.  Coefficient  Atom+Function         Bfn.  Coefficient  Atom+Function  
  ----- ------------  ---------------      ----- ------------  ---------------
    83      0.531163   6 O  py               86      0.421445   6 O  py        
    13     -0.330679   2 C  s               105     -0.243445   7 N  s         
    64     -0.212822   5 C  py               18      0.192004   2 C  py        
   145     -0.184403   9 C  py              300      0.173861  18 H  s         
    14      0.158042   2 C  px               84     -0.152976   6 O  pz        

 Vector   67  Occ=2.000000D+00  E=-4.125423D-01
              MO Center= -2.1D+00,  2.0D+00, -3.3D-01, r^2= 4.8D+00
   Bfn.  Coefficient  Atom+Function         Bfn.  Coefficient  Atom+Function  
  ----- ------------  ---------------      ----- ------------  ---------------
   539      0.390525  33 O  pz              542      0.303328  33 O  pz        
   562      0.282835  34 N  px              565      0.240286  34 N  px        
   564     -0.236077  34 N  pz              567     -0.204284  34 N  pz        
   300     -0.167749  18 H  s         

 Vector   68  Occ=2.000000D+00  E=-4.025891D-01
              MO Center= -1.2D+00,  2.5D-01, -4.5D-02, r^2= 1.0D+01
   Bfn.  Coefficient  Atom+Function         Bfn.  Coefficient  Atom+Function  
  ----- ------------  ---------------      ----- ------------  ---------------
   537      0.302745  33 O  px              540      0.241582  33 O  px        
   109      0.226781   7 N  pz              279     -0.218982  17 N  pz        
   564      0.213792  34 N  pz              112      0.212094   7 N  pz        
   282     -0.193551  17 N  pz               84     -0.174952   6 O  pz        
   567      0.161583  34 N  pz        

 Vector   69  Occ=2.000000D+00  E=-3.924717D-01
              MO Center= -2.4D-01, -1.8D+00, -1.5D-02, r^2= 8.6D+00
   Bfn.  Coefficient  Atom+Function         Bfn.  Coefficient  Atom+Function  
  ----- ------------  ---------------      ----- ------------  ---------------
   109      0.356887   7 N  pz              112      0.331375   7 N  pz        
    84     -0.274585   6 O  pz               87     -0.212052   6 O  pz        
   279      0.188835  17 N  pz              282      0.176971  17 N  pz        
   537     -0.173879  33 O  px              139     -0.159893   9 C  s         
   174     -0.160294  11 C  s         

 Vector   70  Occ=2.000000D+00  E=-3.590710D-01
              MO Center=  2.0D+00,  2.2D+00, -4.2D-01, r^2= 2.7D+00
   Bfn.  Coefficient  Atom+Function         Bfn.  Coefficient  Atom+Function  
  ----- ------------  ---------------      ----- ------------  ---------------
   439      0.428385  27 S  py              436      0.399104  27 S  py        
   438      0.288017  27 S  px              435      0.240722  27 S  px        
   437     -0.204367  27 S  pz              440     -0.196470  27 S  pz        
   482     -0.178976  29 H  s         

 Vector   71  Occ=0.000000D+00  E= 2.834113D-02
              MO Center=  1.8D+00,  1.4D+00,  2.0D+00, r^2= 3.2D+01
   Bfn.  Coefficient  Atom+Function         Bfn.  Coefficient  Atom+Function  
  ----- ------------  ---------------      ----- ------------  ---------------
   300     10.851284  18 H  s               148     -4.849779   9 C  py        
   276      3.145958  17 N  s               344     -2.997457  21 C  s         
   216     -2.090424  14 H  s               377     -1.936359  23 H  s         
   387      1.837530  24 C  s               319      1.759369  19 C  pz        
    64     -1.715169   5 C  py              164     -1.691733  10 H  s         

 Vector   72  Occ=0.000000D+00  E= 3.328082D-02
              MO Center= -1.4D+00, -1.7D+00, -9.3D-01, r^2= 4.0D+01
   Bfn.  Coefficient  Atom+Function         Bfn.  Coefficient  Atom+Function  
  ----- ------------  ---------------      ----- ------------  ---------------
   148      3.521466   9 C  py              106      2.760247   7 N  s         
   344     -2.702184  21 C  s               174     -2.322508  11 C  s         
    64      2.106138   5 C  py              310     -1.702152  19 C  s         
   561      1.705211  34 N  s               234      1.688078  15 C  py        
    37      1.621479   3 H  s               207      1.626564  13 H  s         

 Vector   73  Occ=0.000000D+00  E= 3.896216D-02
              MO Center= -7.8D-01, -6.8D-01, -2.1D-01, r^2= 4.5D+01
   Bfn.  Coefficient  Atom+Function         Bfn.  Coefficient  Atom+Function  
  ----- ------------  ---------------      ----- ------------  ---------------
   511      3.362657  32 C  s               149     -3.145664   9 C  pz        
    64      2.873718   5 C  py              387     -2.585803  24 C  s         
   174     -2.444225  11 C  s               561     -2.398640  34 N  s         
   148      2.202176   9 C  py              310      2.069055  19 C  s         
     3      1.801164   1 H  s               216     -1.771731  14 H  s         

 Vector   74  Occ=0.000000D+00  E= 4.188133D-02
              MO Center=  1.3D+00,  7.5D-01,  8.1D-01, r^2= 4.0D+01
   Bfn.  Coefficient  Atom+Function         Bfn.  Coefficient  Atom+Function  
  ----- ------------  ---------------      ----- ------------  ---------------
   501      2.978577  31 H  s               344     -2.899575  21 C  s         
   300      2.766776  18 H  s               353      2.324427  21 C  pz        
   334     -2.266925  20 H  s               511      2.125594  32 C  s         
   377     -1.996259  23 H  s               284      1.842397  17 N  py        
   368     -1.734755  22 H  s               394     -1.689586  24 C  px        

 Vector   75  Occ=0.000000D+00  E= 4.610842D-02
              MO Center=  1.1D+00,  1.0D+00,  6.4D-01, r^2= 4.7D+01
   Bfn.  Coefficient  Atom+Function         Bfn.  Coefficient  Atom+Function  
  ----- ------------  ---------------      ----- ------------  ---------------
   420      3.141976  26 H  s               511     -3.133171  32 C  s         
   387      2.796758  24 C  s               334     -2.475036  20 H  s         
   395     -2.421529  24 C  py              300      2.304044  18 H  s         
   317     -2.077411  19 C  px               56      1.981945   5 C  s         
   501     -1.871268  31 H  s               492     -1.827090  30 H  s         

 Vector   76  Occ=0.000000D+00  E= 5.258228D-02
              MO Center= -2.3D-01, -7.4D-01, -7.6D-01, r^2= 4.4D+01
   Bfn.  Coefficient  Atom+Function         Bfn.  Coefficient  Atom+Function  
  ----- ------------  ---------------      ----- ------------  ---------------
   300      3.710031  18 H  s               198     -2.669348  12 H  s         
   344     -2.672905  21 C  s               377     -2.564851  23 H  s         
   353      2.395621  21 C  pz              368     -2.306638  22 H  s         
   561      2.277774  34 N  s                64      2.257348   5 C  py        
   173      2.240133  11 C  s               310     -2.150736  19 C  s         

 Vector   77  Occ=0.000000D+00  E= 5.395615D-02
              MO Center=  1.7D-01, -1.3D+00, -8.1D-01, r^2= 4.4D+01
   Bfn.  Coefficient  Atom+Function         Bfn.  Coefficient  Atom+Function  
  ----- ------------  ---------------      ----- ------------  ---------------
   411      2.947616  25 H  s               216      2.884104  14 H  s         
   174     -2.778956  11 C  s                56      2.724452   5 C  s         
    37     -2.399357   3 H  s                46      2.262600   4 H  s         
   148      2.175697   9 C  py              207     -1.946319  13 H  s         
   395     -1.889406  24 C  py               13     -1.778679   2 C  s         

 Vector   78  Occ=0.000000D+00  E= 5.924105D-02
              MO Center= -2.2D-01, -2.6D+00,  6.8D-01, r^2= 4.5D+01
   Bfn.  Coefficient  Atom+Function         Bfn.  Coefficient  Atom+Function  
  ----- ------------  ---------------      ----- ------------  ---------------
    46      3.973930   4 H  s               344     -3.317842  21 C  s         
   106     -3.263161   7 N  s               130     -2.995020   8 H  s         
   511      2.804683  32 C  s               492      2.736711  30 H  s         
   387      2.467512  24 C  s               216     -2.423803  14 H  s         
    64      2.189210   5 C  py              276      2.165361  17 N  s         

 Vector   79  Occ=0.000000D+00  E= 6.229427D-02
              MO Center=  1.8D-01,  3.4D-01,  1.0D+00, r^2= 4.4D+01
   Bfn.  Coefficient  Atom+Function         Bfn.  Coefficient  Atom+Function  
  ----- ------------  ---------------      ----- ------------  ---------------
   368      3.631877  22 H  s               387     -3.562093  24 C  s         
   501      3.413849  31 H  s                56      3.194050   5 C  s         
   344      3.051029  21 C  s               411     -2.788197  25 H  s         
   234     -2.769308  15 C  py              377     -2.735643  23 H  s         
   492     -2.599809  30 H  s                13     -2.493629   2 C  s         

 Vector   80  Occ=0.000000D+00  E= 6.760706D-02
              MO Center=  1.3D+00,  3.7D-01,  1.1D-01, r^2= 4.8D+01
   Bfn.  Coefficient  Atom+Function         Bfn.  Coefficient  Atom+Function  
  ----- ------------  ---------------      ----- ------------  ---------------
   483      4.776105  29 H  s               164     -3.710738  10 H  s         
   411     -3.206746  25 H  s               387     -3.128415  24 C  s         
    13      2.992558   2 C  s               420     -2.843451  26 H  s         
   492     -2.794501  30 H  s                37     -2.778983   3 H  s         
   318      2.745325  19 C  py              351      2.595215  21 C  px        

 Vector   81  Occ=0.000000D+00  E= 7.127619D-02
              MO Center=  2.7D-01,  5.0D-01, -4.0D-01, r^2= 4.5D+01
   Bfn.  Coefficient  Atom+Function         Bfn.  Coefficient  Atom+Function  
  ----- ------------  ---------------      ----- ------------  ---------------
   420     -5.253406  26 H  s               411      5.135030  25 H  s         
   377      3.240346  23 H  s               216      3.211028  14 H  s         
   164     -3.173309  10 H  s                37      3.143866   3 H  s         
   334      2.975766  20 H  s               234     -2.771077  15 C  py        
   483      2.686273  29 H  s               148      2.464401   9 C  py        

 Vector   82  Occ=0.000000D+00  E= 7.450947D-02
              MO Center=  6.5D-02,  5.3D-01,  1.3D+00, r^2= 4.5D+01
   Bfn.  Coefficient  Atom+Function         Bfn.  Coefficient  Atom+Function  
  ----- ------------  ---------------      ----- ------------  ---------------
   368      5.516811  22 H  s               334     -4.219363  20 H  s         
   216      3.520091  14 H  s               198     -2.935261  12 H  s         
   300     -2.663920  18 H  s                 3      2.628825   1 H  s         
   148      2.328272   9 C  py              317     -2.184882  19 C  px        
   420     -2.046693  26 H  s               319      1.957223  19 C  pz        

 Vector   83  Occ=0.000000D+00  E= 7.803214D-02
              MO Center= -6.0D-01, -2.0D+00, -2.0D+00, r^2= 4.1D+01
   Bfn.  Coefficient  Atom+Function         Bfn.  Coefficient  Atom+Function  
  ----- ------------  ---------------      ----- ------------  ---------------
    13      5.875761   2 C  s               198     -5.768269  12 H  s         
   207      5.558275  13 H  s                64      4.670893   5 C  py        
   148      3.564910   9 C  py              387     -3.535422  24 C  s         
    46      3.421545   4 H  s               181      3.067349  11 C  px        
   174     -2.706310  11 C  s               234      2.486818  15 C  py        

 Vector   84  Occ=0.000000D+00  E= 8.059497D-02
              MO Center= -7.0D-01, -6.3D-01, -5.9D-01, r^2= 4.1D+01
   Bfn.  Coefficient  Atom+Function         Bfn.  Coefficient  Atom+Function  
  ----- ------------  ---------------      ----- ------------  ---------------
   300      8.549043  18 H  s               585     -6.142334  35 H  s         
   216     -6.041569  14 H  s               377     -5.594574  23 H  s         
   387     -5.509773  24 C  s               148     -5.423799   9 C  py        
   207      5.359102  13 H  s                56     -4.891928   5 C  s         
   334      3.773340  20 H  s               431      3.780650  27 S  s         

 Vector   85  Occ=0.000000D+00  E= 8.523896D-02
              MO Center=  9.2D-01,  7.3D-01,  1.1D+00, r^2= 3.9D+01
   Bfn.  Coefficient  Atom+Function         Bfn.  Coefficient  Atom+Function  
  ----- ------------  ---------------      ----- ------------  ---------------
   300     11.839219  18 H  s               377      8.355543  23 H  s         
   492     -8.012674  30 H  s               148     -5.863761   9 C  py        
   216     -4.582536  14 H  s               344     -4.470945  21 C  s         
   368     -4.017757  22 H  s               207      3.935391  13 H  s         
    56     -3.502322   5 C  s               130     -3.267329   8 H  s         

 Vector   86  Occ=0.000000D+00  E= 9.315840D-02
              MO Center=  4.8D-01, -4.5D-01, -2.6D-01, r^2= 4.2D+01
   Bfn.  Coefficient  Atom+Function         Bfn.  Coefficient  Atom+Function  
  ----- ------------  ---------------      ----- ------------  ---------------
   377      7.718201  23 H  s               216     -5.503393  14 H  s         
   411      4.713843  25 H  s               198      4.549878  12 H  s         
   492     -4.159582  30 H  s               420     -3.715319  26 H  s         
   334     -3.376727  20 H  s               174      3.220538  11 C  s         
   130      3.155935   8 H  s               300      3.158339  18 H  s         

 Vector   87  Occ=0.000000D+00  E= 9.596017D-02
              MO Center=  1.3D+00,  4.1D-01,  1.1D+00, r^2= 4.3D+01
   Bfn.  Coefficient  Atom+Function         Bfn.  Coefficient  Atom+Function  
  ----- ------------  ---------------      ----- ------------  ---------------
    56     10.105835   5 C  s               420      6.479653  26 H  s         
    13     -6.123373   2 C  s               368     -5.978209  22 H  s         
   483     -5.846635  29 H  s               164     -5.471100  10 H  s         
   234     -4.028002  15 C  py              147      3.719607   9 C  px        
   174     -3.441430  11 C  s               501      3.341709  31 H  s         

 Vector   88  Occ=0.000000D+00  E= 1.079896D-01
              MO Center= -7.3D-02,  1.4D-01, -4.3D-01, r^2= 4.2D+01
   Bfn.  Coefficient  Atom+Function         Bfn.  Coefficient  Atom+Function  
  ----- ------------  ---------------      ----- ------------  ---------------
    56    -10.690690   5 C  s                13     10.390884   2 C  s         
   216      7.206305  14 H  s               300     -7.049858  18 H  s         
   431      6.077936  27 S  s               585     -6.099713  35 H  s         
   511      5.536554  32 C  s               387     -4.999470  24 C  s         
   148      4.664590   9 C  py              420      4.363821  26 H  s         

 Vector   89  Occ=0.000000D+00  E= 1.115970D-01
              MO Center= -2.1D-01,  2.7D-02, -9.8D-01, r^2= 3.8D+01
   Bfn.  Coefficient  Atom+Function         Bfn.  Coefficient  Atom+Function  
  ----- ------------  ---------------      ----- ------------  ---------------
    56      9.323182   5 C  s               511     -8.159692  32 C  s         
   387      7.516628  24 C  s               431     -5.700272  27 S  s         
   585     -5.126703  35 H  s               234      5.017505  15 C  py        
[...]
   106    -11.486922   7 N  s               318     -9.325490  19 C  py        
   114     -9.228730   7 N  py              173     -7.211111  11 C  s         
   147      7.085697   9 C  px               13     -6.931775   2 C  s         
   206      6.238567  13 H  s               164     -6.040850  10 H  s         

 Vector  178  Occ=0.000000D+00  E= 4.425877D-01
              MO Center= -2.7D-01, -2.9D+00,  5.0D-01, r^2= 2.4D+01
   Bfn.  Coefficient  Atom+Function         Bfn.  Coefficient  Atom+Function  
  ----- ------------  ---------------      ----- ------------  ---------------
    13     12.228128   2 C  s               511      9.362124  32 C  s         
   317      6.342827  19 C  px               36     -6.298499   3 H  s         
   300     -6.191548  18 H  s               344     -4.798323  21 C  s         
   114      4.690827   7 N  py               56     -4.347537   5 C  s         
   163     -4.018868  10 H  s                46      3.928299   4 H  s         

 Vector  179  Occ=0.000000D+00  E= 4.466465D-01
              MO Center=  2.5D-01,  5.7D-02,  2.3D-01, r^2= 2.4D+01
   Bfn.  Coefficient  Atom+Function         Bfn.  Coefficient  Atom+Function  
  ----- ------------  ---------------      ----- ------------  ---------------
   318     11.221249  19 C  py              561    -11.044240  34 N  s         
   511     10.214486  32 C  s               387     -9.911752  24 C  s         
   310      8.358752  19 C  s               174     -8.277876  11 C  s         
   376     -7.534001  23 H  s               148      6.692240   9 C  py        
   519     -6.530399  32 C  py              319      6.432729  19 C  pz        

 Vector  180  Occ=0.000000D+00  E= 4.503262D-01
              MO Center= -1.2D-01, -5.4D-01,  9.8D-02, r^2= 2.4D+01
   Bfn.  Coefficient  Atom+Function         Bfn.  Coefficient  Atom+Function  
  ----- ------------  ---------------      ----- ------------  ---------------
   511    -17.705383  32 C  s                56     16.895900   5 C  s         
   148     12.154369   9 C  py               13     -9.378686   2 C  s         
   284      8.904516  17 N  py              317     -8.608095  19 C  px        
   561      8.118351  34 N  s               233      5.675346  15 C  px        
   519      5.458434  32 C  py              310     -5.355830  19 C  s         

 Vector  181  Occ=0.000000D+00  E= 4.539150D-01
              MO Center=  1.3D+00, -5.7D-01,  2.9D-01, r^2= 2.4D+01
   Bfn.  Coefficient  Atom+Function         Bfn.  Coefficient  Atom+Function  
  ----- ------------  ---------------      ----- ------------  ---------------
    56     10.556109   5 C  s               147      9.805834   9 C  px        
   174     -8.047358  11 C  s               387      7.817107  24 C  s         
   113     -6.605808   7 N  px              114      6.563647   7 N  py        
   343     -5.869776  21 C  s                13     -5.167759   2 C  s         
   344     -5.164166  21 C  s               459      5.098866  28 C  s         

 Vector  182  Occ=0.000000D+00  E= 4.590134D-01
              MO Center=  1.4D+00,  4.4D-01, -1.6D-01, r^2= 2.4D+01
   Bfn.  Coefficient  Atom+Function         Bfn.  Coefficient  Atom+Function  
  ----- ------------  ---------------      ----- ------------  ---------------
    13     11.544613   2 C  s               387    -11.223687  24 C  s         
    64      7.396105   5 C  py              458     -7.236501  28 C  s         
   173      6.982022  11 C  s               174      6.608591  11 C  s         
   206     -6.509068  13 H  s               482      5.995807  29 H  s         
    56     -5.927181   5 C  s               106     -5.904011   7 N  s         

 Vector  183  Occ=0.000000D+00  E= 4.606965D-01
              MO Center=  2.1D-01,  1.3D-01, -5.0D-01, r^2= 2.1D+01
   Bfn.  Coefficient  Atom+Function         Bfn.  Coefficient  Atom+Function  
  ----- ------------  ---------------      ----- ------------  ---------------
   387     25.121234  24 C  s               344    -16.861229  21 C  s         
   173      9.992942  11 C  s               284      9.238861  17 N  py        
   431     -9.196567  27 S  s               206     -8.261602  13 H  s         
   174      8.126313  11 C  s               234     -8.016573  15 C  py        
   511     -7.615198  32 C  s               215     -7.037332  14 H  s         

 Vector  184  Occ=0.000000D+00  E= 4.639172D-01
              MO Center=  7.4D-01, -5.7D-01,  3.3D-01, r^2= 2.6D+01
   Bfn.  Coefficient  Atom+Function         Bfn.  Coefficient  Atom+Function  
  ----- ------------  ---------------      ----- ------------  ---------------
   511     20.753067  32 C  s                13     10.550447   2 C  s         
   174     -9.854213  11 C  s               148      9.074032   9 C  py        
   276     -8.632261  17 N  s               561     -8.220333  34 N  s         
   300     -7.619157  18 H  s               344     -7.150677  21 C  s         
   106      6.780034   7 N  s               317      5.952854  19 C  px        

 Vector  185  Occ=0.000000D+00  E= 4.659500D-01
              MO Center=  2.5D-01,  1.6D-01, -1.5D-01, r^2= 2.1D+01
   Bfn.  Coefficient  Atom+Function         Bfn.  Coefficient  Atom+Function  
  ----- ------------  ---------------      ----- ------------  ---------------
   344     25.212969  21 C  s               148    -15.038040   9 C  py        
   174     14.735196  11 C  s               511    -12.786364  32 C  s         
    13    -11.363585   2 C  s                64     -9.758708   5 C  py        
   173      9.547166  11 C  s               319     -9.272104  19 C  pz        
   197     -7.848608  12 H  s                56     -7.739977   5 C  s         

 Vector  186  Occ=0.000000D+00  E= 4.716062D-01
              MO Center= -1.6D-02,  1.2D-01, -4.6D-01, r^2= 2.1D+01
   Bfn.  Coefficient  Atom+Function         Bfn.  Coefficient  Atom+Function  
  ----- ------------  ---------------      ----- ------------  ---------------
   148     19.163217   9 C  py              300    -19.124177  18 H  s         
   511    -18.952854  32 C  s                56     17.838356   5 C  s         
   344     17.476786  21 C  s                13    -13.934947   2 C  s         
   317    -13.357317  19 C  px              284     12.487272  17 N  py        
   233     11.471928  15 C  px              319     -6.944499  19 C  pz        

 Vector  187  Occ=0.000000D+00  E= 4.752648D-01
              MO Center=  3.2D-01,  7.6D-01, -9.2D-02, r^2= 2.2D+01
   Bfn.  Coefficient  Atom+Function         Bfn.  Coefficient  Atom+Function  
  ----- ------------  ---------------      ----- ------------  ---------------
    56     21.861634   5 C  s                13    -19.710124   2 C  s         
   174    -14.829354  11 C  s               300     10.586006  18 H  s         
   276     10.369095  17 N  s               148     -9.251569   9 C  py        
   114      8.928214   7 N  py               12     -8.631005   2 C  s         
   344      8.217127  21 C  s               149     -7.709104   9 C  pz        

 Vector  188  Occ=0.000000D+00  E= 4.794831D-01
              MO Center=  2.3D-01,  1.2D-01, -2.3D-02, r^2= 2.0D+01
   Bfn.  Coefficient  Atom+Function         Bfn.  Coefficient  Atom+Function  
  ----- ------------  ---------------      ----- ------------  ---------------
   511    -13.543939  32 C  s               148     13.074065   9 C  py        
   387     13.127965  24 C  s               344    -11.849679  21 C  s         
   233     10.718747  15 C  px              284      9.366899  17 N  py        
   317     -6.737582  19 C  px              147     -6.442783   9 C  px        
   536      6.177124  33 O  s                56      6.016954   5 C  s         

 Vector  189  Occ=0.000000D+00  E= 4.809138D-01
              MO Center=  7.0D-01,  3.8D-01,  1.6D-01, r^2= 2.3D+01
   Bfn.  Coefficient  Atom+Function         Bfn.  Coefficient  Atom+Function  
  ----- ------------  ---------------      ----- ------------  ---------------
   344     19.322030  21 C  s               459     14.641849  28 C  s         
   387    -13.857258  24 C  s               511    -10.916366  32 C  s         
   458      9.302623  28 C  s               491     -8.595483  30 H  s         
   106     -6.755804   7 N  s               174      6.513425  11 C  s         
   520     -5.766395  32 C  pz              353     -5.547682  21 C  pz        

 Vector  190  Occ=0.000000D+00  E= 4.839938D-01
              MO Center= -1.2D-01, -1.2D+00, -1.5D-01, r^2= 2.2D+01
   Bfn.  Coefficient  Atom+Function         Bfn.  Coefficient  Atom+Function  
  ----- ------------  ---------------      ----- ------------  ---------------
   234     15.012483  15 C  py               13     13.039151   2 C  s         
    56    -11.627238   5 C  s               106      8.445157   7 N  s         
    12      8.350991   2 C  s               344      7.488763  21 C  s         
   276     -7.170011  17 N  s               387     -7.083058  24 C  s         
   233     -6.860639  15 C  px              317      6.615432  19 C  px        

 Vector  191  Occ=0.000000D+00  E= 4.930278D-01
              MO Center=  1.7D-01,  8.7D-03,  1.8D-01, r^2= 2.3D+01
   Bfn.  Coefficient  Atom+Function         Bfn.  Coefficient  Atom+Function  
  ----- ------------  ---------------      ----- ------------  ---------------
   511     13.994408  32 C  s                13     13.706878   2 C  s         
   344    -12.223385  21 C  s                64      8.685711   5 C  py        
   458     -7.678013  28 C  s                56     -7.302956   5 C  s         
    12      6.865598   2 C  s               459     -5.897478  28 C  s         
   251      5.824947  16 O  s               114     -5.774278   7 N  py        

 Vector  192  Occ=0.000000D+00  E= 4.956025D-01
              MO Center=  1.9D-01,  1.2D+00,  8.0D-02, r^2= 2.2D+01
   Bfn.  Coefficient  Atom+Function         Bfn.  Coefficient  Atom+Function  
  ----- ------------  ---------------      ----- ------------  ---------------
   387     42.076389  24 C  s               344    -23.082770  21 C  s         
    13    -17.030253   2 C  s                56     16.837227   5 C  s         
   419    -13.181152  26 H  s               386     11.094184  24 C  s         
   410    -10.106814  25 H  s               310     -8.679624  19 C  s         
   276      8.530270  17 N  s               148     -7.659436   9 C  py        

 Vector  193  Occ=0.000000D+00  E= 4.973018D-01
              MO Center= -2.6D-02,  5.4D-04, -3.1D-01, r^2= 2.0D+01
   Bfn.  Coefficient  Atom+Function         Bfn.  Coefficient  Atom+Function  
  ----- ------------  ---------------      ----- ------------  ---------------
   300     20.155971  18 H  s               387    -14.449709  24 C  s         
   511     -9.311488  32 C  s               561      9.134965  34 N  s         
   276      8.487535  17 N  s               344     -6.240618  21 C  s         
    13     -5.594997   2 C  s               458      5.537193  28 C  s         
   164     -5.262387  10 H  s               318      5.000163  19 C  py        

 Vector  194  Occ=0.000000D+00  E= 5.011242D-01
              MO Center= -1.7D-01,  2.0D-01, -7.8D-02, r^2= 2.2D+01
   Bfn.  Coefficient  Atom+Function         Bfn.  Coefficient  Atom+Function  
  ----- ------------  ---------------      ----- ------------  ---------------
   344     21.859638  21 C  s               148     18.684381   9 C  py        
   511    -14.950571  32 C  s                56     14.627176   5 C  s         
   276    -13.091439  17 N  s               387    -13.066272  24 C  s         
   300    -12.211086  18 H  s               367     -7.612947  22 H  s         
   319     -7.446573  19 C  pz              343      7.454749  21 C  s         


 center of mass
 --------------
 x =  -0.03587710 y =   0.02167432 z =  -0.00993988

 moments of inertia (a.u.)
 ------------------
        7848.469949117453          -0.000000000001          -0.000000000001
          -0.000000000001        3187.302004603011          -0.000000000003
          -0.000000000001          -0.000000000003        9985.586811936739

  Mulliken analysis of the total density
  --------------------------------------

    Atom       Charge   Shell Charges
 -----------   ------   -------------------------------------------------------
    1 H    1     0.82   0.76  0.08  0.01  0.03 -0.06
    2 C    6     6.51   2.01  0.66  0.30  0.28  2.06  1.05 -0.02  0.06  0.12
    3 H    1     0.83   0.76  0.10  0.01  0.03 -0.07
    4 H    1     0.97   0.76  0.22  0.01  0.03 -0.06
    5 C    6     5.01   2.01  0.68  0.09 -0.17  1.90  0.30 -0.05  0.24  0.02
    6 O    8     8.72   2.01  0.82  0.99  0.15  2.79  1.82  0.15  0.01 -0.02
    7 N    7     7.62   2.01  0.72  0.87 -0.04  2.46  1.45  0.06  0.05  0.05
    8 H    1     1.01   0.75  0.23 -0.00  0.06 -0.03
    9 C    6     6.42   2.01  0.66  0.15  0.00  2.00  1.36 -0.05  0.14  0.15
   10 H    1     1.11   0.78  0.32 -0.02  0.03 -0.00
   11 C    6     5.58   2.01  0.67  0.18  0.17  2.04  0.44  0.01  0.07  0.00
   12 H    1     1.02   0.77  0.30 -0.01  0.03 -0.06
   13 H    1     0.89   0.77  0.17  0.00  0.03 -0.08
   14 H    1     0.89   0.77  0.12  0.03  0.03 -0.07
   15 C    6     4.78   2.01  0.68  0.03  0.03  1.89  0.19  0.03  0.23 -0.32
   16 O    8     8.91   2.01  0.82  1.03  0.20  2.79  1.88  0.16  0.01  0.00
   17 N    7     7.33   2.01  0.72  0.85 -0.14  2.45  1.43 -0.06  0.05  0.02
   18 H    1     0.86   0.74  0.29 -0.06  0.06 -0.18
   19 C    6     6.53   2.01  0.66  0.04  0.06  1.99  1.38  0.14  0.14  0.10
   20 H    1     0.99   0.78  0.18  0.00  0.03  0.00
   21 C    6     6.05   2.01  0.66  0.36  0.10  2.03  0.68 -0.02  0.09  0.14
   22 H    1     1.01   0.77  0.25  0.03  0.03 -0.07
   23 H    1     0.98   0.78  0.26 -0.03  0.03 -0.07
   24 C    6     5.30   2.01  0.66 -0.08 -0.26  1.99  1.00  0.00  0.10 -0.12
   25 H    1     1.22   0.76  0.44 -0.01  0.03 -0.01
   26 H    1     1.24   0.77  0.48 -0.02  0.03 -0.02
   27 S   16    15.71   2.00  2.03  0.86  0.70  0.11  6.00  2.30  1.69  0.08  0.13 -0.19
   28 C    6     5.87   2.01  0.65  0.39 -0.02  2.00  0.85 -0.04  0.07 -0.04
   29 H    1     1.03   0.76  0.23  0.02  0.03 -0.01
   30 H    1     1.08   0.76  0.26  0.03  0.03 -0.00
   31 H    1     1.18   0.76  0.44  0.00  0.03 -0.04
   32 C    6     4.58   2.01  0.68  0.05  0.08  1.89 -0.10 -0.06  0.24 -0.20
   33 O    8     8.78   2.01  0.82  1.03  0.16  2.79  1.83  0.14  0.01 -0.01
   34 N    7     7.24   2.01  0.72  0.84 -0.16  2.47  1.25  0.09  0.04 -0.01
   35 H    1     0.91   0.74  0.19 -0.02  0.06 -0.05
   36 H    1     1.02   0.76  0.24 -0.00  0.05 -0.03

       Multipole analysis of the density wrt the origin
       ------------------------------------------------

     L   x y z        total         open         nuclear
     -   - - -        -----         ----         -------
     0   0 0 0     -0.000000      0.000000    140.000000

     1   1 0 0      0.121005      0.000000     -0.000000
     1   0 1 0     -0.054216      0.000000     -0.000000
     1   0 0 1      0.323223      0.000000      0.000000

     2   2 0 0    -85.783499      0.000000   1461.041994
     2   1 1 0     18.124559      0.000000     55.137652
     2   1 0 1      6.629973      0.000000     22.764285
     2   0 2 0    -91.622632      0.000000   4007.156731
     2   0 1 1      3.747545      0.000000     24.527860
     2   0 0 2    -80.173670      0.000000    324.090534


 Task  times  cpu:     5264.8s     wall:     5378.7s


                                NWChem Input Module
                                -------------------


 Summary of allocated global arrays
-----------------------------------
  No active global arrays


MA_summarize_allocated_blocks: starting scan ...
MA_summarize_allocated_blocks: scan completed: 0 heap blocks, 0 stack blocks
MA usage statistics:

	allocation statistics:
					      heap	     stack
					      ----	     -----
	current number of blocks	         0	         0
	maximum number of blocks	        16	        14
	current total bytes		         0	         0
	maximum total bytes		    138096	  33951752
	maximum total K-bytes		       139	     33952
	maximum total M-bytes		         1	        34


                                     CITATION
                                     --------
                Please cite the following reference when publishing
                           results obtained with NWChem:

          E. Apra, E. J. Bylaska, W. A. de Jong, N. Govind, K. Kowalski,
       T. P. Straatsma, M. Valiev, H. J. J. van Dam, Y. Alexeev, J. Anchell,
       V. Anisimov, F. W. Aquino, R. Atta-Fynn, J. Autschbach, N. P. Bauman,
     J. C. Becca, D. E. Bernholdt, K. Bhaskaran-Nair, S. Bogatko, P. Borowski,
         J. Boschen, J. Brabec, A. Bruner, E. Cauet, Y. Chen, G. N. Chuev,
      C. J. Cramer, J. Daily, M. J. O. Deegan, T. H. Dunning Jr., M. Dupuis,
   K. G. Dyall, G. I. Fann, S. A. Fischer, A. Fonari, H. Fruchtl, L. Gagliardi,
      J. Garza, N. Gawande, S. Ghosh, K. Glaesemann, A. W. Gotz, J. Hammond,
       V. Helms, E. D. Hermes, K. Hirao, S. Hirata, M. Jacquelin, L. Jensen,
   B. G. Johnson, H. Jonsson, R. A. Kendall, M. Klemm, R. Kobayashi, V. Konkov,
      S. Krishnamoorthy, M. Krishnan, Z. Lin, R. D. Lins, R. J. Littlefield,
      A. J. Logsdail, K. Lopata, W. Ma, A. V. Marenich, J. Martin del Campo,
   D. Mejia-Rodriguez, J. E. Moore, J. M. Mullin, T. Nakajima, D. R. Nascimento,
    J. A. Nichols, P. J. Nichols, J. Nieplocha, A. Otero-de-la-Roza, B. Palmer,
    A. Panyala, T. Pirojsirikul, B. Peng, R. Peverati, J. Pittner, L. Pollack,
   R. M. Richard, P. Sadayappan, G. C. Schatz, W. A. Shelton, D. W. Silverstein,
   D. M. A. Smith, T. A. Soares, D. Song, M. Swart, H. L. Taylor, G. S. Thomas,
            V. Tipparaju, D. G. Truhlar, K. Tsemekhman, T. Van Voorhis,
      A. Vazquez-Mayagoitia, P. Verma, O. Villa, A. Vishnu, K. D. Vogiatzis,
        D. Wang, J. H. Weare, M. J. Williamson, T. L. Windus, K. Wolinski,
        A. T. Wong, Q. Wu, C. Yang, Q. Yu, M. Zacharias, Z. Zhang, Y. Zhao,
                                and R. J. Harrison
                        "NWChem: Past, present, and future
                         J. Chem. Phys. 152, 184102 (2020)
                               doi:10.1063/5.0004997

                                      AUTHORS
                                      -------
  E. Apra, E. J. Bylaska, N. Govind, K. Kowalski, M. Valiev, D. Mejia-Rodriguez,
       A. Kunitsa, N. P. Bauman, A. Panyala, W. A. de Jong, T. P. Straatsma,
   H. J. J. van Dam, D. Wang, T. L. Windus, J. Hammond, J. Autschbach, A. Woods,
    K. Bhaskaran-Nair, J. Brabec, K. Lopata, S. A. Fischer, S. Krishnamoorthy,
     M. Jacquelin, W. Ma, M. Klemm, O. Villa, Y. Chen, V. Anisimov, F. Aquino,
     S. Hirata, M. T. Hackler, E. Hermes, L. Jensen, J. E. Moore, J. C. Becca,
      V. Konjkov, T. Risthaus, M. Malagoli, A. Marenich, A. Otero-de-la-Roza,
        J. Mullin, P. Nichols, R. Peverati, J. Pittner, Y. Zhao, P.-D. Fan,
        A. Fonari, M. J. Williamson, R. J. Harrison, J. R. Rehr, M. Dupuis,
     D. Silverstein, D. M. A. Smith, J. Nieplocha, V. Tipparaju, M. Krishnan,
     B. E. Van Kuiken, A. Vazquez-Mayagoitia, M. Swart, Q. Wu, T. Van Voorhis,
     A. A. Auer, M. Nooijen, L. D. Crosby, E. Brown, G. Cisneros, G. I. Fann,
   H. Fruchtl, J. Garza, K. Hirao, R. A. Kendall, J. A. Nichols, K. Tsemekhman,
    K. Wolinski, J. Anchell, D. E. Bernholdt, P. Borowski, T. Clark, D. Clerc,
   H. Dachsel, M. J. O. Deegan, K. Dyall, D. Elwood, E. Glendening, M. Gutowski,
   A. C. Hess, J. Jaffe, B. G. Johnson, J. Ju, R. Kobayashi, R. Kutteh, Z. Lin,
   R. Littlefield, X. Long, B. Meng, T. Nakajima, S. Niu, L. Pollack, M. Rosing,
   K. Glaesemann, G. Sandrone, M. Stave, H. Taylor, G. Thomas, J. H. van Lenthe,
                               A. T. Wong, Z. Zhang.

 Total times  cpu:     5264.8s     wall:     5379.4s
