export TMOUT=5400
export TMPDIR=/tmp
export PTMPDIR=/tmp/ptmp
 argument  1 = ALA_ILE_3.nw
                                         
                                         


             Northwest Computational Chemistry Package (NWChem) 7.2.0
             --------------------------------------------------------


                    Environmental Molecular Sciences Laboratory
                       Pacific Northwest National Laboratory
                                Richland, WA 99352

                              Copyright (c) 1994-2022
                       Pacific Northwest National Laboratory
                            Battelle Memorial Institute

             NWChem is an open-source computational chemistry package
                        distributed under the terms of the
                      Educational Community License (ECL) 2.0
             A copy of the license is included with this distribution
                              in the LICENSE.TXT file

                                  ACKNOWLEDGMENT
                                  --------------

            This software and its documentation were developed at the
            EMSL at Pacific Northwest National Laboratory, a multiprogram
            national laboratory, operated for the U.S. Department of Energy
            by Battelle under Contract Number DE-AC05-76RL01830. Support
            for this work was provided by the Department of Energy Office
            of Biological and Environmental Research, Office of Basic
            Energy Sciences, and the Office of Advanced Scientific Computing.


           Job information
           ---------------

    hostname        = nova18-33
    program         = /opt/rit/el9/20230413/app/linux-rhel9-x86_64_v3/gcc-11.2.1/nwchem-7.2.0-oxtctbuhfuzyfaoziquq6bki22grib3g/bin/nwchem
    date            = Fri Jun 27 13:56:36 2025

    compiled        = Wed_May_17_23:46:39_2023
    source          = /tmp/root/spack-stage/spack-stage-nwchem-7.2.0-oxtctbuhfuzyfaoziquq6bki22grib3g/spack-src
    nwchem branch   = 7.2.0
    nwchem revision = d0d141fd
    ga revision     = 5.8.0
    use scalapack   = T
    input           = ALA_ILE_3.nw
    prefix          = ALA_ILE_3.
    data base       = ./ALA_ILE_3.db
    status          = startup
    nproc           =        8
    time left       =     -1s



           Memory information
           ------------------

    heap     =   26214396 doubles =    200.0 Mbytes
    stack    =   26214401 doubles =    200.0 Mbytes
    global   =   52428800 doubles =    400.0 Mbytes (distinct from heap & stack)
    total    =  104857597 doubles =    800.0 Mbytes
    verify   = yes
    hardfail = no 


           Directory information
           ---------------------

  0 permanent = .
  0 scratch   = .




                                NWChem Input Module
                                -------------------



 Scaling coordinates for geometry "geometry" by  1.889725989
 (inverse scale =  0.529177249)

 C1  symmetry detected

          ------
          auto-z
          ------
  no constraints, skipping    0.0000000000000000     
  no constraints, skipping    0.0000000000000000     


                             Geometry "geometry" -> ""
                             -------------------------

 Output coordinates in angstroms (scale by  1.889725989 to convert to a.u.)

  No.       Tag          Charge          X              Y              Z
 ---- ---------------- ---------- -------------- -------------- --------------
    1 H                    1.0000    -1.24099761    -5.57292044    -1.14878278
    2 C                    6.0000    -1.36692857    -5.30337782    -0.10224842
    3 H                    1.0000    -1.27058013    -6.19282031     0.51929726
    4 H                    1.0000    -2.34613030    -4.85416469     0.05067163
    5 C                    6.0000    -0.29549417    -4.31279804     0.29051870
    6 O                    8.0000     0.49621151    -4.58671436     1.18201966
    7 N                    7.0000    -0.27903204    -3.16069291    -0.37410959
    8 H                    1.0000    -0.98977768    -2.99236385    -1.07025753
    9 C                    6.0000     0.66066818    -2.06709863    -0.12446171
   10 H                    1.0000     0.90604474    -2.04752348     0.93807213
   11 C                    6.0000     1.94988977    -2.32791824    -0.91793120
   12 H                    1.0000     2.38165774    -3.28290557    -0.61663794
   13 H                    1.0000     1.73100407    -2.35303936    -1.98625090
   14 H                    1.0000     2.67503606    -1.53792512    -0.71978046
   15 C                    6.0000     0.03627530    -0.70833949    -0.49145100
   16 O                    8.0000    -0.93873068    -0.64679110    -1.24209082
   17 N                    7.0000     0.60670493     0.38294481     0.02548866
   18 H                    1.0000     1.42279978     0.27446581     0.61117161
   19 C                    6.0000     0.16083472     1.76258699    -0.22079206
   20 H                    1.0000    -0.20127744     1.80931629    -1.24740209
   21 C                    6.0000    -1.01555975     2.11994705     0.72658318
   22 H                    1.0000    -1.79112681     1.36359561     0.58974299
   23 C                    6.0000    -0.60207490     2.08648487     2.21022585
   24 H                    1.0000     0.15480068     2.84460428     2.41620722
   25 H                    1.0000    -1.47032238     2.27319207     2.84209350
   26 H                    1.0000    -0.20053605     1.10694210     2.47096999
   27 C                    6.0000    -1.66515444     3.49201007     0.44179411
   28 H                    1.0000    -2.47482127     3.64499017     1.15746981
   29 H                    1.0000    -0.94068790     4.29175199     0.59171105
   30 C                    6.0000    -2.26861368     3.60943610    -0.96446123
   31 H                    1.0000    -1.48672135     3.58234868    -1.72126612
   32 H                    1.0000    -2.97071016     2.79254957    -1.13586406
   33 H                    1.0000    -2.80083396     4.55695065    -1.04826313
   34 C                    6.0000     1.35145858     2.72678489    -0.10650630
   35 O                    8.0000     2.29943663     2.47572152     0.62945145
   36 N                    7.0000     1.34231624     3.83423205    -0.83588083
   37 H                    1.0000     2.13033707     4.45683245    -0.76114189
   38 H                    1.0000     0.56577304     4.03670047    -1.44290983

      Atomic Mass 
      ----------- 

      H                  1.007825
      C                 12.000000
      O                 15.994910
      N                 14.003070


 Effective nuclear repulsion energy (a.u.)    1283.4642241596

            Nuclear Dipole moment (a.u.) 
            ----------------------------
        X                 Y               Z
 ---------------- ---------------- ----------------
     0.0000000000     0.0000000000    -0.0000000000



                                Z-matrix (autoz)
                                -------- 

 Units are Angstrom for bonds and degrees for angles

      Type          Name      I     J     K     L     M      Value
      ----------- --------  ----- ----- ----- ----- ----- ----------
    1 Stretch                  1     2                       1.08800
    2 Stretch                  2     3                       1.08936
    3 Stretch                  2     4                       1.08812
    4 Stretch                  2     5                       1.51112
    5 Stretch                  5     6                       1.22336
    6 Stretch                  5     7                       1.33017
    7 Stretch                  7     8                       1.00902
    8 Stretch                  7     9                       1.46332
    9 Stretch                  9    10                       1.09067
   10 Stretch                  9    11                       1.53614
   11 Stretch                  9    15                       1.53973
   12 Stretch                 11    12                       1.09051
   13 Stretch                 11    13                       1.09080
   14 Stretch                 11    14                       1.09050
   15 Stretch                 15    16                       1.23202
   16 Stretch                 15    17                       1.33548
   17 Stretch                 17    18                       1.01035
   18 Stretch                 17    19                       1.47067
   19 Stretch                 19    20                       1.08960
   20 Stretch                 19    21                       1.55214
   21 Stretch                 19    34                       1.53633
   22 Stretch                 21    22                       1.09192
   23 Stretch                 21    23                       1.54055
   24 Stretch                 21    27                       1.54455
   25 Stretch                 23    24                       1.09089
   26 Stretch                 23    25                       1.08994
   27 Stretch                 23    26                       1.09029
   28 Stretch                 27    28                       1.09140
   29 Stretch                 27    29                       1.08946
   30 Stretch                 27    30                       1.53477
   31 Stretch                 30    31                       1.08850
   32 Stretch                 30    32                       1.09070
   33 Stretch                 30    33                       1.08998
   34 Stretch                 34    35                       1.22610
   35 Stretch                 34    36                       1.32609
   36 Stretch                 36    37                       1.00707
   37 Stretch                 36    38                       1.00623
   38 Bend                     1     2     3               109.65167
   39 Bend                     1     2     4               109.97525
   40 Bend                     1     2     5               109.28974
   41 Bend                     2     5     6               120.09872
   42 Bend                     2     5     7               116.53084
   43 Bend                     3     2     4               109.66240
   44 Bend                     3     2     5               108.91806
   45 Bend                     4     2     5               109.32388
   46 Bend                     5     7     8               118.71819
   47 Bend                     5     7     9               124.75014
   48 Bend                     6     5     7               123.36976
   49 Bend                     7     9    10               108.91034
   50 Bend                     7     9    11               108.90113
   51 Bend                     7     9    15               111.00338
   52 Bend                     8     7     9               116.44701
   53 Bend                     9    11    12               109.77148
   54 Bend                     9    11    13               109.96155
   55 Bend                     9    11    14               109.95141
   56 Bend                     9    15    16               120.67890
   57 Bend                     9    15    17               117.10556
   58 Bend                    10     9    11               108.50826
   59 Bend                    10     9    15               107.91412
   60 Bend                    11     9    15               111.53423
   61 Bend                    12    11    13               109.26120
   62 Bend                    12    11    14               108.71858
   63 Bend                    13    11    14               109.15230
   64 Bend                    15    17    18               118.79389
   65 Bend                    15    17    19               124.90733
   66 Bend                    16    15    17               122.21125
   67 Bend                    17    19    20               107.38359
   68 Bend                    17    19    21               110.09366
   69 Bend                    17    19    34               109.95856
   70 Bend                    18    17    19               116.27519
   71 Bend                    19    21    22               107.59939
   72 Bend                    19    21    23               112.29622
   73 Bend                    19    21    27               114.25156
   74 Bend                    19    34    35               121.01918
   75 Bend                    19    34    36               118.54587
   76 Bend                    20    19    21               108.25969
   77 Bend                    20    19    34               107.50106
   78 Bend                    21    19    34               113.42006
   79 Bend                    21    23    24               110.66919
   80 Bend                    21    23    25               109.92461
   81 Bend                    21    23    26               110.40670
   82 Bend                    21    27    28               108.39786
   83 Bend                    21    27    29               110.30714
   84 Bend                    21    27    30               113.72058
   85 Bend                    22    21    23               107.23459
   86 Bend                    22    21    27               107.06727
   87 Bend                    23    21    27               108.04416
   88 Bend                    24    23    25               108.91618
   89 Bend                    24    23    26               108.88607
   90 Bend                    25    23    26               107.97706
   91 Bend                    27    30    31               110.65326
   92 Bend                    27    30    32               109.86416
   93 Bend                    27    30    33               109.20478
   94 Bend                    28    27    29               107.46923
   95 Bend                    28    27    30               107.36242
   96 Bend                    29    27    30               109.35292
   97 Bend                    31    30    32               109.54160
   98 Bend                    31    30    33               108.59760
   99 Bend                    32    30    33               108.94539
  100 Bend                    34    36    37               118.03968
  101 Bend                    34    36    38               120.34269
  102 Bend                    35    34    36               120.42959
  103 Bend                    37    36    38               121.61762
  104 Torsion                  1     2     5     6        -119.72667
  105 Torsion                  1     2     5     7          60.56291
  106 Torsion                  2     5     7     8           2.25191
  107 Torsion                  2     5     7     9         178.78018
  108 Torsion                  3     2     5     6           0.04878
  109 Torsion                  3     2     5     7        -179.66164
  110 Torsion                  4     2     5     6         119.85761
  111 Torsion                  4     2     5     7         -59.85281
  112 Torsion                  5     7     9    10         -32.82795
  113 Torsion                  5     7     9    11          85.33462
  114 Torsion                  5     7     9    15        -151.50072
  115 Torsion                  6     5     7     8        -177.44810
  116 Torsion                  6     5     7     9          -0.91983
  117 Torsion                  7     9    11    12         -58.69105
  118 Torsion                  7     9    11    13          61.54113
  119 Torsion                  7     9    11    14        -178.24782
  120 Torsion                  7     9    15    16         -19.31872
  121 Torsion                  7     9    15    17         161.41814
  122 Torsion                  8     7     9    10         143.77157
  123 Torsion                  8     7     9    11         -98.06586
  124 Torsion                  8     7     9    15          25.09880
  125 Torsion                  9    15    17    18           1.22777
  126 Torsion                  9    15    17    19         179.39135
  127 Torsion                 10     9    11    12          59.72453
  128 Torsion                 10     9    11    13         179.95671
  129 Torsion                 10     9    11    14         -59.83224
  130 Torsion                 10     9    15    16        -138.59046
  131 Torsion                 10     9    15    17          42.14640
  132 Torsion                 11     9    15    16         102.31777
  133 Torsion                 11     9    15    17         -76.94537
  134 Torsion                 12    11     9    15         178.46242
  135 Torsion                 13    11     9    15         -61.30540
  136 Torsion                 14    11     9    15          58.90565
  137 Torsion                 15    17    19    20         -34.80920
  138 Torsion                 15    17    19    21          82.84449
  139 Torsion                 15    17    19    34        -151.48502
  140 Torsion                 16    15    17    18        -178.02322
  141 Torsion                 16    15    17    19           0.14037
  142 Torsion                 17    19    21    22         -54.69418
  143 Torsion                 17    19    21    23          63.08225
  144 Torsion                 17    19    21    27        -173.41945
  145 Torsion                 17    19    34    35         -29.23575
  146 Torsion                 17    19    34    36         149.92528
  147 Torsion                 18    17    19    20         143.39602
  148 Torsion                 18    17    19    21         -98.95029
  149 Torsion                 18    17    19    34          26.72020
  150 Torsion                 19    21    23    24          63.62914
  151 Torsion                 19    21    23    25        -176.01996
  152 Torsion                 19    21    23    26         -56.99942
  153 Torsion                 19    21    27    28         179.98912
  154 Torsion                 19    21    27    29         -62.59698
  155 Torsion                 19    21    27    30          60.67093
  156 Torsion                 19    34    36    37        -179.47080
  157 Torsion                 19    34    36    38           0.52572
  158 Torsion                 20    19    21    22          62.41573
  159 Torsion                 20    19    21    23        -179.80785
  160 Torsion                 20    19    21    27         -56.30955
  161 Torsion                 20    19    34    35        -145.83799
  162 Torsion                 20    19    34    36          33.32304
  163 Torsion                 21    19    34    35          94.51800
  164 Torsion                 21    19    34    36         -86.32096
  165 Torsion                 21    27    30    31         -66.76945
  166 Torsion                 21    27    30    32          54.31237
  167 Torsion                 21    27    30    33         173.74481
  168 Torsion                 22    21    19    34        -178.37414
  169 Torsion                 22    21    23    24        -178.37815
  170 Torsion                 22    21    23    25         -58.02724
  171 Torsion                 22    21    23    26          60.99329
  172 Torsion                 22    21    27    28          60.96270
  173 Torsion                 22    21    27    29         178.37659
  174 Torsion                 22    21    27    30         -58.35550
  175 Torsion                 23    21    19    34         -60.59771
  176 Torsion                 23    21    27    28         -54.25016
  177 Torsion                 23    21    27    29          63.16373
  178 Torsion                 23    21    27    30        -173.56836
  179 Torsion                 24    23    21    27         -63.27523
  180 Torsion                 25    23    21    27          57.07567
  181 Torsion                 26    23    21    27         176.09621
  182 Torsion                 27    21    19    34          62.90058
  183 Torsion                 28    27    30    31         173.32462
  184 Torsion                 28    27    30    32         -65.59357
  185 Torsion                 28    27    30    33          53.83888
  186 Torsion                 29    27    30    31          57.01782
  187 Torsion                 29    27    30    32         178.09963
  188 Torsion                 29    27    30    33         -62.46792
  189 Torsion                 35    34    36    37          -0.30465
  190 Torsion                 35    34    36    38         179.69187


            XYZ format geometry
            -------------------
    38
 geometry
 H                    -1.24099761    -5.57292044    -1.14878278
 C                    -1.36692857    -5.30337782    -0.10224842
 H                    -1.27058013    -6.19282031     0.51929726
 H                    -2.34613030    -4.85416469     0.05067163
 C                    -0.29549417    -4.31279804     0.29051870
 O                     0.49621151    -4.58671436     1.18201966
 N                    -0.27903204    -3.16069291    -0.37410959
 H                    -0.98977768    -2.99236385    -1.07025753
 C                     0.66066818    -2.06709863    -0.12446171
 H                     0.90604474    -2.04752348     0.93807213
 C                     1.94988977    -2.32791824    -0.91793120
 H                     2.38165774    -3.28290557    -0.61663794
 H                     1.73100407    -2.35303936    -1.98625090
 H                     2.67503606    -1.53792512    -0.71978046
 C                     0.03627530    -0.70833949    -0.49145100
 O                    -0.93873068    -0.64679110    -1.24209082
 N                     0.60670493     0.38294481     0.02548866
 H                     1.42279978     0.27446581     0.61117161
 C                     0.16083472     1.76258699    -0.22079206
 H                    -0.20127744     1.80931629    -1.24740209
 C                    -1.01555975     2.11994705     0.72658318
 H                    -1.79112681     1.36359561     0.58974299
 C                    -0.60207490     2.08648487     2.21022585
 H                     0.15480068     2.84460428     2.41620722
 H                    -1.47032238     2.27319207     2.84209350
 H                    -0.20053605     1.10694210     2.47096999
 C                    -1.66515444     3.49201007     0.44179411
 H                    -2.47482127     3.64499017     1.15746981
 H                    -0.94068790     4.29175199     0.59171105
 C                    -2.26861368     3.60943610    -0.96446123
 H                    -1.48672135     3.58234868    -1.72126612
 H                    -2.97071016     2.79254957    -1.13586406
 H                    -2.80083396     4.55695065    -1.04826313
 C                     1.35145858     2.72678489    -0.10650630
 O                     2.29943663     2.47572152     0.62945145
 N                     1.34231624     3.83423205    -0.83588083
 H                     2.13033707     4.45683245    -0.76114189
 H                     0.56577304     4.03670047    -1.44290983

 ==============================================================================
                                internuclear distances
 ------------------------------------------------------------------------------
       center one      |      center two      | atomic units |  angstroms
 ------------------------------------------------------------------------------
    2 C                |   1 H                |     2.05602  |     1.08800
    3 H                |   2 C                |     2.05860  |     1.08936
    4 H                |   2 C                |     2.05626  |     1.08812
    5 C                |   2 C                |     2.85560  |     1.51112
    6 O                |   5 C                |     2.31181  |     1.22336
    7 N                |   5 C                |     2.51365  |     1.33017
    8 H                |   7 N                |     1.90677  |     1.00902
    9 C                |   7 N                |     2.76528  |     1.46332
   10 H                |   9 C                |     2.06108  |     1.09067
   11 C                |   9 C                |     2.90288  |     1.53614
   12 H                |  11 C                |     2.06076  |     1.09051
   13 H                |  11 C                |     2.06132  |     1.09080
   14 H                |  11 C                |     2.06075  |     1.09050
   15 C                |   9 C                |     2.90967  |     1.53973
   16 O                |  15 C                |     2.32819  |     1.23202
   17 N                |  15 C                |     2.52370  |     1.33548
   18 H                |  17 N                |     1.90928  |     1.01035
   19 C                |  17 N                |     2.77916  |     1.47067
   20 H                |  19 C                |     2.05905  |     1.08960
   21 C                |  19 C                |     2.93311  |     1.55214
   22 H                |  21 C                |     2.06344  |     1.09192
   23 C                |  21 C                |     2.91121  |     1.54055
   24 H                |  23 C                |     2.06148  |     1.09089
   25 H                |  23 C                |     2.05969  |     1.08994
   26 H                |  23 C                |     2.06034  |     1.09029
   27 C                |  21 C                |     2.91878  |     1.54455
   28 H                |  27 C                |     2.06245  |     1.09140
   29 H                |  27 C                |     2.05877  |     1.08946
   30 C                |  27 C                |     2.90029  |     1.53477
   31 H                |  30 C                |     2.05698  |     1.08850
   32 H                |  30 C                |     2.06112  |     1.09070
   33 H                |  30 C                |     2.05977  |     1.08998
   34 C                |  19 C                |     2.90325  |     1.53633
   35 O                |  34 C                |     2.31700  |     1.22610
   36 N                |  34 C                |     2.50594  |     1.32609
   37 H                |  36 N                |     1.90309  |     1.00707
   38 H                |  36 N                |     1.90150  |     1.00623
 ------------------------------------------------------------------------------
                         number of included internuclear distances:         37
 ==============================================================================



 ==============================================================================
                                 internuclear angles
 ------------------------------------------------------------------------------
        center 1       |       center 2       |       center 3       |  degrees
 ------------------------------------------------------------------------------
    1 H                |   2 C                |   3 H                |   109.65
    1 H                |   2 C                |   4 H                |   109.98
    1 H                |   2 C                |   5 C                |   109.29
    3 H                |   2 C                |   4 H                |   109.66
    3 H                |   2 C                |   5 C                |   108.92
    4 H                |   2 C                |   5 C                |   109.32
    2 C                |   5 C                |   6 O                |   120.10
    2 C                |   5 C                |   7 N                |   116.53
    6 O                |   5 C                |   7 N                |   123.37
    5 C                |   7 N                |   8 H                |   118.72
    5 C                |   7 N                |   9 C                |   124.75
    8 H                |   7 N                |   9 C                |   116.45
    7 N                |   9 C                |  10 H                |   108.91
    7 N                |   9 C                |  11 C                |   108.90
    7 N                |   9 C                |  15 C                |   111.00
   10 H                |   9 C                |  11 C                |   108.51
   10 H                |   9 C                |  15 C                |   107.91
   11 C                |   9 C                |  15 C                |   111.53
    9 C                |  11 C                |  12 H                |   109.77
    9 C                |  11 C                |  13 H                |   109.96
    9 C                |  11 C                |  14 H                |   109.95
   12 H                |  11 C                |  13 H                |   109.26
   12 H                |  11 C                |  14 H                |   108.72
   13 H                |  11 C                |  14 H                |   109.15
    9 C                |  15 C                |  16 O                |   120.68
    9 C                |  15 C                |  17 N                |   117.11
   16 O                |  15 C                |  17 N                |   122.21
   15 C                |  17 N                |  18 H                |   118.79
   15 C                |  17 N                |  19 C                |   124.91
   18 H                |  17 N                |  19 C                |   116.28
   17 N                |  19 C                |  20 H                |   107.38
   17 N                |  19 C                |  21 C                |   110.09
   17 N                |  19 C                |  34 C                |   109.96
   20 H                |  19 C                |  21 C                |   108.26
   20 H                |  19 C                |  34 C                |   107.50
   21 C                |  19 C                |  34 C                |   113.42
   19 C                |  21 C                |  22 H                |   107.60
   19 C                |  21 C                |  23 C                |   112.30
   19 C                |  21 C                |  27 C                |   114.25
   22 H                |  21 C                |  23 C                |   107.23
   22 H                |  21 C                |  27 C                |   107.07
   23 C                |  21 C                |  27 C                |   108.04
   21 C                |  23 C                |  24 H                |   110.67
   21 C                |  23 C                |  25 H                |   109.92
   21 C                |  23 C                |  26 H                |   110.41
   24 H                |  23 C                |  25 H                |   108.92
   24 H                |  23 C                |  26 H                |   108.89
   25 H                |  23 C                |  26 H                |   107.98
   21 C                |  27 C                |  28 H                |   108.40
   21 C                |  27 C                |  29 H                |   110.31
   21 C                |  27 C                |  30 C                |   113.72
   28 H                |  27 C                |  29 H                |   107.47
   28 H                |  27 C                |  30 C                |   107.36
   29 H                |  27 C                |  30 C                |   109.35
   27 C                |  30 C                |  31 H                |   110.65
   27 C                |  30 C                |  32 H                |   109.86
   27 C                |  30 C                |  33 H                |   109.20
   31 H                |  30 C                |  32 H                |   109.54
   31 H                |  30 C                |  33 H                |   108.60
   32 H                |  30 C                |  33 H                |   108.95
   19 C                |  34 C                |  35 O                |   121.02
   19 C                |  34 C                |  36 N                |   118.55
   35 O                |  34 C                |  36 N                |   120.43
   34 C                |  36 N                |  37 H                |   118.04
   34 C                |  36 N                |  38 H                |   120.34
   37 H                |  36 N                |  38 H                |   121.62
 ------------------------------------------------------------------------------
                            number of included internuclear angles:         66
 ==============================================================================



  library name resolved from: environment
  library file name is: </opt/rit/el9/20230413/app/linux-rhel9-x86_64_v3/gcc-11.2.1/nwchem-7.2.0-oxtctbuhfuzyfaoziquq6bki22grib3g/share/nwchem/libraries/>
  


 Summary of "ao basis" -> "" (cartesian)
 ------------------------------------------------------------------------------
       Tag                 Description            Shells   Functions and Types
 ---------------- ------------------------------  ------  ---------------------
 *                        aug-cc-pvdz                 on all atoms 


                      Basis "ao basis" -> "ao basis" (cartesian)
                      -----
  H (Hydrogen)
  ------------
            Exponent  Coefficients 
       -------------- ---------------------------------------------------------
  1 S  1.30100000E+01  0.019685
  1 S  1.96200000E+00  0.137977
  1 S  4.44600000E-01  0.478148

  2 S  1.22000000E-01  1.000000

  3 S  2.97400000E-02  1.000000

  4 P  7.27000000E-01  1.000000

  5 P  1.41000000E-01  1.000000

  C (Carbon)
  ----------
            Exponent  Coefficients 
       -------------- ---------------------------------------------------------
  1 S  6.66500000E+03  0.000692
  1 S  1.00000000E+03  0.005329
  1 S  2.28000000E+02  0.027077
  1 S  6.47100000E+01  0.101718
  1 S  2.10600000E+01  0.274740
  1 S  7.49500000E+00  0.448564
  1 S  2.79700000E+00  0.285074
  1 S  5.21500000E-01  0.015204

  2 S  6.66500000E+03 -0.000146
  2 S  1.00000000E+03 -0.001154
  2 S  2.28000000E+02 -0.005725
  2 S  6.47100000E+01 -0.023312
  2 S  2.10600000E+01 -0.063955
  2 S  7.49500000E+00 -0.149981
  2 S  2.79700000E+00 -0.127262
  2 S  5.21500000E-01  0.544529

  3 S  1.59600000E-01  1.000000

  4 S  4.69000000E-02  1.000000

  5 P  9.43900000E+00  0.038109
  5 P  2.00200000E+00  0.209480
  5 P  5.45600000E-01  0.508557

  6 P  1.51700000E-01  1.000000

  7 P  4.04100000E-02  1.000000

  8 D  5.50000000E-01  1.000000

  9 D  1.51000000E-01  1.000000

  O (Oxygen)
  ----------
            Exponent  Coefficients 
       -------------- ---------------------------------------------------------
  1 S  1.17200000E+04  0.000710
  1 S  1.75900000E+03  0.005470
  1 S  4.00800000E+02  0.027837
  1 S  1.13700000E+02  0.104800
  1 S  3.70300000E+01  0.283062
  1 S  1.32700000E+01  0.448719
  1 S  5.02500000E+00  0.270952
  1 S  1.01300000E+00  0.015458

  2 S  1.17200000E+04 -0.000160
  2 S  1.75900000E+03 -0.001263
  2 S  4.00800000E+02 -0.006267
  2 S  1.13700000E+02 -0.025716
  2 S  3.70300000E+01 -0.070924
  2 S  1.32700000E+01 -0.165411
  2 S  5.02500000E+00 -0.116955
  2 S  1.01300000E+00  0.557368

  3 S  3.02300000E-01  1.000000

  4 S  7.89600000E-02  1.000000

  5 P  1.77000000E+01  0.043018
  5 P  3.85400000E+00  0.228913
  5 P  1.04600000E+00  0.508728

  6 P  2.75300000E-01  1.000000

  7 P  6.85600000E-02  1.000000

  8 D  1.18500000E+00  1.000000

  9 D  3.32000000E-01  1.000000

  N (Nitrogen)
  ------------
            Exponent  Coefficients 
       -------------- ---------------------------------------------------------
  1 S  9.04600000E+03  0.000700
  1 S  1.35700000E+03  0.005389
  1 S  3.09300000E+02  0.027406
  1 S  8.77300000E+01  0.103207
  1 S  2.85600000E+01  0.278723
  1 S  1.02100000E+01  0.448540
  1 S  3.83800000E+00  0.278238
  1 S  7.46600000E-01  0.015440

  2 S  9.04600000E+03 -0.000153
  2 S  1.35700000E+03 -0.001208
  2 S  3.09300000E+02 -0.005992
  2 S  8.77300000E+01 -0.024544
  2 S  2.85600000E+01 -0.067459
  2 S  1.02100000E+01 -0.158078
  2 S  3.83800000E+00 -0.121831
  2 S  7.46600000E-01  0.549003

  3 S  2.24800000E-01  1.000000

  4 S  6.12400000E-02  1.000000

  5 P  1.35500000E+01  0.039919
  5 P  2.91700000E+00  0.217169
  5 P  7.97300000E-01  0.510319

  6 P  2.18500000E-01  1.000000

  7 P  5.61100000E-02  1.000000

  8 D  8.17000000E-01  1.000000

  9 D  2.30000000E-01  1.000000



 Summary of "ao basis" -> "ao basis" (cartesian)
 ------------------------------------------------------------------------------
       Tag                 Description            Shells   Functions and Types
 ---------------- ------------------------------  ------  ---------------------
 H                        aug-cc-pvdz                5        9   3s2p
 C                        aug-cc-pvdz                9       25   4s3p2d
 O                        aug-cc-pvdz                9       25   4s3p2d
 N                        aug-cc-pvdz                9       25   4s3p2d


                                 NWChem SCF Module
                                 -----------------



  ao basis        = "ao basis"
  functions       =   614
  atoms           =    38
  closed shells   =    66
  open shells     =     0
  charge          =   0.00
  wavefunction    = RHF 
  input vectors   = atomic
  output vectors  = ./ALA_ILE_3.movecs
  use symmetry    = F
  symmetry adapt  = F


 Summary of "ao basis" -> "ao basis" (cartesian)
 ------------------------------------------------------------------------------
       Tag                 Description            Shells   Functions and Types
 ---------------- ------------------------------  ------  ---------------------
 H                        aug-cc-pvdz                5        9   3s2p
 C                        aug-cc-pvdz                9       25   4s3p2d
 O                        aug-cc-pvdz                9       25   4s3p2d
 N                        aug-cc-pvdz                9       25   4s3p2d



 Forming initial guess at       1.6s


 !! The overlap matrix has   6 vectors deemed linearly dependent with
    eigenvalues:
 1.96D-06 2.22D-06 4.85D-06 5.80D-06 7.23D-06 9.49D-06


      Superposition of Atomic Density Guess
      -------------------------------------

 Sum of atomic energies:        -812.03184720

      Non-variational initial energy
      ------------------------------

 Total energy =    -823.451035
 1-e energy   =   -3650.798819
 2-e energy   =    1543.883560
 HOMO         =      -0.309862
 LUMO         =       0.009145


 Starting SCF solution at     265.8s



 ----------------------------------------------
         Quadratically convergent ROHF

 Convergence threshold     :          1.000E-04
 Maximum no. of iterations :           30
 Final Fock-matrix accuracy:          1.000E-10
 ----------------------------------------------


              iter       energy          gnorm     gmax       time
             ----- ------------------- --------- --------- --------
                 1     -816.5050340299  2.45D+00  1.22D-01    534.7
                 2     -816.8300493077  8.49D-01  4.83D-02   1063.8
                 3     -816.8925637187  6.20D-02  5.42D-03   1873.1
                 4     -816.8931506989  3.57D-03  3.26D-04   2942.5
                 5     -816.8931532058  6.98D-06  4.53D-07   4892.3


       Final RHF  results 
       ------------------ 

         Total SCF energy =   -816.893153205838
      One-electron energy =  -3663.966714921607
      Two-electron energy =   1563.609337556126
 Nuclear repulsion energy =   1283.464224159643

        Time for solution =   4633.8s


             Final eigenvalues
             -----------------

              1      
    1  -20.5423
    2  -20.5372
    3  -20.5145
    4  -15.6154
    5  -15.6074
    6  -15.5897
    7  -11.3762
    8  -11.3689
    9  -11.3468
   10  -11.3062
   11  -11.2969
   12  -11.2526
   13  -11.2406
   14  -11.2370
   15  -11.2360
   16  -11.2349
   17  -11.2246
   18   -1.4062
   19   -1.3943
   20   -1.3765
   21   -1.2515
   22   -1.2428
   23   -1.2384
   24   -1.1097
   25   -1.0590
   26   -1.0159
   27   -0.9880
   28   -0.9751
   29   -0.8949
   30   -0.8740
   31   -0.8380
   32   -0.8187
   33   -0.7871
   34   -0.7794
   35   -0.7582
   36   -0.7242
   37   -0.6816
   38   -0.6753
   39   -0.6653
   40   -0.6539
   41   -0.6512
   42   -0.6250
   43   -0.6154
   44   -0.6084
   45   -0.6050
   46   -0.5920
   47   -0.5836
   48   -0.5757
   49   -0.5692
   50   -0.5645
   51   -0.5611
   52   -0.5441
   53   -0.5388
   54   -0.5245
   55   -0.5237
   56   -0.5161
   57   -0.4988
   58   -0.4937
   59   -0.4804
   60   -0.4642
   61   -0.4383
   62   -0.4331
   63   -0.4296
   64   -0.4128
   65   -0.4025
   66   -0.3870
   67    0.0246
   68    0.0360
   69    0.0379
   70    0.0427
   71    0.0484
   72    0.0499
   73    0.0563
   74    0.0594
   75    0.0629
   76    0.0669

                       ROHF Final Molecular Orbital Analysis
                       -------------------------------------

 Vector   18  Occ=2.000000D+00  E=-1.406200D+00
              MO Center=  1.7D+00,  2.3D+00,  1.5D-01, r^2= 2.4D+00
   Bfn.  Coefficient  Atom+Function         Bfn.  Coefficient  Atom+Function  
  ----- ------------  ---------------      ----- ------------  ---------------
   549      0.360627  35 O  s               548      0.328712  35 O  s         
   523      0.235310  34 C  s               429      0.170417  27 C  s         
   309     -0.163552  19 C  s         

 Vector   19  Occ=2.000000D+00  E=-1.394341D+00
              MO Center= -2.1D-01, -4.0D-01, -7.1D-01, r^2= 3.4D+00
   Bfn.  Coefficient  Atom+Function         Bfn.  Coefficient  Atom+Function  
  ----- ------------  ---------------      ----- ------------  ---------------
   250      0.344667  16 O  s               249      0.324895  16 O  s         
   224      0.226687  15 C  s         

 Vector   20  Occ=2.000000D+00  E=-1.376490D+00
              MO Center=  1.5D-01, -4.2D+00,  6.7D-01, r^2= 1.8D+00
   Bfn.  Coefficient  Atom+Function         Bfn.  Coefficient  Atom+Function  
  ----- ------------  ---------------      ----- ------------  ---------------
    79      0.342377   6 O  s                80      0.343840   6 O  s         
    54      0.241543   5 C  s                12      0.157507   2 C  s         

 Vector   21  Occ=2.000000D+00  E=-1.251522D+00
              MO Center=  3.7D-01,  4.2D-01, -1.7D-01, r^2= 2.0D+00
   Bfn.  Coefficient  Atom+Function         Bfn.  Coefficient  Atom+Function  
  ----- ------------  ---------------      ----- ------------  ---------------
   275      0.435864  17 N  s               274      0.337067  17 N  s         
   250     -0.215906  16 O  s               249     -0.180042  16 O  s         
   429      0.175100  27 C  s         

 Vector   22  Occ=2.000000D+00  E=-1.242770D+00
              MO Center=  1.4D+00,  3.4D+00, -5.6D-01, r^2= 1.8D+00
   Bfn.  Coefficient  Atom+Function         Bfn.  Coefficient  Atom+Function  
  ----- ------------  ---------------      ----- ------------  ---------------
   574      0.378747  36 N  s               573      0.365749  36 N  s         
   549     -0.208395  35 O  s               548     -0.177419  35 O  s         
   606      0.169182  38 H  s               597      0.154450  37 H  s         

 Vector   23  Occ=2.000000D+00  E=-1.238391D+00
              MO Center= -8.1D-02, -3.3D+00, -1.1D-01, r^2= 1.9D+00
   Bfn.  Coefficient  Atom+Function         Bfn.  Coefficient  Atom+Function  
  ----- ------------  ---------------      ----- ------------  ---------------
   105      0.440864   7 N  s               104      0.342462   7 N  s         
    80     -0.214646   6 O  s                79     -0.186087   6 O  s         
   128      0.152588   8 H  s         

 Vector   24  Occ=2.000000D+00  E=-1.109734D+00
              MO Center= -8.6D-01,  2.2D+00,  4.3D-01, r^2= 4.0D+00
   Bfn.  Coefficient  Atom+Function         Bfn.  Coefficient  Atom+Function  
  ----- ------------  ---------------      ----- ------------  ---------------
   309      0.282828  19 C  s               342      0.239504  21 C  s         
   428      0.196568  27 C  s               429      0.184916  27 C  s         

 Vector   25  Occ=2.000000D+00  E=-1.059010D+00
              MO Center=  3.0D-01, -1.9D+00, -2.8D-01, r^2= 7.7D+00
   Bfn.  Coefficient  Atom+Function         Bfn.  Coefficient  Atom+Function  
  ----- ------------  ---------------      ----- ------------  ---------------
   138      0.232732   9 C  s               172      0.193547  11 C  s         
    12     -0.169506   2 C  s         

 Vector   26  Occ=2.000000D+00  E=-1.015934D+00
              MO Center= -1.0D+00,  1.9D+00, -1.9D-01, r^2= 9.9D+00
   Bfn.  Coefficient  Atom+Function         Bfn.  Coefficient  Atom+Function  
  ----- ------------  ---------------      ----- ------------  ---------------
   309      0.280298  19 C  s               471     -0.232599  30 C  s         
   436      0.181339  27 C  pz              428     -0.171978  27 C  s         
   308      0.168648  19 C  s               315      0.151099  19 C  py        

 Vector   27  Occ=2.000000D+00  E=-9.879927D-01
              MO Center= -7.5D-01, -3.1D+00,  4.0D-02, r^2= 1.2D+01
   Bfn.  Coefficient  Atom+Function         Bfn.  Coefficient  Atom+Function  
  ----- ------------  ---------------      ----- ------------  ---------------
    11      0.293022   2 C  s                56     -0.171634   5 C  s         
   350      0.151567  21 C  pz        

 Vector   28  Occ=2.000000D+00  E=-9.751273D-01
              MO Center= -1.3D-02,  8.3D-01,  4.3D-01, r^2= 1.0D+01
   Bfn.  Coefficient  Atom+Function         Bfn.  Coefficient  Atom+Function  
  ----- ------------  ---------------      ----- ------------  ---------------
   350     -0.247455  21 C  pz              343      0.233204  21 C  s         
   314      0.221635  19 C  px              376     -0.218228  23 C  s         
   225      0.208544  15 C  s               308      0.187507  19 C  s         
   144      0.172608   9 C  px              139     -0.151680   9 C  s         

 Vector   29  Occ=2.000000D+00  E=-8.948659D-01
              MO Center=  8.3D-01, -1.5D+00, -4.3D-01, r^2= 7.1D+00
   Bfn.  Coefficient  Atom+Function         Bfn.  Coefficient  Atom+Function  
  ----- ------------  ---------------      ----- ------------  ---------------
   144      0.272219   9 C  px              145     -0.249138   9 C  py        
   172      0.242576  11 C  s               309     -0.204681  19 C  s         
   225      0.195567  15 C  s               139     -0.192454   9 C  s         
   138     -0.164545   9 C  s               231     -0.162456  15 C  py        

 Vector   30  Occ=2.000000D+00  E=-8.740342D-01
              MO Center= -1.2D+00,  2.6D+00,  4.4D-01, r^2= 6.5D+00
   Bfn.  Coefficient  Atom+Function         Bfn.  Coefficient  Atom+Function  
  ----- ------------  ---------------      ----- ------------  ---------------
   378      0.263183  23 C  s               471      0.207804  30 C  s         
   376      0.203616  23 C  s               472      0.182137  30 C  s         
   428     -0.164860  27 C  s         

 Vector   31  Occ=2.000000D+00  E=-8.380451D-01
              MO Center=  4.5D-01,  2.6D+00, -2.4D-01, r^2= 7.2D+00
   Bfn.  Coefficient  Atom+Function         Bfn.  Coefficient  Atom+Function  
  ----- ------------  ---------------      ----- ------------  ---------------
   309      0.309672  19 C  s               577     -0.242763  36 N  py        
   523      0.213939  34 C  s               530      0.214127  34 C  py        
   315      0.206351  19 C  py              597     -0.174156  37 H  s         
   377      0.171718  23 C  s               574     -0.158315  36 N  s         
   549     -0.155471  35 O  s               333     -0.154523  20 H  s         

 Vector   32  Occ=2.000000D+00  E=-8.186614D-01
              MO Center= -9.2D-02,  4.9D-01, -5.3D-02, r^2= 8.0D+00
   Bfn.  Coefficient  Atom+Function         Bfn.  Coefficient  Atom+Function  
  ----- ------------  ---------------      ----- ------------  ---------------
   429     -0.295291  27 C  s               343      0.291001  21 C  s         
   275     -0.258542  17 N  s               225      0.221645  15 C  s         
   298     -0.213066  18 H  s               277     -0.190197  17 N  px        
   377     -0.188528  23 C  s               333      0.166801  20 H  s         
   278     -0.162232  17 N  py              224      0.158052  15 C  s         

 Vector   33  Occ=2.000000D+00  E=-7.870780D-01
              MO Center=  6.8D-02, -1.8D+00, -2.4D-01, r^2= 9.6D+00
   Bfn.  Coefficient  Atom+Function         Bfn.  Coefficient  Atom+Function  
  ----- ------------  ---------------      ----- ------------  ---------------
   128      0.271403   8 H  s               139     -0.269767   9 C  s         
   105      0.236252   7 N  s               109     -0.235262   7 N  pz        
    55     -0.204092   5 C  s               144      0.189886   9 C  px        
   108      0.171066   7 N  py               54     -0.164955   5 C  s         
   225      0.160552  15 C  s                80      0.158163   6 O  s         

 Vector   34  Occ=2.000000D+00  E=-7.793502D-01
              MO Center=  3.4D-01,  1.5D+00, -1.9D-01, r^2= 8.4D+00
   Bfn.  Coefficient  Atom+Function         Bfn.  Coefficient  Atom+Function  
  ----- ------------  ---------------      ----- ------------  ---------------
   225      0.289520  15 C  s               606      0.216681  38 H  s         
   314      0.176966  19 C  px              576     -0.173961  36 N  px        
   578     -0.164154  36 N  pz              298     -0.158243  18 H  s         
   524     -0.150875  34 C  s         

 Vector   35  Occ=2.000000D+00  E=-7.582320D-01
              MO Center=  3.3D-01,  1.3D+00, -1.6D-01, r^2= 8.7D+00
   Bfn.  Coefficient  Atom+Function         Bfn.  Coefficient  Atom+Function  
  ----- ------------  ---------------      ----- ------------  ---------------
   429      0.244153  27 C  s               576      0.212679  36 N  px        
   225      0.183450  15 C  s               298     -0.179193  18 H  s         
   606     -0.177313  38 H  s               315     -0.169420  19 C  py        
   277     -0.162349  17 N  px              597      0.161737  37 H  s         

 Vector   36  Occ=2.000000D+00  E=-7.242158D-01
              MO Center=  5.3D-01,  3.4D-01, -4.2D-01, r^2= 1.4D+01
   Bfn.  Coefficient  Atom+Function         Bfn.  Coefficient  Atom+Function  
  ----- ------------  ---------------      ----- ------------  ---------------
   597      0.247921  37 H  s               576      0.227817  36 N  px        
   145      0.204567   9 C  py              142      0.190793   9 C  py        
   228     -0.180905  15 C  py              577      0.170879  36 N  py        

 Vector   37  Occ=2.000000D+00  E=-6.815869D-01
              MO Center=  4.8D-01,  7.7D-01, -1.3D-02, r^2= 1.0D+01
   Bfn.  Coefficient  Atom+Function         Bfn.  Coefficient  Atom+Function  
  ----- ------------  ---------------      ----- ------------  ---------------
   551      0.228826  35 O  px              313     -0.194292  19 C  pz        
   332      0.189144  20 H  s               528     -0.172605  34 C  pz        
   549      0.158296  35 O  s         

 Vector   38  Occ=2.000000D+00  E=-6.753038D-01
              MO Center= -2.2D-01, -1.5D-01, -7.3D-03, r^2= 1.1D+01
   Bfn.  Coefficient  Atom+Function         Bfn.  Coefficient  Atom+Function  
  ----- ------------  ---------------      ----- ------------  ---------------
   343      0.212281  21 C  s               252      0.165660  16 O  px        

 Vector   39  Occ=2.000000D+00  E=-6.653026D-01
              MO Center=  4.6D-02,  8.8D-01,  3.2D-01, r^2= 1.3D+01
   Bfn.  Coefficient  Atom+Function         Bfn.  Coefficient  Atom+Function  
  ----- ------------  ---------------      ----- ------------  ---------------
   343      0.271748  21 C  s               527     -0.184533  34 C  py        
   314      0.170523  19 C  px              345     -0.153329  21 C  px        

 Vector   40  Occ=2.000000D+00  E=-6.538882D-01
              MO Center=  1.2D-01, -5.8D-01, -9.4D-02, r^2= 1.0D+01
   Bfn.  Coefficient  Atom+Function         Bfn.  Coefficient  Atom+Function  
  ----- ------------  ---------------      ----- ------------  ---------------
   277      0.186443  17 N  px              107      0.169949   7 N  px        
   162     -0.166466  10 H  s               143     -0.162593   9 C  pz        

 Vector   41  Occ=2.000000D+00  E=-6.511532D-01
              MO Center=  4.1D-03, -1.7D+00, -7.2D-02, r^2= 1.1D+01
   Bfn.  Coefficient  Atom+Function         Bfn.  Coefficient  Atom+Function  
  ----- ------------  ---------------      ----- ------------  ---------------
    58      0.197622   5 C  py              250     -0.169356  16 O  s         
   252      0.158034  16 O  px               13      0.156316   2 C  s         
    82      0.152505   6 O  px        

 Vector   42  Occ=2.000000D+00  E=-6.250294D-01
              MO Center= -9.9D-02, -3.2D+00, -1.1D-01, r^2= 7.8D+00
   Bfn.  Coefficient  Atom+Function         Bfn.  Coefficient  Atom+Function  
  ----- ------------  ---------------      ----- ------------  ---------------
   139      0.533169   9 C  s               173     -0.387177  11 C  s         
   225     -0.256059  15 C  s                59     -0.212297   5 C  pz        
   145      0.186770   9 C  py               82      0.180426   6 O  px        
    16     -0.177860   2 C  pz              108     -0.160493   7 N  py        
   231      0.160624  15 C  py                1      0.155941   1 H  s         

 Vector   43  Occ=2.000000D+00  E=-6.153862D-01
              MO Center= -2.5D-01,  2.5D+00, -1.4D-01, r^2= 8.2D+00
   Bfn.  Coefficient  Atom+Function         Bfn.  Coefficient  Atom+Function  
  ----- ------------  ---------------      ----- ------------  ---------------
   315      0.273340  19 C  py              526     -0.233473  34 C  px        
   524     -0.231627  34 C  s               553      0.222539  35 O  pz        
   474     -0.214383  30 C  px              309      0.209736  19 C  s         
   495     -0.192630  31 H  s               333     -0.186736  20 H  s         
   496     -0.175171  31 H  s               431     -0.164562  27 C  px        

 Vector   44  Occ=2.000000D+00  E=-6.084006D-01
              MO Center= -1.5D-01, -5.2D-01, -3.0D-01, r^2= 1.1D+01
   Bfn.  Coefficient  Atom+Function         Bfn.  Coefficient  Atom+Function  
  ----- ------------  ---------------      ----- ------------  ---------------
   252     -0.194594  16 O  px              227      0.179760  15 C  px        
   254     -0.177722  16 O  pz              343     -0.174032  21 C  s         
   250      0.160647  16 O  s               309      0.160086  19 C  s         

 Vector   45  Occ=2.000000D+00  E=-6.049943D-01
              MO Center= -2.9D-01, -4.7D-01,  1.6D-01, r^2= 1.3D+01
   Bfn.  Coefficient  Atom+Function         Bfn.  Coefficient  Atom+Function  
  ----- ------------  ---------------      ----- ------------  ---------------
   309      0.345666  19 C  s               343     -0.216983  21 C  s         
   279      0.162934  17 N  pz        

 Vector   46  Occ=2.000000D+00  E=-5.919726D-01
              MO Center= -6.5D-01,  2.7D+00, -8.7D-02, r^2= 8.8D+00
   Bfn.  Coefficient  Atom+Function         Bfn.  Coefficient  Atom+Function  
  ----- ------------  ---------------      ----- ------------  ---------------
   475      0.255541  30 C  py              513      0.199705  33 H  s         
   504     -0.169228  32 H  s               505     -0.159647  32 H  s         
   528     -0.152573  34 C  pz        

 Vector   47  Occ=2.000000D+00  E=-5.835862D-01
              MO Center= -1.6D-01, -1.6D+00,  2.5D-01, r^2= 1.4D+01
   Bfn.  Coefficient  Atom+Function         Bfn.  Coefficient  Atom+Function  
  ----- ------------  ---------------      ----- ------------  ---------------
   309      0.211362  19 C  s               380     -0.170972  23 C  py        
    57     -0.167793   5 C  px                1     -0.166629   1 H  s         
    84      0.164509   6 O  pz               15      0.161579   2 C  py        
   418      0.155535  26 H  s               214     -0.150640  14 H  s         

 Vector   48  Occ=2.000000D+00  E=-5.757048D-01
              MO Center=  4.5D-01, -8.0D-01, -1.8D-01, r^2= 1.2D+01
   Bfn.  Coefficient  Atom+Function         Bfn.  Coefficient  Atom+Function  
  ----- ------------  ---------------      ----- ------------  ---------------
   252      0.175059  16 O  px              215      0.159671  14 H  s         
   229     -0.159403  15 C  pz              177      0.158040  11 C  pz        
   205     -0.158674  13 H  s               214      0.152853  14 H  s         

 Vector   49  Occ=2.000000D+00  E=-5.692086D-01
              MO Center=  1.7D-01,  1.9D+00,  4.9D-01, r^2= 1.0D+01
   Bfn.  Coefficient  Atom+Function         Bfn.  Coefficient  Atom+Function  
  ----- ------------  ---------------      ----- ------------  ---------------
   379      0.217720  23 C  px              410     -0.208081  25 H  s         
   409     -0.196388  25 H  s               462      0.162679  29 H  s         
   578     -0.163311  36 N  pz        

 Vector   50  Occ=2.000000D+00  E=-5.645042D-01
              MO Center= -2.6D-01,  1.8D+00, -4.0D-02, r^2= 1.1D+01
   Bfn.  Coefficient  Atom+Function         Bfn.  Coefficient  Atom+Function  
  ----- ------------  ---------------      ----- ------------  ---------------
   333      0.298919  20 H  s               311     -0.186873  19 C  px        
   526      0.183754  34 C  px              513      0.180017  33 H  s         
   474     -0.176031  30 C  px              553     -0.161813  35 O  pz        
   284     -0.160474  17 N  py              332      0.155143  20 H  s         
   377      0.155097  23 C  s         

 Vector   51  Occ=2.000000D+00  E=-5.611043D-01
              MO Center= -3.5D-01, -4.3D+00,  9.5D-02, r^2= 6.6D+00
   Bfn.  Coefficient  Atom+Function         Bfn.  Coefficient  Atom+Function  
  ----- ------------  ---------------      ----- ------------  ---------------
    36      0.263288   3 H  s                35      0.237294   3 H  s         
    44     -0.213035   4 H  s                84      0.198734   6 O  pz        
    14      0.192580   2 C  px               15     -0.185584   2 C  py        
   197     -0.155311  12 H  s         

 Vector   52  Occ=2.000000D+00  E=-5.440539D-01
              MO Center= -2.8D-01, -3.4D+00, -2.3D-01, r^2= 8.9D+00
   Bfn.  Coefficient  Atom+Function         Bfn.  Coefficient  Atom+Function  
  ----- ------------  ---------------      ----- ------------  ---------------
    35      0.238407   3 H  s                16      0.233628   2 C  pz        
   163     -0.217077  10 H  s               197      0.193405  12 H  s         
     1     -0.185609   1 H  s               108     -0.176834   7 N  py        
   139      0.171570   9 C  s                36      0.167057   3 H  s         
    15     -0.158664   2 C  py        

 Vector   53  Occ=2.000000D+00  E=-5.387528D-01
              MO Center=  5.7D-01, -1.2D+00, -3.2D-01, r^2= 7.6D+00
   Bfn.  Coefficient  Atom+Function         Bfn.  Coefficient  Atom+Function  
  ----- ------------  ---------------      ----- ------------  ---------------
   196     -0.257136  12 H  s               176      0.242055  11 C  py        
   254      0.217928  16 O  pz              197     -0.211048  12 H  s         
   343     -0.202771  21 C  s               309      0.186773  19 C  s         
   279      0.173884  17 N  pz              419     -0.171729  26 H  s         
   227     -0.170182  15 C  px              215      0.159933  14 H  s         

 Vector   54  Occ=2.000000D+00  E=-5.244625D-01
              MO Center= -7.8D-01,  1.6D+00,  2.4D-01, r^2= 1.1D+01
   Bfn.  Coefficient  Atom+Function         Bfn.  Coefficient  Atom+Function  
  ----- ------------  ---------------      ----- ------------  ---------------
   433      0.211911  27 C  pz              419      0.202175  26 H  s         
   476     -0.192085  30 C  pz              380     -0.174969  23 C  py        
   514     -0.166457  33 H  s         

 Vector   55  Occ=2.000000D+00  E=-5.237455D-01
              MO Center=  3.4D-01, -1.3D+00, -2.7D-01, r^2= 1.2D+01
   Bfn.  Coefficient  Atom+Function         Bfn.  Coefficient  Atom+Function  
  ----- ------------  ---------------      ----- ------------  ---------------
   163      0.277860  10 H  s               206      0.234437  13 H  s         
   205      0.206737  13 H  s               214     -0.206268  14 H  s         
   215     -0.194474  14 H  s               177     -0.180806  11 C  pz        
   107     -0.172760   7 N  px              162      0.169456  10 H  s         

 Vector   56  Occ=2.000000D+00  E=-5.161419D-01
              MO Center= -1.1D+00,  2.5D+00,  6.6D-01, r^2= 6.7D+00
   Bfn.  Coefficient  Atom+Function         Bfn.  Coefficient  Atom+Function  
  ----- ------------  ---------------      ----- ------------  ---------------
   410      0.323377  25 H  s               496     -0.267264  31 H  s         
   379     -0.231512  23 C  px              462      0.225188  29 H  s         
   409      0.216364  25 H  s               378     -0.204631  23 C  s         
   495     -0.196018  31 H  s               453     -0.194400  28 H  s         
   400     -0.184388  24 H  s               474     -0.184399  30 C  px        

 Vector   57  Occ=2.000000D+00  E=-4.987544D-01
              MO Center= -4.4D-01, -9.0D-01,  2.2D-01, r^2= 1.6D+01
   Bfn.  Coefficient  Atom+Function         Bfn.  Coefficient  Atom+Function  
  ----- ------------  ---------------      ----- ------------  ---------------
   462     -0.222244  29 H  s               453      0.206459  28 H  s         
    84      0.175975   6 O  pz              452      0.163048  28 H  s         
   431     -0.160477  27 C  px               82     -0.157003   6 O  px        
   343     -0.157655  21 C  s               315      0.155709  19 C  py        
   496      0.151689  31 H  s         

 Vector   58  Occ=2.000000D+00  E=-4.937482D-01
              MO Center= -4.7D-01,  2.8D-01,  2.2D-01, r^2= 1.4D+01
   Bfn.  Coefficient  Atom+Function         Bfn.  Coefficient  Atom+Function  
  ----- ------------  ---------------      ----- ------------  ---------------
   462      0.220765  29 H  s               453     -0.192707  28 H  s         
   461      0.189054  29 H  s               367      0.171947  22 H  s         
   366      0.169605  22 H  s               431      0.163044  27 C  px        

 Vector   59  Occ=2.000000D+00  E=-4.804183D-01
              MO Center= -7.8D-01,  1.8D+00,  3.1D-01, r^2= 7.1D+00
   Bfn.  Coefficient  Atom+Function         Bfn.  Coefficient  Atom+Function  
  ----- ------------  ---------------      ----- ------------  ---------------
   333      0.242651  20 H  s               472      0.221127  30 C  s         
   346      0.215815  21 C  py              384     -0.201419  23 C  pz        
   432     -0.193027  27 C  py              314      0.191000  19 C  px        
   524     -0.178330  34 C  s               377      0.166528  23 C  s         
   419      0.167351  26 H  s               479      0.163215  30 C  pz        

 Vector   60  Occ=2.000000D+00  E=-4.641611D-01
              MO Center= -1.2D+00,  2.6D+00,  6.4D-01, r^2= 4.2D+00
   Bfn.  Coefficient  Atom+Function         Bfn.  Coefficient  Atom+Function  
  ----- ------------  ---------------      ----- ------------  ---------------
   347      0.233813  21 C  pz              381     -0.223822  23 C  pz        
   432      0.210597  27 C  py              514     -0.205584  33 H  s         
   472      0.203767  30 C  s               346     -0.199055  21 C  py        
   418     -0.192008  26 H  s               433     -0.192503  27 C  pz        
   476      0.192822  30 C  pz              419     -0.190847  26 H  s         

 Vector   61  Occ=2.000000D+00  E=-4.383467D-01
              MO Center=  1.3D+00,  2.3D+00,  3.5D-01, r^2= 3.7D+00
   Bfn.  Coefficient  Atom+Function         Bfn.  Coefficient  Atom+Function  
  ----- ------------  ---------------      ----- ------------  ---------------
   552      0.364742  35 O  py              309     -0.315055  19 C  s         
   555      0.302291  35 O  py              524      0.290082  34 C  s         
   551      0.280849  35 O  px              377     -0.230750  23 C  s         
   530     -0.225144  34 C  py              554      0.217257  35 O  px        
   139      0.207936   9 C  s               367      0.181370  22 H  s         

 Vector   62  Occ=2.000000D+00  E=-4.330837D-01
              MO Center=  4.4D-02, -5.0D-02, -6.8D-01, r^2= 6.6D+00
   Bfn.  Coefficient  Atom+Function         Bfn.  Coefficient  Atom+Function  
  ----- ------------  ---------------      ----- ------------  ---------------
   253      0.453920  16 O  py              256      0.369205  16 O  py        
   275     -0.185654  17 N  s               309     -0.163955  19 C  s         
   142      0.159248   9 C  py              315     -0.153631  19 C  py        

 Vector   63  Occ=2.000000D+00  E=-4.295927D-01
              MO Center=  1.2D+00,  2.3D+00, -2.5D-01, r^2= 6.0D+00
   Bfn.  Coefficient  Atom+Function         Bfn.  Coefficient  Atom+Function  
  ----- ------------  ---------------      ----- ------------  ---------------
   578     -0.295567  36 N  pz              581     -0.273281  36 N  pz        
   552      0.270334  35 O  py              553      0.240021  35 O  pz        
   253      0.230791  16 O  py              555      0.219922  35 O  py        
   309     -0.210043  19 C  s               256      0.189403  16 O  py        
   556      0.187920  35 O  pz              524      0.176610  34 C  s         

 Vector   64  Occ=2.000000D+00  E=-4.128107D-01
              MO Center=  1.1D-01, -4.5D+00,  7.8D-01, r^2= 2.3D+00
   Bfn.  Coefficient  Atom+Function         Bfn.  Coefficient  Atom+Function  
  ----- ------------  ---------------      ----- ------------  ---------------
    83      0.469229   6 O  py               86      0.374922   6 O  py        
    13     -0.353511   2 C  s                82      0.285171   6 O  px        
   105     -0.241424   7 N  s                85      0.219498   6 O  px        
    17      0.199445   2 C  px               64     -0.195380   5 C  py        
   145     -0.186617   9 C  py               14      0.174537   2 C  px        

 Vector   65  Occ=2.000000D+00  E=-4.025429D-01
              MO Center=  4.3D-02, -3.1D-02, -2.1D-01, r^2= 5.7D+00
   Bfn.  Coefficient  Atom+Function         Bfn.  Coefficient  Atom+Function  
  ----- ------------  ---------------      ----- ------------  ---------------
   279      0.314433  17 N  pz              282      0.292901  17 N  pz        
   254     -0.238323  16 O  pz              277     -0.229456  17 N  px        
   280     -0.198375  17 N  px              257     -0.185463  16 O  pz        
   252      0.178335  16 O  px              317      0.151564  19 C  px        

 Vector   66  Occ=2.000000D+00  E=-3.870486D-01
              MO Center=  1.6D-01, -2.9D+00,  5.4D-02, r^2= 4.8D+00
   Bfn.  Coefficient  Atom+Function         Bfn.  Coefficient  Atom+Function  
  ----- ------------  ---------------      ----- ------------  ---------------
   109      0.287288   7 N  pz              139     -0.263386   9 C  s         
   107     -0.259972   7 N  px              112      0.258172   7 N  pz        
   110     -0.247813   7 N  px               84     -0.215219   6 O  pz        
    82      0.200240   6 O  px               87     -0.166118   6 O  pz        
   174     -0.160032  11 C  s                85      0.155446   6 O  px        

 Vector   67  Occ=0.000000D+00  E= 2.462360D-02
              MO Center=  1.4D-01,  5.5D+00, -1.7D+00, r^2= 1.9D+01
   Bfn.  Coefficient  Atom+Function         Bfn.  Coefficient  Atom+Function  
  ----- ------------  ---------------      ----- ------------  ---------------
   378      3.760283  23 C  s               575     -2.649772  36 N  s         
   533      2.436403  34 C  py              515     -1.911781  33 H  s         
   599     -1.876123  37 H  s               310      1.509243  19 C  s         
   353     -1.439904  21 C  pz              318      1.387443  19 C  py        
   608     -1.274880  38 H  s               525      1.232645  34 C  s         

 Vector   68  Occ=0.000000D+00  E= 3.604957D-02
              MO Center= -2.5D+00,  2.5D-01,  2.7D-01, r^2= 4.0D+01
   Bfn.  Coefficient  Atom+Function         Bfn.  Coefficient  Atom+Function  
  ----- ------------  ---------------      ----- ------------  ---------------
   378      2.979699  23 C  s               174      2.531094  11 C  s         
   148     -2.243175   9 C  py              575      1.931603  36 N  s         
    64     -1.862048   5 C  py               12      1.771042   2 C  s         
   147     -1.716928   9 C  px               46     -1.682797   4 H  s         
   318     -1.549971  19 C  py              106     -1.522603   7 N  s         

 Vector   69  Occ=0.000000D+00  E= 3.791704D-02
              MO Center= -1.0D+00, -1.9D-01, -1.4D+00, r^2= 4.8D+01
   Bfn.  Coefficient  Atom+Function         Bfn.  Coefficient  Atom+Function  
  ----- ------------  ---------------      ----- ------------  ---------------
   430     -4.517768  27 C  s               378      4.166964  23 C  s         
   148      3.510358   9 C  py              352      3.305695  21 C  py        
   351     -2.605642  21 C  px              515     -2.380761  33 H  s         
   106      2.263271   7 N  s               334      2.209753  20 H  s         
   319      2.182154  19 C  pz              353     -2.124144  21 C  pz        

 Vector   70  Occ=0.000000D+00  E= 4.266682D-02
              MO Center= -9.8D-01,  3.4D+00,  7.7D-01, r^2= 3.3D+01
   Bfn.  Coefficient  Atom+Function         Bfn.  Coefficient  Atom+Function  
  ----- ------------  ---------------      ----- ------------  ---------------
   353      3.024108  21 C  pz              378     -2.699359  23 C  s         
   515      2.409372  33 H  s               439      2.150893  27 C  pz        
   387      2.135494  23 C  pz              352     -2.042071  21 C  py        
   473      1.935066  30 C  s               411     -1.730677  25 H  s         
   575     -1.651287  36 N  s               497      1.623930  31 H  s         

 Vector   71  Occ=0.000000D+00  E= 4.835557D-02
              MO Center=  7.7D-02, -1.7D+00, -7.8D-01, r^2= 4.6D+01
   Bfn.  Coefficient  Atom+Function         Bfn.  Coefficient  Atom+Function  
  ----- ------------  ---------------      ----- ------------  ---------------
    64      3.337822   5 C  py              473      2.755326  30 C  s         
   463      2.399772  29 H  s               147      2.250380   9 C  px        
    12     -2.172518   2 C  s                63      2.065167   5 C  px        
   148      1.956148   9 C  py              216     -1.889681  14 H  s         
   334     -1.859147  20 H  s               353      1.693285  21 C  pz        

 Vector   72  Occ=0.000000D+00  E= 4.989586D-02
              MO Center= -9.1D-01, -3.3D-01, -9.1D-01, r^2= 4.5D+01
   Bfn.  Coefficient  Atom+Function         Bfn.  Coefficient  Atom+Function  
  ----- ------------  ---------------      ----- ------------  ---------------
   515      2.259877  33 H  s                 3      2.052893   1 H  s         
   463      2.060993  29 H  s                46     -1.999395   4 H  s         
   173     -1.986157  11 C  s               233     -1.894711  15 C  px        
   368     -1.762897  22 H  s               198      1.733345  12 H  s         
   149      1.700432   9 C  pz              206      1.502820  13 H  s         

 Vector   73  Occ=0.000000D+00  E= 5.631143D-02
              MO Center=  6.0D-02, -1.1D+00,  2.8D-01, r^2= 4.5D+01
   Bfn.  Coefficient  Atom+Function         Bfn.  Coefficient  Atom+Function  
  ----- ------------  ---------------      ----- ------------  ---------------
   334      3.269520  20 H  s                37     -2.588979   3 H  s         
   515     -2.280085  33 H  s               420     -2.221189  26 H  s         
   276     -1.915158  17 N  s               174      1.865937  11 C  s         
   198     -1.847113  12 H  s               130      1.825296   8 H  s         
   454      1.816058  28 H  s               207      1.736432  13 H  s         

 Vector   74  Occ=0.000000D+00  E= 5.939281D-02
              MO Center=  4.7D-02,  1.6D+00, -1.7D-02, r^2= 4.2D+01
   Bfn.  Coefficient  Atom+Function         Bfn.  Coefficient  Atom+Function  
  ----- ------------  ---------------      ----- ------------  ---------------
   353      4.429045  21 C  pz              378     -3.742835  23 C  s         
   497     -3.206594  31 H  s               411     -3.015784  25 H  s         
   351      2.465075  21 C  px              216      2.376755  14 H  s         
    13     -2.337435   2 C  s               368      2.230290  22 H  s         
   387      2.213346  23 C  pz              473      2.212288  30 C  s         

 Vector   75  Occ=0.000000D+00  E= 6.286839D-02
              MO Center= -1.2D+00,  1.0D+00,  7.0D-01, r^2= 4.4D+01
   Bfn.  Coefficient  Atom+Function         Bfn.  Coefficient  Atom+Function  
  ----- ------------  ---------------      ----- ------------  ---------------
   454      4.298213  28 H  s                56      3.842713   5 C  s         
   608      3.224722  38 H  s               378      3.127113  23 C  s         
   463     -2.817412  29 H  s               506     -2.778774  32 H  s         
    37      2.611363   3 H  s               402     -2.530354  24 H  s         
   106     -2.219320   7 N  s               439     -2.144948  27 C  pz        

 Vector   76  Occ=0.000000D+00  E= 6.686404D-02
              MO Center= -1.4D+00,  1.3D-01, -4.7D-01, r^2= 5.0D+01
   Bfn.  Coefficient  Atom+Function         Bfn.  Coefficient  Atom+Function  
  ----- ------------  ---------------      ----- ------------  ---------------
   463      4.435863  29 H  s                46      2.876408   4 H  s         
   506     -2.824040  32 H  s               497     -2.717002  31 H  s         
   437     -2.690438  27 C  px              368      2.666048  22 H  s         
   106      2.533189   7 N  s               454     -2.541326  28 H  s         
   402     -2.438118  24 H  s               608      2.268968  38 H  s         

 Vector   77  Occ=0.000000D+00  E= 6.852905D-02
              MO Center= -4.4D-01, -1.0D+00, -1.6D-01, r^2= 4.9D+01
   Bfn.  Coefficient  Atom+Function         Bfn.  Coefficient  Atom+Function  
  ----- ------------  ---------------      ----- ------------  ---------------
   334      5.890603  20 H  s               319      3.599873  19 C  pz        
   402      3.128222  24 H  s                37      2.888303   3 H  s         
    56      2.843422   5 C  s                 3     -2.822387   1 H  s         
   608     -2.766248  38 H  s               174     -2.674373  11 C  s         
    64      2.211519   5 C  py              106     -2.112212   7 N  s         

 Vector   78  Occ=0.000000D+00  E= 7.406942D-02
              MO Center=  3.7D-01,  1.2D-01, -4.3D-01, r^2= 4.9D+01
   Bfn.  Coefficient  Atom+Function         Bfn.  Coefficient  Atom+Function  
  ----- ------------  ---------------      ----- ------------  ---------------
   463      5.096484  29 H  s               198      4.761357  12 H  s         
   515     -4.357259  33 H  s               473     -3.395273  30 C  s         
   334     -2.803123  20 H  s               506      2.749578  32 H  s         
   454     -2.643254  28 H  s               216     -2.354951  14 H  s         
   481      2.353685  30 C  py              351      2.318957  21 C  px        

 Vector   79  Occ=0.000000D+00  E= 7.649163D-02
              MO Center=  2.0D-01, -1.6D+00, -6.8D-01, r^2= 4.5D+01
   Bfn.  Coefficient  Atom+Function         Bfn.  Coefficient  Atom+Function  
  ----- ------------  ---------------      ----- ------------  ---------------
    13      6.475239   2 C  s               207      4.789580  13 H  s         
   234      3.874235  15 C  py              216     -3.818459  14 H  s         
   378     -3.575518  23 C  s                37      3.515712   3 H  s         
   318      3.499084  19 C  py               64      3.356878   5 C  py        
   140     -2.882768   9 C  s               114      2.768391   7 N  py        

 Vector   80  Occ=0.000000D+00  E= 7.868581D-02
              MO Center= -4.8D-01,  1.3D+00,  8.4D-01, r^2= 4.2D+01
   Bfn.  Coefficient  Atom+Function         Bfn.  Coefficient  Atom+Function  
  ----- ------------  ---------------      ----- ------------  ---------------
   334      5.572907  20 H  s               411     -5.348906  25 H  s         
   454      4.737961  28 H  s               164      4.582160  10 H  s         
   149     -3.115711   9 C  pz              497     -3.126603  31 H  s         
   515     -2.919576  33 H  s               439     -2.450469  27 C  pz        
   463      2.273775  29 H  s               608      2.154601  38 H  s         

 Vector   81  Occ=0.000000D+00  E= 8.750838D-02
              MO Center=  1.8D-01,  2.4D-01,  3.3D-01, r^2= 4.9D+01
   Bfn.  Coefficient  Atom+Function         Bfn.  Coefficient  Atom+Function  
  ----- ------------  ---------------      ----- ------------  ---------------
   463      7.863866  29 H  s               454     -6.449385  28 H  s         
   216      5.555232  14 H  s               402     -5.389028  24 H  s         
   437     -4.189136  27 C  px              411      3.925858  25 H  s         
   351      3.634846  21 C  px              198     -3.575276  12 H  s         
   353      3.479645  21 C  pz              378     -3.175806  23 C  s         

 Vector   82  Occ=0.000000D+00  E= 8.969796D-02
              MO Center= -3.4D-01,  1.8D+00,  4.5D-02, r^2= 4.0D+01
   Bfn.  Coefficient  Atom+Function         Bfn.  Coefficient  Atom+Function  
  ----- ------------  ---------------      ----- ------------  ---------------
   608      7.362524  38 H  s               497     -6.028657  31 H  s         
   368      5.362480  22 H  s               402      5.142032  24 H  s         
   334     -4.428981  20 H  s               411     -4.405207  25 H  s         
   378     -3.985882  23 C  s               317     -3.486373  19 C  px        
   599     -3.189632  37 H  s               351      3.101535  21 C  px        

 Vector   83  Occ=0.000000D+00  E= 9.403251D-02
              MO Center= -1.4D+00,  1.5D+00, -3.9D-01, r^2= 3.7D+01
   Bfn.  Coefficient  Atom+Function         Bfn.  Coefficient  Atom+Function  
  ----- ------------  ---------------      ----- ------------  ---------------
   497     10.268236  31 H  s               368      9.317503  22 H  s         
   608     -6.708796  38 H  s               506     -6.492946  32 H  s         
   352      4.964851  21 C  py              378      4.571787  23 C  s         
   300      3.923404  18 H  s               473     -3.249661  30 C  s         
   130     -3.087952   8 H  s               430     -3.089161  27 C  s         

 Vector   84  Occ=0.000000D+00  E= 9.691361D-02
              MO Center= -1.1D+00, -5.3D-01, -6.6D-01, r^2= 4.5D+01
   Bfn.  Coefficient  Atom+Function         Bfn.  Coefficient  Atom+Function  
  ----- ------------  ---------------      ----- ------------  ---------------
   497     -5.830191  31 H  s                13      5.399153   2 C  s         
   515      5.267401  33 H  s                56     -5.233986   5 C  s         
   368      4.260861  22 H  s               130      4.188534   8 H  s         
   334      4.192025  20 H  s               174      4.151228  11 C  s         
   352      4.119154  21 C  py              402      4.048418  24 H  s         

 Vector   85  Occ=0.000000D+00  E= 9.839394D-02
              MO Center=  1.4D-01, -1.1D+00, -1.2D+00, r^2= 4.0D+01
   Bfn.  Coefficient  Atom+Function         Bfn.  Coefficient  Atom+Function  
  ----- ------------  ---------------      ----- ------------  ---------------
[...]
   352      7.812765  21 C  py              351     -7.758812  21 C  px        
    13      7.507815   2 C  s               164     -5.780083  10 H  s         
   197     -5.754321  12 H  s               163     -5.667086  10 H  s         

 Vector  175  Occ=0.000000D+00  E= 4.463210D-01
              MO Center= -1.2D+00, -1.1D+00,  3.1D-01, r^2= 2.6D+01
   Bfn.  Coefficient  Atom+Function         Bfn.  Coefficient  Atom+Function  
  ----- ------------  ---------------      ----- ------------  ---------------
   318     15.573298  19 C  py              575    -12.840843  36 N  s         
   352    -11.574937  21 C  py              473     10.253057  30 C  s         
    13      9.933921   2 C  s                56     -9.645125   5 C  s         
   378     -7.908596  23 C  s                45     -7.614595   4 H  s         
   505     -7.034078  32 H  s               174      6.430167  11 C  s         

 Vector  176  Occ=0.000000D+00  E= 4.493108D-01
              MO Center= -1.6D-01, -1.5D+00,  5.7D-02, r^2= 2.5D+01
   Bfn.  Coefficient  Atom+Function         Bfn.  Coefficient  Atom+Function  
  ----- ------------  ---------------      ----- ------------  ---------------
   148     18.502494   9 C  py              284     12.911846  17 N  py        
   430    -12.839506  27 C  s               352     11.502550  21 C  py        
   309     -7.797391  19 C  s               344     -7.310951  21 C  s         
   149     -7.240939   9 C  pz              378      7.094834  23 C  s         
    13      6.773574   2 C  s               233     -6.187513  15 C  px        

 Vector  177  Occ=0.000000D+00  E= 4.516920D-01
              MO Center= -7.2D-01, -8.3D-01, -1.5D-01, r^2= 2.4D+01
   Bfn.  Coefficient  Atom+Function         Bfn.  Coefficient  Atom+Function  
  ----- ------------  ---------------      ----- ------------  ---------------
   318     14.935228  19 C  py              352    -13.958418  21 C  py        
   378     -9.874211  23 C  s               473      8.118160  30 C  s         
   234      7.251950  15 C  py              575     -7.197914  36 N  s         
    13      7.087756   2 C  s               367     -6.458980  22 H  s         
   106      6.419186   7 N  s               114      5.701185   7 N  py        

 Vector  178  Occ=0.000000D+00  E= 4.578972D-01
              MO Center= -2.0D-01, -1.1D+00, -5.1D-02, r^2= 2.6D+01
   Bfn.  Coefficient  Atom+Function         Bfn.  Coefficient  Atom+Function  
  ----- ------------  ---------------      ----- ------------  ---------------
    56     14.717721   5 C  s               174    -12.975597  11 C  s         
    13    -11.820507   2 C  s               351      8.283779  21 C  px        
   430      8.169750  27 C  s                 2      7.094903   1 H  s         
    12     -6.170558   2 C  s               318     -5.681802  19 C  py        
   317     -5.485751  19 C  px              147      5.394302   9 C  px        

 Vector  179  Occ=0.000000D+00  E= 4.620790D-01
              MO Center=  3.0D-01,  4.3D-01,  2.2D-01, r^2= 2.1D+01
   Bfn.  Coefficient  Atom+Function         Bfn.  Coefficient  Atom+Function  
  ----- ------------  ---------------      ----- ------------  ---------------
    56     11.072053   5 C  s               174     -8.441357  11 C  s         
   352      8.306880  21 C  py              473     -7.337245  30 C  s         
   114      6.638814   7 N  py              215      5.992306  14 H  s         
   318     -5.000512  19 C  py              575      4.643947  36 N  s         
   206      4.593713  13 H  s               149      4.402729   9 C  pz        

 Vector  180  Occ=0.000000D+00  E= 4.651989D-01
              MO Center=  3.2D-01, -3.9D-01, -3.8D-01, r^2= 2.4D+01
   Bfn.  Coefficient  Atom+Function         Bfn.  Coefficient  Atom+Function  
  ----- ------------  ---------------      ----- ------------  ---------------
   174     12.216611  11 C  s               173     10.303688  11 C  s         
   430     10.261277  27 C  s               148    -10.006265   9 C  py        
   473     -9.949571  30 C  s               197     -9.293545  12 H  s         
    12     -8.473951   2 C  s               318     -7.985274  19 C  py        
   352      7.547503  21 C  py              317     -7.176198  19 C  px        

 Vector  181  Occ=0.000000D+00  E= 4.668972D-01
              MO Center= -3.0D-01,  6.8D-01, -3.6D-01, r^2= 2.6D+01
   Bfn.  Coefficient  Atom+Function         Bfn.  Coefficient  Atom+Function  
  ----- ------------  ---------------      ----- ------------  ---------------
   473     16.283177  30 C  s               148    -13.109398   9 C  py        
    56    -11.024699   5 C  s               378      9.827661  23 C  s         
   377      9.688994  23 C  s               284     -9.500300  17 N  py        
   496     -9.295677  31 H  s               472      9.153575  30 C  s         
   575     -7.558397  36 N  s               106     -7.497566   7 N  s         

 Vector  182  Occ=0.000000D+00  E= 4.677439D-01
              MO Center= -2.2D-01,  5.9D-01, -1.0D-01, r^2= 2.5D+01
   Bfn.  Coefficient  Atom+Function         Bfn.  Coefficient  Atom+Function  
  ----- ------------  ---------------      ----- ------------  ---------------
   575     10.369263  36 N  s               377     -8.876431  23 C  s         
   148      7.383021   9 C  py              378     -7.389013  23 C  s         
   310     -6.311141  19 C  s               525     -6.305877  34 C  s         
   276     -5.662819  17 N  s               401      5.568221  24 H  s         
   419      5.574918  26 H  s                12      4.831120   2 C  s         

 Vector  183  Occ=0.000000D+00  E= 4.747334D-01
              MO Center= -4.8D-02, -9.0D-01,  8.9D-02, r^2= 2.5D+01
   Bfn.  Coefficient  Atom+Function         Bfn.  Coefficient  Atom+Function  
  ----- ------------  ---------------      ----- ------------  ---------------
    13     17.298731   2 C  s                56    -14.796134   5 C  s         
   276     14.604641  17 N  s               318     12.546330  19 C  py        
   148    -12.189445   9 C  py              472    -10.699717  30 C  s         
   378    -10.133822  23 C  s                64      8.391775   5 C  py        
   430     -8.375884  27 C  s               235     -8.034906  15 C  pz        

 Vector  184  Occ=0.000000D+00  E= 4.762134D-01
              MO Center=  1.7D-02,  2.7D-01, -1.6D-01, r^2= 2.4D+01
   Bfn.  Coefficient  Atom+Function         Bfn.  Coefficient  Atom+Function  
  ----- ------------  ---------------      ----- ------------  ---------------
   473     11.736711  30 C  s               430    -10.219747  27 C  s         
   276      9.010257  17 N  s               378      7.780125  23 C  s         
   344     -6.608633  21 C  s               575      6.463889  36 N  s         
   234     -5.940008  15 C  py              437      5.959451  27 C  px        
   351     -5.817795  21 C  px              197      5.172654  12 H  s         

 Vector  185  Occ=0.000000D+00  E= 4.783928D-01
              MO Center= -4.6D-01,  1.1D+00, -3.5D-01, r^2= 2.4D+01
   Bfn.  Coefficient  Atom+Function         Bfn.  Coefficient  Atom+Function  
  ----- ------------  ---------------      ----- ------------  ---------------
   318    -11.445909  19 C  py              174     10.886649  11 C  s         
   352      9.397793  21 C  py              575      7.389390  36 N  s         
   429      7.194070  27 C  s                56     -6.508403   5 C  s         
   173      6.309342  11 C  s               234      5.840113  15 C  py        
   197     -5.421071  12 H  s               353      5.169252  21 C  pz        

 Vector  186  Occ=0.000000D+00  E= 4.842408D-01
              MO Center= -8.4D-01,  1.6D+00,  4.8D-01, r^2= 2.0D+01
   Bfn.  Coefficient  Atom+Function         Bfn.  Coefficient  Atom+Function  
  ----- ------------  ---------------      ----- ------------  ---------------
   378     19.730456  23 C  s               430    -13.610551  27 C  s         
   148    -13.233334   9 C  py              174     -9.848415  11 C  s         
   473      9.214546  30 C  s               284     -8.495530  17 N  py        
   377      8.223362  23 C  s               401     -7.599154  24 H  s         
   472      7.497908  30 C  s               353     -7.246472  21 C  pz        

 Vector  187  Occ=0.000000D+00  E= 4.879175D-01
              MO Center= -8.0D-01,  1.8D+00,  1.2D-02, r^2= 2.0D+01
   Bfn.  Coefficient  Atom+Function         Bfn.  Coefficient  Atom+Function  
  ----- ------------  ---------------      ----- ------------  ---------------
   473      9.677625  30 C  s               173     -6.420090  11 C  s         
   439      6.294862  27 C  pz              309      5.822147  19 C  s         
   234      5.460845  15 C  py              385      5.085287  23 C  px        
   206      4.964407  13 H  s               437      4.983701  27 C  px        
   284     -4.789229  17 N  py              233     -4.732689  15 C  px        

 Vector  188  Occ=0.000000D+00  E= 4.896259D-01
              MO Center=  8.0D-02, -7.3D-01, -1.8D-01, r^2= 2.3D+01
   Bfn.  Coefficient  Atom+Function         Bfn.  Coefficient  Atom+Function  
  ----- ------------  ---------------      ----- ------------  ---------------
   234     10.177620  15 C  py              317     -9.640312  19 C  px        
   378     -8.651553  23 C  s               148     -8.584607   9 C  py        
   283      6.952600  17 N  px              473     -6.679095  30 C  s         
   106      6.272657   7 N  s                56     -6.146664   5 C  s         
   351      5.801050  21 C  px              353      5.513851  21 C  pz        

 Vector  189  Occ=0.000000D+00  E= 4.926627D-01
              MO Center=  4.5D-01,  3.9D-01,  2.7D-01, r^2= 2.3D+01
   Bfn.  Coefficient  Atom+Function         Bfn.  Coefficient  Atom+Function  
  ----- ------------  ---------------      ----- ------------  ---------------
   174      6.978523  11 C  s               215     -5.851364  14 H  s         
   473      5.802067  30 C  s               173      5.696881  11 C  s         
   439      5.642691  27 C  pz              147     -5.135802   9 C  px        
   276     -5.031753  17 N  s               234     -4.565717  15 C  py        
   575      4.530576  36 N  s                56     -4.356587   5 C  s         

 Vector  190  Occ=0.000000D+00  E= 4.978645D-01
              MO Center= -1.4D-01,  1.1D-01,  8.7D-02, r^2= 2.3D+01
   Bfn.  Coefficient  Atom+Function         Bfn.  Coefficient  Atom+Function  
  ----- ------------  ---------------      ----- ------------  ---------------
   378     21.129593  23 C  s               473    -16.354266  30 C  s         
   377     11.038129  23 C  s               352      9.423254  21 C  py        
   401     -8.414949  24 H  s               234      7.595632  15 C  py        
   410     -7.393972  25 H  s               419     -7.267685  26 H  s         
   353     -7.191161  21 C  pz              439     -6.354420  27 C  pz        

 Vector  191  Occ=0.000000D+00  E= 5.051762D-01
              MO Center=  4.6D-01, -5.3D-01, -4.7D-01, r^2= 2.3D+01
   Bfn.  Coefficient  Atom+Function         Bfn.  Coefficient  Atom+Function  
  ----- ------------  ---------------      ----- ------------  ---------------
    56     12.637028   5 C  s               318    -11.899885  19 C  py        
   206     11.305509  13 H  s               173     -8.383503  11 C  s         
    13     -7.608896   2 C  s               319     -6.228122  19 C  pz        
   148     -5.970219   9 C  py              430      5.869221  27 C  s         
   575      5.527980  36 N  s               174     -5.165709  11 C  s         


 center of mass
 --------------
 x =   0.06332637 y =  -0.06309852 z =   0.00543273

 moments of inertia (a.u.)
 ------------------
        8792.989567383484          -0.000000000001           0.000000000001
          -0.000000000001        2166.153347894860           0.000000000001
           0.000000000001           0.000000000001        9534.952250636956

  Mulliken analysis of the total density
  --------------------------------------

    Atom       Charge   Shell Charges
 -----------   ------   -------------------------------------------------------
    1 H    1     0.87   0.76  0.13 -0.00  0.03 -0.06
    2 C    6     6.29   2.01  0.66  0.21  0.18  2.06  1.04 -0.02  0.06  0.09
    3 H    1     1.01   0.76  0.25  0.01  0.03 -0.05
    4 H    1     0.86   0.76  0.12  0.00  0.03 -0.06
    5 C    6     5.15   2.01  0.68  0.10 -0.06  1.90  0.31 -0.05  0.24  0.02
    6 O    8     8.70   2.01  0.82  0.99  0.15  2.79  1.82  0.13  0.01 -0.02
    7 N    7     7.60   2.01  0.72  0.86 -0.06  2.46  1.44  0.06  0.05  0.05
    8 H    1     1.00   0.75  0.22 -0.00  0.06 -0.03
    9 C    6     6.45   2.01  0.66  0.16  0.01  2.00  1.45 -0.11  0.14  0.14
   10 H    1     1.12   0.78  0.33 -0.01  0.03 -0.00
   11 C    6     5.56   2.01  0.67  0.18  0.16  2.04  0.45 -0.00  0.07 -0.01
   12 H    1     1.03   0.77  0.30  0.00  0.03 -0.06
   13 H    1     0.89   0.77  0.16  0.00  0.03 -0.08
   14 H    1     0.90   0.77  0.15  0.01  0.03 -0.07
   15 C    6     4.61   2.01  0.68 -0.02  0.03  1.88  0.10  0.01  0.23 -0.32
   16 O    8     8.87   2.01  0.82  1.03  0.18  2.79  1.87  0.17  0.01 -0.00
   17 N    7     7.70   2.01  0.72  0.91 -0.03  2.45  1.47  0.07  0.05  0.05
   18 H    1     0.97   0.75  0.21 -0.01  0.06 -0.04
   19 C    6     6.06   2.01  0.66  0.27 -0.02  2.00  1.17 -0.09  0.14 -0.06
   20 H    1     1.23   0.79  0.41 -0.02  0.03  0.02
   21 C    6     6.42   2.01  0.66 -0.04  0.05  2.01  1.27 -0.09  0.12  0.43
   22 H    1     1.14   0.79  0.36  0.02  0.03 -0.05
   23 C    6     5.65   2.01  0.66  0.25  0.26  2.04  0.49 -0.06  0.07 -0.07
   24 H    1     0.90   0.77  0.14  0.02  0.03 -0.06
   25 H    1     0.98   0.78  0.28 -0.00  0.03 -0.10
   26 H    1     0.99   0.78  0.23  0.04  0.03 -0.08
   27 C    6     6.15   2.01  0.66  0.56 -0.05  2.03  0.75 -0.09  0.10  0.19
   28 H    1     0.94   0.79  0.23  0.00  0.03 -0.11
   29 H    1     0.85   0.79  0.17 -0.03  0.03 -0.11
   30 C    6     5.70   2.01  0.66  0.28  0.14  2.04  0.56  0.01  0.07 -0.06
   31 H    1     1.04   0.79  0.25  0.03  0.03 -0.06
   32 H    1     0.92   0.77  0.20 -0.00  0.03 -0.08
   33 H    1     1.01   0.78  0.28  0.00  0.03 -0.08
   34 C    6     4.48   2.01  0.68  0.05  0.09  1.89 -0.27 -0.00  0.24 -0.20
   35 O    8     8.83   2.01  0.82  1.05  0.16  2.79  1.87  0.13  0.01  0.00
   36 N    7     7.22   2.01  0.72  0.83 -0.14  2.47  1.24  0.08  0.04 -0.01
   37 H    1     0.98   0.75  0.21 -0.00  0.06 -0.03
   38 H    1     0.93   0.76  0.19 -0.02  0.05 -0.06

       Multipole analysis of the density wrt the origin
       ------------------------------------------------

     L   x y z        total         open         nuclear
     -   - - -        -----         ----         -------
     0   0 0 0      0.000000      0.000000    132.000000

     1   1 0 0     -0.844123      0.000000      0.000000
     1   0 1 0      1.816123      0.000000      0.000000
     1   0 0 1     -1.183348      0.000000     -0.000000

     2   2 0 0    -80.978734      0.000000    841.883237
     2   1 1 0      3.641626      0.000000    -39.335387
     2   1 0 1     -6.351149      0.000000     -9.670058
     2   0 2 0    -72.201816      0.000000   4490.581028
     2   0 1 1      2.840069      0.000000     18.078158
     2   0 0 2    -81.625998      0.000000    427.758660


 Task  times  cpu:     4900.5s     wall:     5267.3s


                                NWChem Input Module
                                -------------------


 Summary of allocated global arrays
-----------------------------------
  No active global arrays


MA_summarize_allocated_blocks: starting scan ...
MA_summarize_allocated_blocks: scan completed: 0 heap blocks, 0 stack blocks
MA usage statistics:

	allocation statistics:
					      heap	     stack
					      ----	     -----
	current number of blocks	         0	         0
	maximum number of blocks	        16	        14
	current total bytes		         0	         0
	maximum total bytes		    131240	  28332200
	maximum total K-bytes		       132	     28333
	maximum total M-bytes		         1	        29


                                     CITATION
                                     --------
                Please cite the following reference when publishing
                           results obtained with NWChem:

          E. Apra, E. J. Bylaska, W. A. de Jong, N. Govind, K. Kowalski,
       T. P. Straatsma, M. Valiev, H. J. J. van Dam, Y. Alexeev, J. Anchell,
       V. Anisimov, F. W. Aquino, R. Atta-Fynn, J. Autschbach, N. P. Bauman,
     J. C. Becca, D. E. Bernholdt, K. Bhaskaran-Nair, S. Bogatko, P. Borowski,
         J. Boschen, J. Brabec, A. Bruner, E. Cauet, Y. Chen, G. N. Chuev,
      C. J. Cramer, J. Daily, M. J. O. Deegan, T. H. Dunning Jr., M. Dupuis,
   K. G. Dyall, G. I. Fann, S. A. Fischer, A. Fonari, H. Fruchtl, L. Gagliardi,
      J. Garza, N. Gawande, S. Ghosh, K. Glaesemann, A. W. Gotz, J. Hammond,
       V. Helms, E. D. Hermes, K. Hirao, S. Hirata, M. Jacquelin, L. Jensen,
   B. G. Johnson, H. Jonsson, R. A. Kendall, M. Klemm, R. Kobayashi, V. Konkov,
      S. Krishnamoorthy, M. Krishnan, Z. Lin, R. D. Lins, R. J. Littlefield,
      A. J. Logsdail, K. Lopata, W. Ma, A. V. Marenich, J. Martin del Campo,
   D. Mejia-Rodriguez, J. E. Moore, J. M. Mullin, T. Nakajima, D. R. Nascimento,
    J. A. Nichols, P. J. Nichols, J. Nieplocha, A. Otero-de-la-Roza, B. Palmer,
    A. Panyala, T. Pirojsirikul, B. Peng, R. Peverati, J. Pittner, L. Pollack,
   R. M. Richard, P. Sadayappan, G. C. Schatz, W. A. Shelton, D. W. Silverstein,
   D. M. A. Smith, T. A. Soares, D. Song, M. Swart, H. L. Taylor, G. S. Thomas,
            V. Tipparaju, D. G. Truhlar, K. Tsemekhman, T. Van Voorhis,
      A. Vazquez-Mayagoitia, P. Verma, O. Villa, A. Vishnu, K. D. Vogiatzis,
        D. Wang, J. H. Weare, M. J. Williamson, T. L. Windus, K. Wolinski,
        A. T. Wong, Q. Wu, C. Yang, Q. Yu, M. Zacharias, Z. Zhang, Y. Zhao,
                                and R. J. Harrison
                        "NWChem: Past, present, and future
                         J. Chem. Phys. 152, 184102 (2020)
                               doi:10.1063/5.0004997

                                      AUTHORS
                                      -------
  E. Apra, E. J. Bylaska, N. Govind, K. Kowalski, M. Valiev, D. Mejia-Rodriguez,
       A. Kunitsa, N. P. Bauman, A. Panyala, W. A. de Jong, T. P. Straatsma,
   H. J. J. van Dam, D. Wang, T. L. Windus, J. Hammond, J. Autschbach, A. Woods,
    K. Bhaskaran-Nair, J. Brabec, K. Lopata, S. A. Fischer, S. Krishnamoorthy,
     M. Jacquelin, W. Ma, M. Klemm, O. Villa, Y. Chen, V. Anisimov, F. Aquino,
     S. Hirata, M. T. Hackler, E. Hermes, L. Jensen, J. E. Moore, J. C. Becca,
      V. Konjkov, T. Risthaus, M. Malagoli, A. Marenich, A. Otero-de-la-Roza,
        J. Mullin, P. Nichols, R. Peverati, J. Pittner, Y. Zhao, P.-D. Fan,
        A. Fonari, M. J. Williamson, R. J. Harrison, J. R. Rehr, M. Dupuis,
     D. Silverstein, D. M. A. Smith, J. Nieplocha, V. Tipparaju, M. Krishnan,
     B. E. Van Kuiken, A. Vazquez-Mayagoitia, M. Swart, Q. Wu, T. Van Voorhis,
     A. A. Auer, M. Nooijen, L. D. Crosby, E. Brown, G. Cisneros, G. I. Fann,
   H. Fruchtl, J. Garza, K. Hirao, R. A. Kendall, J. A. Nichols, K. Tsemekhman,
    K. Wolinski, J. Anchell, D. E. Bernholdt, P. Borowski, T. Clark, D. Clerc,
   H. Dachsel, M. J. O. Deegan, K. Dyall, D. Elwood, E. Glendening, M. Gutowski,
   A. C. Hess, J. Jaffe, B. G. Johnson, J. Ju, R. Kobayashi, R. Kutteh, Z. Lin,
   R. Littlefield, X. Long, B. Meng, T. Nakajima, S. Niu, L. Pollack, M. Rosing,
   K. Glaesemann, G. Sandrone, M. Stave, H. Taylor, G. Thomas, J. H. van Lenthe,
                               A. T. Wong, Z. Zhang.

 Total times  cpu:     4900.5s     wall:     5267.7s
