export TMOUT=5400
export TMPDIR=/tmp
export PTMPDIR=/tmp/ptmp
 argument  1 = ALA_TRP_2.nw
                                         
                                         


             Northwest Computational Chemistry Package (NWChem) 7.2.0
             --------------------------------------------------------


                    Environmental Molecular Sciences Laboratory
                       Pacific Northwest National Laboratory
                                Richland, WA 99352

                              Copyright (c) 1994-2022
                       Pacific Northwest National Laboratory
                            Battelle Memorial Institute

             NWChem is an open-source computational chemistry package
                        distributed under the terms of the
                      Educational Community License (ECL) 2.0
             A copy of the license is included with this distribution
                              in the LICENSE.TXT file

                                  ACKNOWLEDGMENT
                                  --------------

            This software and its documentation were developed at the
            EMSL at Pacific Northwest National Laboratory, a multiprogram
            national laboratory, operated for the U.S. Department of Energy
            by Battelle under Contract Number DE-AC05-76RL01830. Support
            for this work was provided by the Department of Energy Office
            of Biological and Environmental Research, Office of Basic
            Energy Sciences, and the Office of Advanced Scientific Computing.


           Job information
           ---------------

    hostname        = nova18-41
    program         = /opt/rit/el9/20230413/app/linux-rhel9-x86_64_v3/gcc-11.2.1/nwchem-7.2.0-oxtctbuhfuzyfaoziquq6bki22grib3g/bin/nwchem
    date            = Mon Jun 30 16:05:56 2025

    compiled        = Wed_May_17_23:46:39_2023
    source          = /tmp/root/spack-stage/spack-stage-nwchem-7.2.0-oxtctbuhfuzyfaoziquq6bki22grib3g/spack-src
    nwchem branch   = 7.2.0
    nwchem revision = d0d141fd
    ga revision     = 5.8.0
    use scalapack   = T
    input           = ALA_TRP_2.nw
    prefix          = ALA_TRP_2.
    data base       = ./ALA_TRP_2.db
    status          = startup
    nproc           =        8
    time left       =     -1s



           Memory information
           ------------------

    heap     =   26214398 doubles =    200.0 Mbytes
    stack    =   26214395 doubles =    200.0 Mbytes
    global   =   52428800 doubles =    400.0 Mbytes (distinct from heap & stack)
    total    =  104857593 doubles =    800.0 Mbytes
    verify   = yes
    hardfail = no 


           Directory information
           ---------------------

  0 permanent = .
  0 scratch   = .




                                NWChem Input Module
                                -------------------



 Scaling coordinates for geometry "geometry" by  1.889725989
 (inverse scale =  0.529177249)

 C1  symmetry detected

          ------
          auto-z
          ------
  no constraints, skipping    0.0000000000000000     
  no constraints, skipping    0.0000000000000000     


                             Geometry "geometry" -> ""
                             -------------------------

 Output coordinates in angstroms (scale by  1.889725989 to convert to a.u.)

  No.       Tag          Charge          X              Y              Z
 ---- ---------------- ---------- -------------- -------------- --------------
    1 H                    1.0000    -0.04368028    -6.35540416     0.74621100
    2 C                    6.0000    -0.48145929    -6.04169387    -0.20017654
    3 H                    1.0000    -1.36136853    -6.64779873    -0.41474038
    4 H                    1.0000     0.24418139    -6.15458955    -1.00194407
    5 C                    6.0000    -0.89885278    -4.59361955    -0.10151830
    6 O                    8.0000    -2.07085320    -4.27914492    -0.25775438
    7 N                    7.0000     0.06642814    -3.71192092     0.15184958
    8 H                    1.0000     1.01621766    -4.04428385     0.22686790
    9 C                    6.0000    -0.13593024    -2.26720996     0.25937314
   10 H                    1.0000    -0.94613966    -1.97399447    -0.41103151
   11 C                    6.0000    -0.55365408    -1.92507039     1.69745148
   12 H                    1.0000    -0.75141444    -0.85609453     1.78450574
   13 H                    1.0000    -1.46424533    -2.46838985     1.95482578
   14 H                    1.0000     0.23914296    -2.20194467     2.39360052
   15 C                    6.0000     1.12699407    -1.49368496    -0.16152738
   16 O                    8.0000     2.22507888    -2.04712875    -0.19888681
   17 N                    7.0000     0.97145656    -0.20048924    -0.44786793
   18 H                    1.0000     0.04824371     0.19324235    -0.33671277
   19 C                    6.0000     2.02008222     0.73161230    -0.89808672
   20 H                    1.0000     2.63222325     0.22259853    -1.64276406
   21 C                    6.0000     1.32744775     1.91919623    -1.59101307
   22 H                    1.0000     2.07825942     2.64153135    -1.91366273
   23 H                    1.0000     0.83654779     1.55072361    -2.49324594
   24 C                    6.0000     0.29363782     2.61694257    -0.75763196
   25 C                    6.0000     0.52152927     3.68500143     0.03744399
   26 H                    1.0000     1.48533333     4.17541282     0.14310568
   27 N                    7.0000    -0.63364719     4.01450630     0.71860688
   28 H                    1.0000    -0.69029457     4.77806937     1.37603484
   29 C                    6.0000    -1.66480619     3.15115490     0.41513453
   30 C                    6.0000    -2.98889093     3.04442997     0.86449674
   31 H                    1.0000    -3.37651073     3.73901971     1.59475970
   32 C                    6.0000    -3.80286190     2.01947359     0.35160330
   33 H                    1.0000    -4.82722709     1.92087237     0.68614740
   34 C                    6.0000    -3.28695348     1.12493984    -0.60324688
   35 H                    1.0000    -3.92174224     0.34394328    -1.00130417
   36 C                    6.0000    -1.95655709     1.24356674    -1.05026263
   37 H                    1.0000    -1.58352624     0.56096116    -1.79908745
   38 C                    6.0000    -1.10828370     2.25505401    -0.54555007
   39 C                    6.0000     2.99472662     1.17713104     0.21926521
   40 O                    8.0000     3.43511520     2.31988770     0.27481819
   41 N                    7.0000     3.34219392     0.29922176     1.14992721
   42 H                    1.0000     3.97488280     0.59391022     1.87497996
   43 H                    1.0000     3.03436137    -0.65926583     1.06589948

      Atomic Mass 
      ----------- 

      H                  1.007825
      C                 12.000000
      O                 15.994910
      N                 14.003070


 Effective nuclear repulsion energy (a.u.)    1949.2223626797

            Nuclear Dipole moment (a.u.) 
            ----------------------------
        X                 Y               Z
 ---------------- ---------------- ----------------
    -0.0000000000    -0.0000000000    -0.0000000000



                                Z-matrix (autoz)
                                -------- 

 Units are Angstrom for bonds and degrees for angles

      Type          Name      I     J     K     L     M      Value
      ----------- --------  ----- ----- ----- ----- ----- ----------
    1 Stretch                  1     2                       1.08890
    2 Stretch                  2     3                       1.08979
    3 Stretch                  2     4                       1.08726
    4 Stretch                  2     5                       1.51025
    5 Stretch                  5     6                       1.22347
    6 Stretch                  5     7                       1.33167
    7 Stretch                  7     8                       1.00906
    8 Stretch                  7     9                       1.46277
    9 Stretch                  9    10                       1.09172
   10 Stretch                  9    11                       1.53611
   11 Stretch                  9    15                       1.53964
   12 Stretch                 11    12                       1.09059
   13 Stretch                 11    13                       1.09115
   14 Stretch                 11    14                       1.09078
   15 Stretch                 15    16                       1.23024
   16 Stretch                 15    17                       1.33362
   17 Stretch                 17    18                       1.00980
   18 Stretch                 17    19                       1.47347
   19 Stretch                 19    20                       1.09012
   20 Stretch                 19    21                       1.53956
   21 Stretch                 19    39                       1.54819
   22 Stretch                 21    22                       1.09068
   23 Stretch                 21    23                       1.09123
   24 Stretch                 21    24                       1.50005
   25 Stretch                 24    25                       1.35086
   26 Stretch                 24    38                       1.46333
   27 Stretch                 25    26                       1.08655
   28 Stretch                 25    27                       1.38094
   29 Stretch                 27    28                       1.00918
   30 Stretch                 27    29                       1.37868
   31 Stretch                 29    30                       1.40233
   32 Stretch                 29    38                       1.42675
   33 Stretch                 30    31                       1.07981
   34 Stretch                 30    32                       1.40575
   35 Stretch                 32    33                       1.08211
   36 Stretch                 32    34                       1.40645
   37 Stretch                 34    35                       1.08229
   38 Stretch                 34    36                       1.40849
   39 Stretch                 36    37                       1.07974
   40 Stretch                 36    38                       1.41330
   41 Stretch                 39    40                       1.22594
   42 Stretch                 39    41                       1.32574
   43 Stretch                 41    42                       1.00640
   44 Stretch                 41    43                       1.01021
   45 Bend                     1     2     3               109.60268
   46 Bend                     1     2     4               110.03972
   47 Bend                     1     2     5               109.30347
   48 Bend                     2     5     6               120.18906
   49 Bend                     2     5     7               116.54718
   50 Bend                     3     2     4               109.62927
   51 Bend                     3     2     5               108.84343
   52 Bend                     4     2     5               109.40144
   53 Bend                     5     7     8               118.57781
   54 Bend                     5     7     9               124.58527
   55 Bend                     6     5     7               123.26288
   56 Bend                     7     9    10               108.83188
   57 Bend                     7     9    11               109.05145
   58 Bend                     7     9    15               111.26204
   59 Bend                     8     7     9               116.74769
   60 Bend                     9    11    12               110.02050
   61 Bend                     9    11    13               109.68529
   62 Bend                     9    11    14               110.07795
   63 Bend                     9    15    16               120.96039
   64 Bend                     9    15    17               116.75711
   65 Bend                    10     9    11               108.25554
   66 Bend                    10     9    15               107.81507
   67 Bend                    11     9    15               111.53638
   68 Bend                    12    11    13               108.53639
   69 Bend                    12    11    14               109.24754
   70 Bend                    13    11    14               109.24542
   71 Bend                    15    17    18               117.45708
   72 Bend                    15    17    19               126.58518
   73 Bend                    16    15    17               122.26332
   74 Bend                    17    19    20               108.23872
   75 Bend                    17    19    21               107.77699
   76 Bend                    17    19    39               114.17602
   77 Bend                    18    17    19               115.95247
   78 Bend                    19    21    22               109.53073
   79 Bend                    19    21    23               108.30331
   80 Bend                    19    21    24               114.75972
   81 Bend                    19    39    40               121.80925
   82 Bend                    19    39    41               118.75571
   83 Bend                    20    19    21               107.77961
   84 Bend                    20    19    39               105.89500
   85 Bend                    21    19    39               112.71054
   86 Bend                    21    24    25               125.34484
   87 Bend                    21    24    38               128.73732
   88 Bend                    22    21    23               106.78130
   89 Bend                    22    21    24               109.31239
   90 Bend                    23    21    24               107.84106
   91 Bend                    24    25    26               124.31463
   92 Bend                    24    25    27               109.74618
   93 Bend                    24    38    29               108.41855
   94 Bend                    24    38    36               134.44783
   95 Bend                    25    24    38               105.77446
   96 Bend                    25    27    28               123.28637
   97 Bend                    25    27    29               111.57139
   98 Bend                    26    25    27               125.89872
   99 Bend                    27    29    30               133.10408
  100 Bend                    27    29    38               104.46452
  101 Bend                    28    27    29               125.11481
  102 Bend                    29    30    31               120.44411
  103 Bend                    29    30    32               119.03200
  104 Bend                    29    38    36               117.11939
  105 Bend                    30    29    38               122.42963
  106 Bend                    30    32    33               120.11700
  107 Bend                    30    32    34               119.93649
  108 Bend                    31    30    32               120.52384
  109 Bend                    32    34    35               119.57173
  110 Bend                    32    34    36               120.55582
  111 Bend                    33    32    34               119.94567
  112 Bend                    34    36    37               119.55017
  113 Bend                    34    36    38               120.92182
  114 Bend                    35    34    36               119.87111
  115 Bend                    37    36    38               119.52244
  116 Bend                    39    41    42               118.46440
  117 Bend                    39    41    43               119.34341
  118 Bend                    40    39    41               119.42677
  119 Bend                    42    41    43               121.95934
  120 Torsion                  1     2     5     6        -119.67935
  121 Torsion                  1     2     5     7          60.65299
  122 Torsion                  2     5     7     8           2.39372
  123 Torsion                  2     5     7     9         178.84007
  124 Torsion                  3     2     5     6           0.00010
  125 Torsion                  3     2     5     7        -179.66756
  126 Torsion                  4     2     5     6         119.76999
  127 Torsion                  4     2     5     7         -59.89767
  128 Torsion                  5     7     9    10         -32.08635
  129 Torsion                  5     7     9    11          85.81348
  130 Torsion                  5     7     9    15        -150.74358
  131 Torsion                  6     5     7     8        -177.26273
  132 Torsion                  6     5     7     9          -0.81638
  133 Torsion                  7     9    11    12        -177.52406
  134 Torsion                  7     9    11    13         -58.20220
  135 Torsion                  7     9    11    14          62.02916
  136 Torsion                  7     9    15    16         -18.78638
  137 Torsion                  7     9    15    17         162.77186
  138 Torsion                  8     7     9    10         144.41908
  139 Torsion                  8     7     9    11         -97.68109
  140 Torsion                  8     7     9    15          25.76185
  141 Torsion                  9    15    17    18           2.26911
  142 Torsion                  9    15    17    19        -178.60362
  143 Torsion                 10     9    11    12         -59.26186
  144 Torsion                 10     9    11    13          60.06000
  145 Torsion                 10     9    11    14        -179.70865
  146 Torsion                 10     9    15    16        -138.05208
  147 Torsion                 10     9    15    17          43.50615
  148 Torsion                 11     9    15    16         103.22661
  149 Torsion                 11     9    15    17         -75.21516
  150 Torsion                 12    11     9    15          59.19629
  151 Torsion                 13    11     9    15         178.51815
  152 Torsion                 14    11     9    15         -61.25049
  153 Torsion                 15    17    19    20          42.95727
  154 Torsion                 15    17    19    21         159.27095
  155 Torsion                 15    17    19    39         -74.68940
  156 Torsion                 16    15    17    18        -176.15069
  157 Torsion                 16    15    17    19           2.97659
  158 Torsion                 17    19    21    22         178.54172
  159 Torsion                 17    19    21    23         -65.35400
  160 Torsion                 17    19    21    24          55.17229
  161 Torsion                 17    19    39    40        -142.56553
  162 Torsion                 17    19    39    41          36.38206
  163 Torsion                 18    17    19    20        -137.90400
  164 Torsion                 18    17    19    21         -21.59032
  165 Torsion                 18    17    19    39         104.44934
  166 Torsion                 19    21    24    25          92.07410
  167 Torsion                 19    21    24    38         -82.94006
  168 Torsion                 19    39    41    42        -179.90765
  169 Torsion                 19    39    41    43           5.52616
  170 Torsion                 20    19    21    22         -64.84477
  171 Torsion                 20    19    21    23          51.25952
  172 Torsion                 20    19    21    24         171.78580
  173 Torsion                 20    19    39    40          98.45216
  174 Torsion                 20    19    39    41         -82.60025
  175 Torsion                 21    19    39    40         -19.15209
  176 Torsion                 21    19    39    41         159.79550
  177 Torsion                 21    24    25    26           1.52845
  178 Torsion                 21    24    25    27        -176.27319
  179 Torsion                 21    24    38    29         175.08763
  180 Torsion                 21    24    38    36          -3.44817
  181 Torsion                 22    21    19    39          51.64227
  182 Torsion                 22    21    24    25         -31.41195
  183 Torsion                 22    21    24    38         153.57388
  184 Torsion                 23    21    19    39         167.74655
  185 Torsion                 23    21    24    25        -147.14510
  186 Torsion                 23    21    24    38          37.84073
  187 Torsion                 24    21    19    39         -71.72716
  188 Torsion                 24    25    27    28         179.44675
  189 Torsion                 24    25    27    29           1.26532
  190 Torsion                 24    38    29    27           1.38775
  191 Torsion                 24    38    29    30        -178.18672
  192 Torsion                 24    38    36    34         177.63734
  193 Torsion                 24    38    36    37          -3.22469
  194 Torsion                 25    24    38    29          -0.68785
  195 Torsion                 25    24    38    36        -179.22365
  196 Torsion                 25    27    29    30         177.88353
  197 Torsion                 25    27    29    38          -1.62454
  198 Torsion                 26    25    24    38         177.48894
  199 Torsion                 26    25    27    28           1.68828
  200 Torsion                 26    25    27    29        -176.49315
  201 Torsion                 27    25    24    38          -0.31270
  202 Torsion                 27    29    30    31           0.41202
  203 Torsion                 27    29    30    32        -179.51258
  204 Torsion                 27    29    38    36        -179.78659
  205 Torsion                 28    27    29    30          -0.25802
  206 Torsion                 28    27    29    38        -179.76608
  207 Torsion                 29    30    32    33         179.99598
  208 Torsion                 29    30    32    34          -0.33734
  209 Torsion                 29    38    36    34          -0.80184
  210 Torsion                 29    38    36    37         178.33613
  211 Torsion                 30    29    38    36           0.63893
  212 Torsion                 30    32    34    35        -179.40769
  213 Torsion                 30    32    34    36           0.17092
  214 Torsion                 31    30    29    38         179.84767
  215 Torsion                 31    30    32    33           0.07145
  216 Torsion                 31    30    32    34         179.73813
  217 Torsion                 32    30    29    38          -0.07693
  218 Torsion                 32    34    36    37        -178.71748
  219 Torsion                 32    34    36    38           0.42026
  220 Torsion                 33    32    34    35           0.25956
  221 Torsion                 33    32    34    36         179.83817
  222 Torsion                 35    34    36    37           0.85988
  223 Torsion                 35    34    36    38         179.99761
  224 Torsion                 40    39    41    42          -0.93446
  225 Torsion                 40    39    41    43        -175.50066


            XYZ format geometry
            -------------------
    43
 geometry
 H                    -0.04368028    -6.35540416     0.74621100
 C                    -0.48145929    -6.04169387    -0.20017654
 H                    -1.36136853    -6.64779873    -0.41474038
 H                     0.24418139    -6.15458955    -1.00194407
 C                    -0.89885278    -4.59361955    -0.10151830
 O                    -2.07085320    -4.27914492    -0.25775438
 N                     0.06642814    -3.71192092     0.15184958
 H                     1.01621766    -4.04428385     0.22686790
 C                    -0.13593024    -2.26720996     0.25937314
 H                    -0.94613966    -1.97399447    -0.41103151
 C                    -0.55365408    -1.92507039     1.69745148
 H                    -0.75141444    -0.85609453     1.78450574
 H                    -1.46424533    -2.46838985     1.95482578
 H                     0.23914296    -2.20194467     2.39360052
 C                     1.12699407    -1.49368496    -0.16152738
 O                     2.22507888    -2.04712875    -0.19888681
 N                     0.97145656    -0.20048924    -0.44786793
 H                     0.04824371     0.19324235    -0.33671277
 C                     2.02008222     0.73161230    -0.89808672
 H                     2.63222325     0.22259853    -1.64276406
 C                     1.32744775     1.91919623    -1.59101307
 H                     2.07825942     2.64153135    -1.91366273
 H                     0.83654779     1.55072361    -2.49324594
 C                     0.29363782     2.61694257    -0.75763196
 C                     0.52152927     3.68500143     0.03744399
 H                     1.48533333     4.17541282     0.14310568
 N                    -0.63364719     4.01450630     0.71860688
 H                    -0.69029457     4.77806937     1.37603484
 C                    -1.66480619     3.15115490     0.41513453
 C                    -2.98889093     3.04442997     0.86449674
 H                    -3.37651073     3.73901971     1.59475970
 C                    -3.80286190     2.01947359     0.35160330
 H                    -4.82722709     1.92087237     0.68614740
 C                    -3.28695348     1.12493984    -0.60324688
 H                    -3.92174224     0.34394328    -1.00130417
 C                    -1.95655709     1.24356674    -1.05026263
 H                    -1.58352624     0.56096116    -1.79908745
 C                    -1.10828370     2.25505401    -0.54555007
 C                     2.99472662     1.17713104     0.21926521
 O                     3.43511520     2.31988770     0.27481819
 N                     3.34219392     0.29922176     1.14992721
 H                     3.97488280     0.59391022     1.87497996
 H                     3.03436137    -0.65926583     1.06589948

 ==============================================================================
                                internuclear distances
 ------------------------------------------------------------------------------
       center one      |      center two      | atomic units |  angstroms
 ------------------------------------------------------------------------------
    2 C                |   1 H                |     2.05773  |     1.08890
    3 H                |   2 C                |     2.05940  |     1.08979
    4 H                |   2 C                |     2.05462  |     1.08726
    5 C                |   2 C                |     2.85397  |     1.51025
    6 O                |   5 C                |     2.31203  |     1.22347
    7 N                |   5 C                |     2.51650  |     1.33167
    8 H                |   7 N                |     1.90684  |     1.00906
    9 C                |   7 N                |     2.76424  |     1.46277
   10 H                |   9 C                |     2.06306  |     1.09172
   11 C                |   9 C                |     2.90282  |     1.53611
   12 H                |  11 C                |     2.06093  |     1.09059
   13 H                |  11 C                |     2.06198  |     1.09115
   14 H                |  11 C                |     2.06128  |     1.09078
   15 C                |   9 C                |     2.90949  |     1.53964
   16 O                |  15 C                |     2.32481  |     1.23024
   17 N                |  15 C                |     2.52017  |     1.33362
   18 H                |  17 N                |     1.90825  |     1.00980
   19 C                |  17 N                |     2.78446  |     1.47347
   20 H                |  19 C                |     2.06002  |     1.09012
   21 C                |  19 C                |     2.90935  |     1.53956
   22 H                |  21 C                |     2.06109  |     1.09068
   23 H                |  21 C                |     2.06212  |     1.09123
   24 C                |  21 C                |     2.83468  |     1.50005
   25 C                |  24 C                |     2.55276  |     1.35086
   26 H                |  25 C                |     2.05328  |     1.08655
   27 N                |  25 C                |     2.60959  |     1.38094
   28 H                |  27 N                |     1.90708  |     1.00918
   29 C                |  27 N                |     2.60533  |     1.37868
   30 C                |  29 C                |     2.65001  |     1.40233
   31 H                |  30 C                |     2.04054  |     1.07981
   32 C                |  30 C                |     2.65649  |     1.40575
   33 H                |  32 C                |     2.04489  |     1.08211
   34 C                |  32 C                |     2.65780  |     1.40645
   35 H                |  34 C                |     2.04524  |     1.08229
   36 C                |  34 C                |     2.66166  |     1.40849
   37 H                |  36 C                |     2.04041  |     1.07974
   38 C                |  24 C                |     2.76529  |     1.46333
   38 C                |  29 C                |     2.69618  |     1.42675
   38 C                |  36 C                |     2.67074  |     1.41330
   39 C                |  19 C                |     2.92566  |     1.54819
   40 O                |  39 C                |     2.31668  |     1.22594
   41 N                |  39 C                |     2.50529  |     1.32574
   42 H                |  41 N                |     1.90182  |     1.00640
   43 H                |  41 N                |     1.90902  |     1.01021
 ------------------------------------------------------------------------------
                         number of included internuclear distances:         44
 ==============================================================================



 ==============================================================================
                                 internuclear angles
 ------------------------------------------------------------------------------
        center 1       |       center 2       |       center 3       |  degrees
 ------------------------------------------------------------------------------
    1 H                |   2 C                |   3 H                |   109.60
    1 H                |   2 C                |   4 H                |   110.04
    1 H                |   2 C                |   5 C                |   109.30
    3 H                |   2 C                |   4 H                |   109.63
    3 H                |   2 C                |   5 C                |   108.84
    4 H                |   2 C                |   5 C                |   109.40
    2 C                |   5 C                |   6 O                |   120.19
    2 C                |   5 C                |   7 N                |   116.55
    6 O                |   5 C                |   7 N                |   123.26
    5 C                |   7 N                |   8 H                |   118.58
    5 C                |   7 N                |   9 C                |   124.59
    8 H                |   7 N                |   9 C                |   116.75
    7 N                |   9 C                |  10 H                |   108.83
    7 N                |   9 C                |  11 C                |   109.05
    7 N                |   9 C                |  15 C                |   111.26
   10 H                |   9 C                |  11 C                |   108.26
   10 H                |   9 C                |  15 C                |   107.82
   11 C                |   9 C                |  15 C                |   111.54
    9 C                |  11 C                |  12 H                |   110.02
    9 C                |  11 C                |  13 H                |   109.69
    9 C                |  11 C                |  14 H                |   110.08
   12 H                |  11 C                |  13 H                |   108.54
   12 H                |  11 C                |  14 H                |   109.25
   13 H                |  11 C                |  14 H                |   109.25
    9 C                |  15 C                |  16 O                |   120.96
    9 C                |  15 C                |  17 N                |   116.76
   16 O                |  15 C                |  17 N                |   122.26
   15 C                |  17 N                |  18 H                |   117.46
   15 C                |  17 N                |  19 C                |   126.59
   18 H                |  17 N                |  19 C                |   115.95
   17 N                |  19 C                |  20 H                |   108.24
   17 N                |  19 C                |  21 C                |   107.78
   17 N                |  19 C                |  39 C                |   114.18
   20 H                |  19 C                |  21 C                |   107.78
   20 H                |  19 C                |  39 C                |   105.90
   21 C                |  19 C                |  39 C                |   112.71
   19 C                |  21 C                |  22 H                |   109.53
   19 C                |  21 C                |  23 H                |   108.30
   19 C                |  21 C                |  24 C                |   114.76
   22 H                |  21 C                |  23 H                |   106.78
   22 H                |  21 C                |  24 C                |   109.31
   23 H                |  21 C                |  24 C                |   107.84
   21 C                |  24 C                |  25 C                |   125.34
   21 C                |  24 C                |  38 C                |   128.74
   25 C                |  24 C                |  38 C                |   105.77
   24 C                |  25 C                |  26 H                |   124.31
   24 C                |  25 C                |  27 N                |   109.75
   26 H                |  25 C                |  27 N                |   125.90
   25 C                |  27 N                |  28 H                |   123.29
   25 C                |  27 N                |  29 C                |   111.57
   28 H                |  27 N                |  29 C                |   125.11
   27 N                |  29 C                |  30 C                |   133.10
   27 N                |  29 C                |  38 C                |   104.46
   30 C                |  29 C                |  38 C                |   122.43
   29 C                |  30 C                |  31 H                |   120.44
   29 C                |  30 C                |  32 C                |   119.03
   31 H                |  30 C                |  32 C                |   120.52
   30 C                |  32 C                |  33 H                |   120.12
   30 C                |  32 C                |  34 C                |   119.94
   33 H                |  32 C                |  34 C                |   119.95
   32 C                |  34 C                |  35 H                |   119.57
   32 C                |  34 C                |  36 C                |   120.56
   35 H                |  34 C                |  36 C                |   119.87
   34 C                |  36 C                |  37 H                |   119.55
   34 C                |  36 C                |  38 C                |   120.92
   37 H                |  36 C                |  38 C                |   119.52
   24 C                |  38 C                |  29 C                |   108.42
   24 C                |  38 C                |  36 C                |   134.45
   29 C                |  38 C                |  36 C                |   117.12
   19 C                |  39 C                |  40 O                |   121.81
   19 C                |  39 C                |  41 N                |   118.76
   40 O                |  39 C                |  41 N                |   119.43
   39 C                |  41 N                |  42 H                |   118.46
   39 C                |  41 N                |  43 H                |   119.34
   42 H                |  41 N                |  43 H                |   121.96
 ------------------------------------------------------------------------------
                            number of included internuclear angles:         75
 ==============================================================================



  library name resolved from: environment
  library file name is: </opt/rit/el9/20230413/app/linux-rhel9-x86_64_v3/gcc-11.2.1/nwchem-7.2.0-oxtctbuhfuzyfaoziquq6bki22grib3g/share/nwchem/libraries/>
  


 Summary of "ao basis" -> "" (cartesian)
 ------------------------------------------------------------------------------
       Tag                 Description            Shells   Functions and Types
 ---------------- ------------------------------  ------  ---------------------
 *                        aug-cc-pvdz                 on all atoms 


                      Basis "ao basis" -> "ao basis" (cartesian)
                      -----
  H (Hydrogen)
  ------------
            Exponent  Coefficients 
       -------------- ---------------------------------------------------------
  1 S  1.30100000E+01  0.019685
  1 S  1.96200000E+00  0.137977
  1 S  4.44600000E-01  0.478148

  2 S  1.22000000E-01  1.000000

  3 S  2.97400000E-02  1.000000

  4 P  7.27000000E-01  1.000000

  5 P  1.41000000E-01  1.000000

  C (Carbon)
  ----------
            Exponent  Coefficients 
       -------------- ---------------------------------------------------------
  1 S  6.66500000E+03  0.000692
  1 S  1.00000000E+03  0.005329
  1 S  2.28000000E+02  0.027077
  1 S  6.47100000E+01  0.101718
  1 S  2.10600000E+01  0.274740
  1 S  7.49500000E+00  0.448564
  1 S  2.79700000E+00  0.285074
  1 S  5.21500000E-01  0.015204

  2 S  6.66500000E+03 -0.000146
  2 S  1.00000000E+03 -0.001154
  2 S  2.28000000E+02 -0.005725
  2 S  6.47100000E+01 -0.023312
  2 S  2.10600000E+01 -0.063955
  2 S  7.49500000E+00 -0.149981
  2 S  2.79700000E+00 -0.127262
  2 S  5.21500000E-01  0.544529

  3 S  1.59600000E-01  1.000000

  4 S  4.69000000E-02  1.000000

  5 P  9.43900000E+00  0.038109
  5 P  2.00200000E+00  0.209480
  5 P  5.45600000E-01  0.508557

  6 P  1.51700000E-01  1.000000

  7 P  4.04100000E-02  1.000000

  8 D  5.50000000E-01  1.000000

  9 D  1.51000000E-01  1.000000

  O (Oxygen)
  ----------
            Exponent  Coefficients 
       -------------- ---------------------------------------------------------
  1 S  1.17200000E+04  0.000710
  1 S  1.75900000E+03  0.005470
  1 S  4.00800000E+02  0.027837
  1 S  1.13700000E+02  0.104800
  1 S  3.70300000E+01  0.283062
  1 S  1.32700000E+01  0.448719
  1 S  5.02500000E+00  0.270952
  1 S  1.01300000E+00  0.015458

  2 S  1.17200000E+04 -0.000160
  2 S  1.75900000E+03 -0.001263
  2 S  4.00800000E+02 -0.006267
  2 S  1.13700000E+02 -0.025716
  2 S  3.70300000E+01 -0.070924
  2 S  1.32700000E+01 -0.165411
  2 S  5.02500000E+00 -0.116955
  2 S  1.01300000E+00  0.557368

  3 S  3.02300000E-01  1.000000

  4 S  7.89600000E-02  1.000000

  5 P  1.77000000E+01  0.043018
  5 P  3.85400000E+00  0.228913
  5 P  1.04600000E+00  0.508728

  6 P  2.75300000E-01  1.000000

  7 P  6.85600000E-02  1.000000

  8 D  1.18500000E+00  1.000000

  9 D  3.32000000E-01  1.000000

  N (Nitrogen)
  ------------
            Exponent  Coefficients 
       -------------- ---------------------------------------------------------
  1 S  9.04600000E+03  0.000700
  1 S  1.35700000E+03  0.005389
  1 S  3.09300000E+02  0.027406
  1 S  8.77300000E+01  0.103207
  1 S  2.85600000E+01  0.278723
  1 S  1.02100000E+01  0.448540
  1 S  3.83800000E+00  0.278238
  1 S  7.46600000E-01  0.015440

  2 S  9.04600000E+03 -0.000153
  2 S  1.35700000E+03 -0.001208
  2 S  3.09300000E+02 -0.005992
  2 S  8.77300000E+01 -0.024544
  2 S  2.85600000E+01 -0.067459
  2 S  1.02100000E+01 -0.158078
  2 S  3.83800000E+00 -0.121831
  2 S  7.46600000E-01  0.549003

  3 S  2.24800000E-01  1.000000

  4 S  6.12400000E-02  1.000000

  5 P  1.35500000E+01  0.039919
  5 P  2.91700000E+00  0.217169
  5 P  7.97300000E-01  0.510319

  6 P  2.18500000E-01  1.000000

  7 P  5.61100000E-02  1.000000

  8 D  8.17000000E-01  1.000000

  9 D  2.30000000E-01  1.000000



 Summary of "ao basis" -> "ao basis" (cartesian)
 ------------------------------------------------------------------------------
       Tag                 Description            Shells   Functions and Types
 ---------------- ------------------------------  ------  ---------------------
 H                        aug-cc-pvdz                5        9   3s2p
 C                        aug-cc-pvdz                9       25   4s3p2d
 O                        aug-cc-pvdz                9       25   4s3p2d
 N                        aug-cc-pvdz                9       25   4s3p2d


                                 NWChem SCF Module
                                 -----------------



  ao basis        = "ao basis"
  functions       =   755
  atoms           =    43
  closed shells   =    84
  open shells     =     0
  charge          =   0.00
  wavefunction    = RHF 
  input vectors   = atomic
  output vectors  = ./ALA_TRP_2.movecs
  use symmetry    = F
  symmetry adapt  = F


 Summary of "ao basis" -> "ao basis" (cartesian)
 ------------------------------------------------------------------------------
       Tag                 Description            Shells   Functions and Types
 ---------------- ------------------------------  ------  ---------------------
 H                        aug-cc-pvdz                5        9   3s2p
 C                        aug-cc-pvdz                9       25   4s3p2d
 O                        aug-cc-pvdz                9       25   4s3p2d
 N                        aug-cc-pvdz                9       25   4s3p2d



 Forming initial guess at       2.4s


 !! The overlap matrix has  19 vectors deemed linearly dependent with
    eigenvalues:
 2.44D-07 9.92D-07 1.20D-06 1.43D-06 1.79D-06 2.09D-06 2.12D-06 2.66D-06
 2.99D-06 3.67D-06 4.54D-06 4.73D-06 5.02D-06 6.30D-06 6.72D-06 8.08D-06
 8.23D-06 9.50D-06 9.83D-06


      Superposition of Atomic Density Guess
      -------------------------------------

 Sum of atomic energies:       -1054.17033381

      Non-variational initial energy
      ------------------------------

 Total energy =   -1070.171114
 1-e energy   =   -5304.288033
 2-e energy   =    2284.894557
 HOMO         =      -0.235710
 LUMO         =      -0.031261


 Starting SCF solution at     548.3s



 ----------------------------------------------
         Quadratically convergent ROHF

 Convergence threshold     :          1.000E-04
 Maximum no. of iterations :           30
 Final Fock-matrix accuracy:          1.000E-10
 ----------------------------------------------


              iter       energy          gnorm     gmax       time
             ----- ------------------- --------- --------- --------
                 1    -1059.6781826827  2.57D+00  1.26D-01   1120.8
                 2    -1060.0507204915  9.63D-01  4.84D-02   2308.8
                 3    -1060.1293573903  6.54D-02  3.87D-03   4058.0
                 4    -1060.1300053880  1.98D-03  9.29D-05   6832.1
                 5    -1060.1300060175  5.12D-06  5.21D-07  11558.8


       Final RHF  results 
       ------------------ 

         Total SCF energy =  -1060.130006017457
      One-electron energy =  -5320.179802243248
      Two-electron energy =   2310.827433546088
 Nuclear repulsion energy =   1949.222362679702

        Time for solution =  11025.8s


             Final eigenvalues
             -----------------

              1      
    1  -20.5515
    2  -20.5249
    3  -20.5200
    4  -15.6205
    5  -15.6152
    6  -15.5959
    7  -15.5867
    8  -11.3796
    9  -11.3592
   10  -11.3523
   11  -11.3085
   12  -11.3033
   13  -11.2885
   14  -11.2810
   15  -11.2551
   16  -11.2543
   17  -11.2541
   18  -11.2512
   19  -11.2509
   20  -11.2447
   21  -11.2404
   22  -11.2402
   23  -11.2365
   24   -1.4129
   25   -1.3868
   26   -1.3821
   27   -1.3073
   28   -1.2644
   29   -1.2444
   30   -1.2148
   31   -1.1398
   32   -1.1030
   33   -1.0668
   34   -1.0364
   35   -1.0078
   36   -0.9952
   37   -0.9879
   38   -0.9205
   39   -0.8958
   40   -0.8564
   41   -0.8324
   42   -0.8167
   43   -0.7997
   44   -0.7915
   45   -0.7628
   46   -0.7443
   47   -0.7402
   48   -0.7249
   49   -0.6903
   50   -0.6846
   51   -0.6755
   52   -0.6628
   53   -0.6589
   54   -0.6448
   55   -0.6340
   56   -0.6208
   57   -0.6153
   58   -0.6031
   59   -0.6015
   60   -0.5982
   61   -0.5952
   62   -0.5837
   63   -0.5781
   64   -0.5685
   65   -0.5661
   66   -0.5583
   67   -0.5493
   68   -0.5454
   69   -0.5383
   70   -0.5299
   71   -0.5232
   72   -0.5080
   73   -0.5017
   74   -0.4876
   75   -0.4741
   76   -0.4526
   77   -0.4435
   78   -0.4183
   79   -0.4109
   80   -0.4049
   81   -0.3934
   82   -0.3870
   83   -0.3116
   84   -0.2941
   85    0.0280
   86    0.0334
   87    0.0384
   88    0.0394
   89    0.0433
   90    0.0511
   91    0.0535
   92    0.0569
   93    0.0602
   94    0.0628

                       ROHF Final Molecular Orbital Analysis
                       -------------------------------------

 Vector   24  Occ=2.000000D+00  E=-1.412932D+00
              MO Center=  1.8D+00, -1.7D+00, -1.9D-01, r^2= 1.4D+00
   Bfn.  Coefficient  Atom+Function         Bfn.  Coefficient  Atom+Function  
  ----- ------------  ---------------      ----- ------------  ---------------
   250      0.364889  16 O  s               249      0.343653  16 O  s         
   224      0.239001  15 C  s         

 Vector   25  Occ=2.000000D+00  E=-1.386758D+00
              MO Center=  3.2D+00,  1.6D+00,  3.1D-01, r^2= 2.3D+00
   Bfn.  Coefficient  Atom+Function         Bfn.  Coefficient  Atom+Function  
  ----- ------------  ---------------      ----- ------------  ---------------
   690      0.375295  40 O  s               689      0.347017  40 O  s         
   664      0.241322  39 C  s         

 Vector   26  Occ=2.000000D+00  E=-1.382097D+00
              MO Center= -1.3D+00, -4.1D+00, -1.6D-01, r^2= 2.2D+00
   Bfn.  Coefficient  Atom+Function         Bfn.  Coefficient  Atom+Function  
  ----- ------------  ---------------      ----- ------------  ---------------
    80      0.345941   6 O  s                79      0.343167   6 O  s         
    54      0.242765   5 C  s                12      0.169238   2 C  s         

 Vector   27  Occ=2.000000D+00  E=-1.307252D+00
              MO Center= -6.3D-01,  3.6D+00,  4.2D-01, r^2= 1.3D+00
   Bfn.  Coefficient  Atom+Function         Bfn.  Coefficient  Atom+Function  
  ----- ------------  ---------------      ----- ------------  ---------------
   445      0.487323  27 N  s               444      0.331220  27 N  s         
   478      0.172934  29 C  s               410      0.162923  25 C  s         

 Vector   28  Occ=2.000000D+00  E=-1.264405D+00
              MO Center=  1.3D+00, -3.5D-01, -4.0D-01, r^2= 2.0D+00
   Bfn.  Coefficient  Atom+Function         Bfn.  Coefficient  Atom+Function  
  ----- ------------  ---------------      ----- ------------  ---------------
   275      0.409115  17 N  s               274      0.340116  17 N  s         
   250     -0.224022  16 O  s               249     -0.178275  16 O  s         
   228      0.161160  15 C  py              298      0.155336  18 H  s         

 Vector   29  Occ=2.000000D+00  E=-1.244438D+00
              MO Center= -2.7D-01, -3.7D+00,  9.6D-02, r^2= 1.9D+00
   Bfn.  Coefficient  Atom+Function         Bfn.  Coefficient  Atom+Function  
  ----- ------------  ---------------      ----- ------------  ---------------
   105      0.458239   7 N  s               104      0.342038   7 N  s         
    80     -0.214056   6 O  s                57      0.187868   5 C  px        
    79     -0.186420   6 O  s               128      0.152881   8 H  s         

 Vector   30  Occ=2.000000D+00  E=-1.214778D+00
              MO Center=  3.2D+00,  5.8D-01,  8.6D-01, r^2= 1.6D+00
   Bfn.  Coefficient  Atom+Function         Bfn.  Coefficient  Atom+Function  
  ----- ------------  ---------------      ----- ------------  ---------------
   715      0.403023  41 N  s               714      0.368713  41 N  s         
   690     -0.217223  40 O  s               668     -0.190345  39 C  py        
   689     -0.175707  40 O  s               747      0.165260  43 H  s         
   738      0.157474  42 H  s         

 Vector   31  Occ=2.000000D+00  E=-1.139845D+00
              MO Center= -2.3D+00,  2.2D+00, -9.8D-02, r^2= 3.0D+00
   Bfn.  Coefficient  Atom+Function         Bfn.  Coefficient  Atom+Function  
  ----- ------------  ---------------      ----- ------------  ---------------
   445      0.243994  27 N  s               571     -0.183686  34 C  s         
   605     -0.182397  36 C  s               537     -0.180569  32 C  s         
   503     -0.162311  30 C  s               639     -0.158437  38 C  s         
   630     -0.151050  37 H  s         

 Vector   32  Occ=2.000000D+00  E=-1.102964D+00
              MO Center=  4.1D-01,  1.7D+00, -5.9D-01, r^2= 6.1D+00
   Bfn.  Coefficient  Atom+Function         Bfn.  Coefficient  Atom+Function  
  ----- ------------  ---------------      ----- ------------  ---------------
   342      0.212527  21 C  s               385      0.212820  24 C  s         

 Vector   33  Occ=2.000000D+00  E=-1.066794D+00
              MO Center= -2.4D-01, -1.4D+00,  2.9D-01, r^2= 9.8D+00
   Bfn.  Coefficient  Atom+Function         Bfn.  Coefficient  Atom+Function  
  ----- ------------  ---------------      ----- ------------  ---------------
   138      0.213472   9 C  s               172      0.174746  11 C  s         

 Vector   34  Occ=2.000000D+00  E=-1.036382D+00
              MO Center= -1.9D-01,  4.6D-01, -2.6D-01, r^2= 1.2D+01
   Bfn.  Coefficient  Atom+Function         Bfn.  Coefficient  Atom+Function  
  ----- ------------  ---------------      ----- ------------  ---------------
   308      0.176067  19 C  s         

 Vector   35  Occ=2.000000D+00  E=-1.007765D+00
              MO Center= -2.1D+00,  2.3D+00, -4.0D-02, r^2= 4.2D+00
   Bfn.  Coefficient  Atom+Function         Bfn.  Coefficient  Atom+Function  
  ----- ------------  ---------------      ----- ------------  ---------------
   573     -0.251762  34 C  s               571      0.234292  34 C  s         
   478     -0.212126  29 C  s               505      0.186934  30 C  s         
   445      0.176904  27 N  s               596      0.168393  35 H  s         

 Vector   36  Occ=2.000000D+00  E=-9.952257D-01
              MO Center= -8.7D-01, -1.0D+00, -1.1D-01, r^2= 1.9D+01
   Bfn.  Coefficient  Atom+Function         Bfn.  Coefficient  Atom+Function  
  ----- ------------  ---------------      ----- ------------  ---------------
    11      0.224429   2 C  s                56     -0.192025   5 C  s         
    13      0.162072   2 C  s         

 Vector   37  Occ=2.000000D+00  E=-9.879061D-01
              MO Center= -5.8D-01, -1.6D+00,  1.2D-01, r^2= 1.7D+01
   Bfn.  Coefficient  Atom+Function         Bfn.  Coefficient  Atom+Function  
  ----- ------------  ---------------      ----- ------------  ---------------
    11      0.224737   2 C  s                56     -0.214387   5 C  s         
   172      0.159095  11 C  s                13      0.158244   2 C  s         
   539      0.154256  32 C  s               225      0.151947  15 C  s         

 Vector   38  Occ=2.000000D+00  E=-9.204911D-01
              MO Center=  7.8D-01,  9.6D-01, -3.0D-01, r^2= 8.4D+00
   Bfn.  Coefficient  Atom+Function         Bfn.  Coefficient  Atom+Function  
  ----- ------------  ---------------      ----- ------------  ---------------
   342      0.225255  21 C  s               316     -0.199462  19 C  pz        
   144      0.182972   9 C  px              225     -0.167791  15 C  s         

 Vector   39  Occ=2.000000D+00  E=-8.958330D-01
              MO Center=  4.9D-01, -1.3D+00,  4.4D-01, r^2= 8.3D+00
   Bfn.  Coefficient  Atom+Function         Bfn.  Coefficient  Atom+Function  
  ----- ------------  ---------------      ----- ------------  ---------------
   172     -0.210290  11 C  s               309      0.210069  19 C  s         
   144      0.201453   9 C  px              146     -0.177945   9 C  pz        
    56      0.156517   5 C  s               138      0.155782   9 C  s         

 Vector   40  Occ=2.000000D+00  E=-8.563662D-01
              MO Center= -1.8D+00,  2.5D+00,  2.4D-02, r^2= 5.6D+00
   Bfn.  Coefficient  Atom+Function         Bfn.  Coefficient  Atom+Function  
  ----- ------------  ---------------      ----- ------------  ---------------
   505      0.292707  30 C  s               573     -0.258079  34 C  s         
   539     -0.216281  32 C  s               630     -0.185009  37 H  s         
   528     -0.183711  31 H  s               481      0.177019  29 C  px        
   503     -0.176904  30 C  s               605     -0.164210  36 C  s         
   435     -0.156201  26 H  s         

 Vector   41  Occ=2.000000D+00  E=-8.323718D-01
              MO Center=  3.9D-01, -4.8D-01, -2.0D-01, r^2= 9.2D+00
   Bfn.  Coefficient  Atom+Function         Bfn.  Coefficient  Atom+Function  
  ----- ------------  ---------------      ----- ------------  ---------------
   309      0.298148  19 C  s               278     -0.260256  17 N  py        
   225      0.224935  15 C  s               539      0.217379  32 C  s         
   299     -0.193065  18 H  s               139      0.186237   9 C  s         
   298     -0.184873  18 H  s               224      0.162892  15 C  s         
   231      0.154973  15 C  py        

 Vector   42  Occ=2.000000D+00  E=-8.167038D-01
              MO Center= -1.0D+00,  1.8D+00,  4.9D-02, r^2= 1.0D+01
   Bfn.  Coefficient  Atom+Function         Bfn.  Coefficient  Atom+Function  
  ----- ------------  ---------------      ----- ------------  ---------------
   539      0.359865  32 C  s               573     -0.198981  34 C  s         
   445     -0.184066  27 N  s               538     -0.166182  32 C  s         
   607     -0.158068  36 C  s               645     -0.157299  38 C  px        
   562     -0.152136  33 H  s         

 Vector   43  Occ=2.000000D+00  E=-7.996787D-01
              MO Center=  1.6D+00,  8.1D-01,  1.7D-01, r^2= 8.4D+00
   Bfn.  Coefficient  Atom+Function         Bfn.  Coefficient  Atom+Function  
  ----- ------------  ---------------      ----- ------------  ---------------
   316     -0.202357  19 C  pz              225      0.194901  15 C  s         
   539     -0.186085  32 C  s               664     -0.181995  39 C  s         
   672     -0.180180  39 C  pz              719      0.178787  41 N  pz        
   718     -0.174818  41 N  py              314     -0.166598  19 C  px        

 Vector   44  Occ=2.000000D+00  E=-7.915004D-01
              MO Center= -4.4D-02, -3.1D+00,  1.0D-01, r^2= 4.0D+00
   Bfn.  Coefficient  Atom+Function         Bfn.  Coefficient  Atom+Function  
  ----- ------------  ---------------      ----- ------------  ---------------
   107      0.326164   7 N  px              128      0.292710   8 H  s         
   105      0.270687   7 N  s               163     -0.238860  10 H  s         
   225      0.222048  15 C  s                55     -0.209974   5 C  s         
   144     -0.190409   9 C  px              162     -0.163694  10 H  s         
    80      0.161303   6 O  s                54     -0.160368   5 C  s         

 Vector   45  Occ=2.000000D+00  E=-7.628344D-01
              MO Center=  2.5D-01,  1.7D+00, -3.7D-02, r^2= 9.4D+00
   Bfn.  Coefficient  Atom+Function         Bfn.  Coefficient  Atom+Function  
  ----- ------------  ---------------      ----- ------------  ---------------
   505      0.228646  30 C  s               497      0.165588  29 C  dxy       
   718      0.163485  41 N  py              385     -0.161518  24 C  s         
   445     -0.160445  27 N  s               479      0.155319  29 C  s         
   642     -0.151125  38 C  px        

 Vector   46  Occ=2.000000D+00  E=-7.442939D-01
              MO Center=  2.1D+00,  8.2D-02,  3.4D-01, r^2= 6.5D+00
   Bfn.  Coefficient  Atom+Function         Bfn.  Coefficient  Atom+Function  
  ----- ------------  ---------------      ----- ------------  ---------------
   718      0.282285  41 N  py              747     -0.254853  43 H  s         
   225      0.210132  15 C  s               314     -0.174929  19 C  px        
   748     -0.162157  43 H  s               669      0.159293  39 C  pz        
   665      0.154514  39 C  s         

 Vector   47  Occ=2.000000D+00  E=-7.401872D-01
              MO Center= -6.1D-01,  8.3D-01,  6.4D-02, r^2= 1.3D+01
   Bfn.  Coefficient  Atom+Function         Bfn.  Coefficient  Atom+Function  
  ----- ------------  ---------------      ----- ------------  ---------------
   505      0.229554  30 C  s               648      0.173258  38 C  px        
   145     -0.162064   9 C  py              468      0.160316  28 H  s         
   448      0.155902  27 N  py        

 Vector   48  Occ=2.000000D+00  E=-7.248621D-01
              MO Center=  4.1D-01,  5.2D-01,  1.1D-01, r^2= 1.4D+01
   Bfn.  Coefficient  Atom+Function         Bfn.  Coefficient  Atom+Function  
  ----- ------------  ---------------      ----- ------------  ---------------
   468      0.182925  28 H  s               738      0.163435  42 H  s         
   448      0.159571  27 N  py              572      0.150872  34 C  s         

 Vector   49  Occ=2.000000D+00  E=-6.903171D-01
              MO Center=  1.5D+00, -4.1D-01,  2.8D-02, r^2= 1.1D+01
   Bfn.  Coefficient  Atom+Function         Bfn.  Coefficient  Atom+Function  
  ----- ------------  ---------------      ----- ------------  ---------------
   252      0.179819  16 O  px              738      0.176567  42 H  s         
   315      0.160859  19 C  py        

 Vector   50  Occ=2.000000D+00  E=-6.846203D-01
              MO Center=  1.5D-01,  6.6D-01, -1.4D-01, r^2= 1.2D+01
   Bfn.  Coefficient  Atom+Function         Bfn.  Coefficient  Atom+Function  
  ----- ------------  ---------------      ----- ------------  ---------------
   648      0.211370  38 C  px              539     -0.176130  32 C  s         
   252     -0.160493  16 O  px              538      0.160889  32 C  s         

 Vector   51  Occ=2.000000D+00  E=-6.755423D-01
              MO Center=  1.6D-01,  9.6D-01,  4.5D-02, r^2= 1.5D+01
   Bfn.  Coefficient  Atom+Function         Bfn.  Coefficient  Atom+Function  
  ----- ------------  ---------------      ----- ------------  ---------------
   447     -0.182504  27 N  px              413      0.180483  25 C  px        
   539     -0.177630  32 C  s               645     -0.168442  38 C  px        
   505      0.163158  30 C  s               572     -0.156390  34 C  s         

 Vector   52  Occ=2.000000D+00  E=-6.628448D-01
              MO Center= -4.4D-01, -3.2D+00, -9.4D-02, r^2= 1.0D+01
   Bfn.  Coefficient  Atom+Function         Bfn.  Coefficient  Atom+Function  
  ----- ------------  ---------------      ----- ------------  ---------------
    80      0.204892   6 O  s                83      0.205904   6 O  py        
    82     -0.191130   6 O  px               57      0.183858   5 C  px        
    18     -0.178921   2 C  py              252     -0.179598  16 O  px        
    13      0.168777   2 C  s                58      0.169159   5 C  py        
    14      0.150291   2 C  px        

 Vector   53  Occ=2.000000D+00  E=-6.588550D-01
              MO Center= -1.7D+00,  9.1D-01, -1.1D-01, r^2= 1.1D+01
   Bfn.  Coefficient  Atom+Function         Bfn.  Coefficient  Atom+Function  
  ----- ------------  ---------------      ----- ------------  ---------------
   573      0.281639  34 C  s               596     -0.205971  35 H  s         
   574      0.198425  34 C  px              595     -0.195209  35 H  s         
   648      0.186471  38 C  px              540      0.172216  32 C  px        

 Vector   54  Occ=2.000000D+00  E=-6.448293D-01
              MO Center=  3.6D-01, -1.1D-01, -1.1D-01, r^2= 1.2D+01
   Bfn.  Coefficient  Atom+Function         Bfn.  Coefficient  Atom+Function  
  ----- ------------  ---------------      ----- ------------  ---------------
   139      0.178636   9 C  s               277      0.179253  17 N  px        
   332     -0.174536  20 H  s               313      0.159924  19 C  pz        

 Vector   55  Occ=2.000000D+00  E=-6.339531D-01
              MO Center= -6.0D-02, -3.2D+00,  2.8D-01, r^2= 6.9D+00
   Bfn.  Coefficient  Atom+Function         Bfn.  Coefficient  Atom+Function  
  ----- ------------  ---------------      ----- ------------  ---------------
   173     -0.372893  11 C  s               139      0.356172   9 C  s         
    56      0.186880   5 C  s               109      0.178474   7 N  pz        
    59      0.175701   5 C  pz               13     -0.170870   2 C  s         
    16      0.171610   2 C  pz              143      0.165040   9 C  pz        
   145      0.155441   9 C  py        

 Vector   56  Occ=2.000000D+00  E=-6.208252D-01
              MO Center= -1.5D-01, -3.4D-01,  4.4D-02, r^2= 1.7D+01
   Bfn.  Coefficient  Atom+Function         Bfn.  Coefficient  Atom+Function  
  ----- ------------  ---------------      ----- ------------  ---------------
    56     -0.169247   5 C  s                13      0.159879   2 C  s         
   693      0.154989  40 O  py        

 Vector   57  Occ=2.000000D+00  E=-6.153047D-01
              MO Center= -2.3D-01, -5.1D-01,  1.2D-02, r^2= 1.5D+01
   Bfn.  Coefficient  Atom+Function         Bfn.  Coefficient  Atom+Function  
  ----- ------------  ---------------      ----- ------------  ---------------
   139      0.188190   9 C  s                56      0.183283   5 C  s         
   252     -0.150543  16 O  px        

 Vector   58  Occ=2.000000D+00  E=-6.030582D-01
              MO Center=  9.1D-01,  2.0D+00,  8.5D-02, r^2= 1.0D+01
   Bfn.  Coefficient  Atom+Function         Bfn.  Coefficient  Atom+Function  
  ----- ------------  ---------------      ----- ------------  ---------------
   693      0.296728  40 O  py              668     -0.197855  39 C  py        
   690      0.184644  40 O  s               696      0.154461  40 O  py        

 Vector   59  Occ=2.000000D+00  E=-6.015340D-01
              MO Center= -1.7D+00,  2.0D+00, -1.2D-01, r^2= 7.2D+00
   Bfn.  Coefficient  Atom+Function         Bfn.  Coefficient  Atom+Function  
  ----- ------------  ---------------      ----- ------------  ---------------
   646      0.202479  38 C  py              643      0.200929  38 C  py        
   448      0.194713  27 N  py              505      0.194062  30 C  s         
   658      0.171304  38 C  dxy             609     -0.167127  36 C  py        
   527     -0.158119  31 H  s               629      0.156225  37 H  s         
   483     -0.154683  29 C  pz              484     -0.153539  29 C  px        

 Vector   60  Occ=2.000000D+00  E=-5.981609D-01
              MO Center=  2.1D-01,  1.2D+00, -4.8D-02, r^2= 1.2D+01
   Bfn.  Coefficient  Atom+Function         Bfn.  Coefficient  Atom+Function  
  ----- ------------  ---------------      ----- ------------  ---------------
   449      0.168756  27 N  pz              665      0.152434  39 C  s         

 Vector   61  Occ=2.000000D+00  E=-5.951791D-01
              MO Center=  1.0D-01, -6.3D-01,  8.4D-02, r^2= 1.6D+01
   Bfn.  Coefficient  Atom+Function         Bfn.  Coefficient  Atom+Function  
  ----- ------------  ---------------      ----- ------------  ---------------
   449      0.173205  27 N  pz              253      0.171783  16 O  py        
    13     -0.159782   2 C  s                16     -0.156345   2 C  pz        

 Vector   62  Occ=2.000000D+00  E=-5.836619D-01
              MO Center= -3.4D-01, -2.8D+00,  4.9D-01, r^2= 8.7D+00
   Bfn.  Coefficient  Atom+Function         Bfn.  Coefficient  Atom+Function  
  ----- ------------  ---------------      ----- ------------  ---------------
   176      0.230058  11 C  py              197      0.227362  12 H  s         
    82      0.225865   6 O  px              196      0.211614  12 H  s         
    15     -0.178729   2 C  py               57     -0.177771   5 C  px        
   214     -0.151116  14 H  s         

 Vector   63  Occ=2.000000D+00  E=-5.780771D-01
              MO Center=  2.7D-01,  2.4D+00, -2.0D-01, r^2= 8.5D+00
   Bfn.  Coefficient  Atom+Function         Bfn.  Coefficient  Atom+Function  
  ----- ------------  ---------------      ----- ------------  ---------------
   434      0.222028  26 H  s               539      0.207044  32 C  s         
   414      0.192828  25 C  py              413      0.183553  25 C  px        
   435      0.184252  26 H  s               345     -0.179978  21 C  px        
   392     -0.177034  24 C  py              389     -0.168908  24 C  py        
   367     -0.150453  22 H  s         

 Vector   64  Occ=2.000000D+00  E=-5.684938D-01
              MO Center=  1.4D+00,  1.1D+00, -4.4D-02, r^2= 1.0D+01
   Bfn.  Coefficient  Atom+Function         Bfn.  Coefficient  Atom+Function  
  ----- ------------  ---------------      ----- ------------  ---------------
   346      0.194850  21 C  py              717      0.186108  41 N  px        
   669     -0.163195  39 C  pz              694     -0.153865  40 O  pz        
   312     -0.150908  19 C  py        

 Vector   65  Occ=2.000000D+00  E=-5.661412D-01
              MO Center= -8.1D-01, -4.8D+00, -1.8D-02, r^2= 5.2D+00
   Bfn.  Coefficient  Atom+Function         Bfn.  Coefficient  Atom+Function  
  ----- ------------  ---------------      ----- ------------  ---------------
    14      0.306494   2 C  px               82      0.265903   6 O  px        
    36     -0.262454   3 H  s                35     -0.236513   3 H  s         
    44      0.220038   4 H  s                57     -0.182718   5 C  px        

 Vector   66  Occ=2.000000D+00  E=-5.582567D-01
              MO Center=  4.3D-01,  8.9D-01, -4.8D-01, r^2= 1.4D+01
   Bfn.  Coefficient  Atom+Function         Bfn.  Coefficient  Atom+Function  
  ----- ------------  ---------------      ----- ------------  ---------------
   347      0.262924  21 C  pz              276      0.171307  17 N  s         
   539     -0.171613  32 C  s               148     -0.161223   9 C  py        

 Vector   67  Occ=2.000000D+00  E=-5.493074D-01
              MO Center= -1.6D-01, -2.0D+00,  7.0D-01, r^2= 9.4D+00
   Bfn.  Coefficient  Atom+Function         Bfn.  Coefficient  Atom+Function  
  ----- ------------  ---------------      ----- ------------  ---------------
   206      0.299219  13 H  s               205      0.273895  13 H  s         
   175     -0.246559  11 C  px              253     -0.198982  16 O  py        
   163     -0.177401  10 H  s               309      0.175208  19 C  s         
   176     -0.165922  11 C  py              215     -0.155662  14 H  s         

 Vector   68  Occ=2.000000D+00  E=-5.453576D-01
              MO Center=  2.4D-01, -2.6D+00,  3.1D-02, r^2= 1.1D+01
   Bfn.  Coefficient  Atom+Function         Bfn.  Coefficient  Atom+Function  
  ----- ------------  ---------------      ----- ------------  ---------------
   254      0.181674  16 O  pz               16      0.169530   2 C  pz        
    35     -0.166977   3 H  s                 1      0.151228   1 H  s         
   139     -0.151317   9 C  s               143     -0.151050   9 C  pz        

 Vector   69  Occ=2.000000D+00  E=-5.383468D-01
              MO Center= -8.2D-01,  1.2D+00, -3.2D-01, r^2= 1.2D+01
   Bfn.  Coefficient  Atom+Function         Bfn.  Coefficient  Atom+Function  
  ----- ------------  ---------------      ----- ------------  ---------------
   539     -0.254042  32 C  s               562      0.250526  33 H  s         
   376      0.235898  23 H  s               573      0.231927  34 C  s         
   540     -0.208452  32 C  px              561      0.205754  33 H  s         
   596     -0.183646  35 H  s               574      0.179137  34 C  px        
   375      0.171195  23 H  s               641     -0.168482  38 C  s         

 Vector   70  Occ=2.000000D+00  E=-5.299122D-01
              MO Center= -3.2D-01, -2.2D+00,  7.6D-01, r^2= 7.0D+00
   Bfn.  Coefficient  Atom+Function         Bfn.  Coefficient  Atom+Function  
  ----- ------------  ---------------      ----- ------------  ---------------
   163      0.288719  10 H  s               215      0.259827  14 H  s         
   197     -0.246528  12 H  s               214      0.237857  14 H  s         
   196     -0.222680  12 H  s               176     -0.207806  11 C  py        
   162      0.189600  10 H  s               175      0.176253  11 C  px        

 Vector   71  Occ=2.000000D+00  E=-5.231759D-01
              MO Center=  7.0D-01,  1.1D+00, -4.6D-01, r^2= 9.8D+00
   Bfn.  Coefficient  Atom+Function         Bfn.  Coefficient  Atom+Function  
  ----- ------------  ---------------      ----- ------------  ---------------
   349      0.221107  21 C  py              332      0.219094  20 H  s         
   348     -0.207985  21 C  px              343     -0.188825  21 C  s         
   596      0.174145  35 H  s               346      0.165776  21 C  py        
   311      0.153095  19 C  px              312     -0.152637  19 C  py        
   309      0.150096  19 C  s         

 Vector   72  Occ=2.000000D+00  E=-5.080266D-01
              MO Center= -6.0D-01,  1.9D+00, -8.0D-01, r^2= 7.4D+00
   Bfn.  Coefficient  Atom+Function         Bfn.  Coefficient  Atom+Function  
  ----- ------------  ---------------      ----- ------------  ---------------
   596      0.268917  35 H  s               376      0.244016  23 H  s         
   367     -0.232894  22 H  s               375      0.193167  23 H  s         
   595      0.190995  35 H  s               346     -0.179385  21 C  py        
   642     -0.171612  38 C  px              389      0.166668  24 C  py        
   414     -0.163965  25 C  py              630     -0.153626  37 H  s         

 Vector   73  Occ=2.000000D+00  E=-5.017032D-01
              MO Center= -7.6D-01, -3.7D+00,  1.9D-01, r^2= 5.3D+00
   Bfn.  Coefficient  Atom+Function         Bfn.  Coefficient  Atom+Function  
  ----- ------------  ---------------      ----- ------------  ---------------
    84      0.317994   6 O  pz               87      0.232284   6 O  pz        
   143     -0.228504   9 C  pz               59      0.204798   5 C  pz        
   177      0.204278  11 C  pz               16     -0.167866   2 C  pz        
     2     -0.158944   1 H  s               162      0.154404  10 H  s         

 Vector   74  Occ=2.000000D+00  E=-4.875503D-01
              MO Center= -1.3D+00,  2.2D+00, -3.3D-01, r^2= 6.1D+00
   Bfn.  Coefficient  Atom+Function         Bfn.  Coefficient  Atom+Function  
  ----- ------------  ---------------      ----- ------------  ---------------
   630      0.332120  37 H  s               505     -0.269103  30 C  s         
   528      0.262026  31 H  s               539      0.248584  32 C  s         
   388      0.214600  24 C  px              642     -0.192135  38 C  px        
   577     -0.183923  34 C  px              483     -0.180329  29 C  pz        
   367     -0.176498  22 H  s               527      0.175143  31 H  s         

 Vector   75  Occ=2.000000D+00  E=-4.741405D-01
              MO Center= -2.2D+00,  2.2D+00, -5.5D-02, r^2= 4.6D+00
   Bfn.  Coefficient  Atom+Function         Bfn.  Coefficient  Atom+Function  
  ----- ------------  ---------------      ----- ------------  ---------------
   573      0.350268  34 C  s               649      0.246393  38 C  py        
   394      0.205900  24 C  px              488     -0.187892  29 C  py        
   576      0.183920  34 C  pz              648      0.180709  38 C  px        
   449     -0.175747  27 N  pz              300     -0.172130  18 H  s         
   542      0.164519  32 C  pz              412     -0.160698  25 C  s         

 Vector   76  Occ=2.000000D+00  E=-4.526352D-01
              MO Center=  2.1D+00, -3.1D-01, -4.8D-02, r^2= 6.0D+00
   Bfn.  Coefficient  Atom+Function         Bfn.  Coefficient  Atom+Function  
  ----- ------------  ---------------      ----- ------------  ---------------
   254      0.328678  16 O  pz              694     -0.269455  40 O  pz        
   257      0.256529  16 O  pz              279     -0.216897  17 N  pz        
   697     -0.210071  40 O  pz              282     -0.201363  17 N  pz        
   692     -0.178024  40 O  px              253     -0.170265  16 O  py        

 Vector   77  Occ=2.000000D+00  E=-4.435241D-01
              MO Center=  1.8D+00, -1.1D+00, -9.8D-03, r^2= 5.2D+00
   Bfn.  Coefficient  Atom+Function         Bfn.  Coefficient  Atom+Function  
  ----- ------------  ---------------      ----- ------------  ---------------
   253      0.379576  16 O  py              256      0.322291  16 O  py        
   252      0.236236  16 O  px              141      0.191161   9 C  px        
   279     -0.186288  17 N  pz              255      0.181941  16 O  px        
   275     -0.172308  17 N  s               692     -0.165318  40 O  px        
   282     -0.160879  17 N  pz        

 Vector   78  Occ=2.000000D+00  E=-4.183393D-01
              MO Center= -1.5D+00, -4.4D+00, -2.0D-01, r^2= 2.6D+00
   Bfn.  Coefficient  Atom+Function         Bfn.  Coefficient  Atom+Function  
  ----- ------------  ---------------      ----- ------------  ---------------
    83      0.536954   6 O  py               86      0.423896   6 O  py        
    13     -0.309580   2 C  s               105     -0.252433   7 N  s         
    18      0.231764   2 C  py              300      0.216694  18 H  s         
    64     -0.211920   5 C  py               15      0.188766   2 C  py        
   145     -0.186213   9 C  py              148     -0.180763   9 C  py        

 Vector   79  Occ=2.000000D+00  E=-4.109042D-01
              MO Center=  2.8D+00,  7.7D-01,  4.2D-01, r^2= 5.6D+00
   Bfn.  Coefficient  Atom+Function         Bfn.  Coefficient  Atom+Function  
  ----- ------------  ---------------      ----- ------------  ---------------
   694      0.379342  40 O  pz              697      0.295782  40 O  pz        
   717      0.287951  41 N  px              720      0.243521  41 N  px        
   716      0.151322  41 N  s         

 Vector   80  Occ=2.000000D+00  E=-4.048879D-01
              MO Center=  1.9D+00,  3.6D-01,  1.9D-01, r^2= 9.2D+00
   Bfn.  Coefficient  Atom+Function         Bfn.  Coefficient  Atom+Function  
  ----- ------------  ---------------      ----- ------------  ---------------
   692      0.308330  40 O  px              695      0.244078  40 O  px        
   279     -0.218871  17 N  pz              717     -0.200447  41 N  px        
   282     -0.197508  17 N  pz              719      0.195163  41 N  pz        
   720     -0.192100  41 N  px              109      0.153380   7 N  pz        

 Vector   81  Occ=2.000000D+00  E=-3.934408D-01
              MO Center= -5.8D-01, -2.1D+00,  3.5D-02, r^2= 1.1D+01
   Bfn.  Coefficient  Atom+Function         Bfn.  Coefficient  Atom+Function  
  ----- ------------  ---------------      ----- ------------  ---------------
   109      0.376590   7 N  pz              112      0.348421   7 N  pz        
    84     -0.290703   6 O  pz               87     -0.223908   6 O  pz        
   505     -0.206300  30 C  s               174      0.195676  11 C  s         
   139      0.172469   9 C  s               164     -0.168964  10 H  s         
    56     -0.152373   5 C  s               149     -0.151826   9 C  pz        

 Vector   82  Occ=2.000000D+00  E=-3.869587D-01
              MO Center= -4.4D-01,  1.5D+00, -1.4D-01, r^2= 1.0D+01
   Bfn.  Coefficient  Atom+Function         Bfn.  Coefficient  Atom+Function  
  ----- ------------  ---------------      ----- ------------  ---------------
   284      0.183386  17 N  py              390     -0.167826  24 C  pz        
   279      0.166213  17 N  pz              309      0.161897  19 C  s         

 Vector   83  Occ=2.000000D+00  E=-3.115726D-01
              MO Center= -2.1D+00,  2.4D+00, -4.2D-02, r^2= 4.2D+00
   Bfn.  Coefficient  Atom+Function         Bfn.  Coefficient  Atom+Function  
  ----- ------------  ---------------      ----- ------------  ---------------
   576     -0.217002  34 C  pz              483      0.200656  29 C  pz        
   579     -0.195721  34 C  pz              539     -0.188327  32 C  s         
   575      0.182225  34 C  py              644      0.169446  38 C  pz        
   482     -0.165661  29 C  py              486      0.158396  29 C  pz        
   646     -0.150969  38 C  py        

 Vector   84  Occ=2.000000D+00  E=-2.941484D-01
              MO Center= -1.2D+00,  2.6D+00, -1.8D-01, r^2= 5.5D+00
   Bfn.  Coefficient  Atom+Function         Bfn.  Coefficient  Atom+Function  
  ----- ------------  ---------------      ----- ------------  ---------------
   390      0.217060  24 C  pz              393      0.205958  24 C  pz        
   415      0.173410  25 C  pz              309     -0.168293  19 C  s         
   389     -0.164785  24 C  py              610     -0.165328  36 C  pz        
   418      0.153405  25 C  pz              542      0.152290  32 C  pz        

 Vector   85  Occ=0.000000D+00  E= 2.802328D-02
              MO Center= -1.2D+00,  3.8D+00,  2.5D+00, r^2= 3.0D+01
   Bfn.  Coefficient  Atom+Function         Bfn.  Coefficient  Atom+Function  
  ----- ------------  ---------------      ----- ------------  ---------------
   300      5.996594  18 H  s               648     -3.311852  38 C  px        
   505     -2.965519  30 C  s               529     -2.628661  31 H  s         
   641      2.602115  38 C  s               394     -2.355788  24 C  px        
   387      2.036250  24 C  s               650      1.986081  38 C  pz        
   488      1.890466  29 C  py              666      1.732812  39 C  s         

 Vector   86  Occ=0.000000D+00  E= 3.338751D-02
              MO Center=  9.6D-01, -2.9D+00,  9.3D-01, r^2= 4.4D+01
   Bfn.  Coefficient  Atom+Function         Bfn.  Coefficient  Atom+Function  
  ----- ------------  ---------------      ----- ------------  ---------------
   148      3.586075   9 C  py               64      3.468624   5 C  py        
   300     -3.297576  18 H  s               106      2.228031   7 N  s         
   641      2.144072  38 C  s               505     -2.063359  30 C  s         
   174     -2.015782  11 C  s                56     -1.895762   5 C  s         
   648     -1.858960  38 C  px              276     -1.711593  17 N  s         

 Vector   87  Occ=0.000000D+00  E= 3.839012D-02
              MO Center= -3.1D-02,  7.6D-02, -8.5D-01, r^2= 4.0D+01
   Bfn.  Coefficient  Atom+Function         Bfn.  Coefficient  Atom+Function  
  ----- ------------  ---------------      ----- ------------  ---------------
   716      3.133331  41 N  s               300      3.105338  18 H  s         
   412      3.058475  25 C  s               666     -2.522565  39 C  s         
   377     -2.460169  23 H  s               648     -2.327555  38 C  px        
   353     -1.949326  21 C  pz              675     -1.757625  39 C  pz        
   234      1.679680  15 C  py              487     -1.609478  29 C  px        

 Vector   88  Occ=0.000000D+00  E= 3.939048D-02
              MO Center= -1.3D+00,  1.7D+00,  7.2D-02, r^2= 4.7D+01
   Bfn.  Coefficient  Atom+Function         Bfn.  Coefficient  Atom+Function  
  ----- ------------  ---------------      ----- ------------  ---------------
   487      4.227351  29 C  px              539      3.404257  32 C  s         
[...]
  ----- ------------  ---------------      ----- ------------  ---------------
   539     10.760780  32 C  s               649     -8.428092  38 C  py        
   573     -7.305174  34 C  s               318     -6.309809  19 C  py        
   641      6.274985  38 C  s                45      5.370112   4 H  s         
    22      4.649047   2 C  pz              607     -4.654845  36 C  s         
   666      4.266738  39 C  s                 2     -4.182209   1 H  s         

 Vector  214  Occ=0.000000D+00  E= 4.481554D-01
              MO Center= -7.5D-01,  2.7D+00,  2.9D-01, r^2= 2.1D+01
   Bfn.  Coefficient  Atom+Function         Bfn.  Coefficient  Atom+Function  
  ----- ------------  ---------------      ----- ------------  ---------------
   505     10.705557  30 C  s               300     -8.780784  18 H  s         
   319      7.727199  19 C  pz              394     -7.529747  24 C  px        
   648      7.415210  38 C  px              276     -7.079103  17 N  s         
   353     -6.856615  21 C  pz              352     -6.572663  21 C  py        
   421     -6.368582  25 C  pz              455      6.306444  27 N  pz        

 Vector  215  Occ=0.000000D+00  E= 4.502882D-01
              MO Center= -5.0D-02, -2.2D+00, -4.3D-02, r^2= 2.5D+01
   Bfn.  Coefficient  Atom+Function         Bfn.  Coefficient  Atom+Function  
  ----- ------------  ---------------      ----- ------------  ---------------
    13     16.975940   2 C  s               396     13.463620  24 C  pz        
   148     12.036623   9 C  py              319    -11.443318  19 C  pz        
   147     10.308793   9 C  px              318     10.096779  19 C  py        
   351     -9.450269  21 C  px              352      9.183478  21 C  py        
   446     -8.113548  27 N  s               573     -7.734689  34 C  s         

 Vector  216  Occ=0.000000D+00  E= 4.535991D-01
              MO Center= -6.3D-01, -2.1D-01, -1.9D-01, r^2= 2.5D+01
   Bfn.  Coefficient  Atom+Function         Bfn.  Coefficient  Atom+Function  
  ----- ------------  ---------------      ----- ------------  ---------------
   573     12.272082  34 C  s               648     11.520290  38 C  px        
   649     11.009622  38 C  py               13    -10.561682   2 C  s         
   318    -10.283368  19 C  py              106    -10.228543   7 N  s         
   319     10.013423  19 C  pz              539     -9.840241  32 C  s         
   666     -9.407695  39 C  s               488     -9.107573  29 C  py        

 Vector  217  Occ=0.000000D+00  E= 4.545124D-01
              MO Center= -2.1D-01,  3.3D-01,  3.6D-01, r^2= 2.4D+01
   Bfn.  Coefficient  Atom+Function         Bfn.  Coefficient  Atom+Function  
  ----- ------------  ---------------      ----- ------------  ---------------
   505     12.035000  30 C  s               233     -8.629449  15 C  px        
    56      8.554028   5 C  s               488      8.055912  29 C  py        
   284      7.909451  17 N  py              641     -7.666716  38 C  s         
   106     -7.105188   7 N  s               487      6.750207  29 C  px        
   615      6.472657  36 C  py              387     -6.200051  24 C  s         

 Vector  218  Occ=0.000000D+00  E= 4.584443D-01
              MO Center= -7.8D-01, -2.6D-01,  1.8D-01, r^2= 2.3D+01
   Bfn.  Coefficient  Atom+Function         Bfn.  Coefficient  Atom+Function  
  ----- ------------  ---------------      ----- ------------  ---------------
   666     14.900427  39 C  s               173    -12.926465  11 C  s         
   206      9.929768  13 H  s               505     -9.026859  30 C  s         
   215      8.362954  14 H  s                12      6.893964   2 C  s         
   114     -6.692855   7 N  py              149     -6.702746   9 C  pz        
   197      6.646007  12 H  s               284     -6.342194  17 N  py        

 Vector  219  Occ=0.000000D+00  E= 4.644650D-01
              MO Center= -4.3D-01,  6.4D-01,  3.8D-01, r^2= 2.2D+01
   Bfn.  Coefficient  Atom+Function         Bfn.  Coefficient  Atom+Function  
  ----- ------------  ---------------      ----- ------------  ---------------
    56     15.986651   5 C  s               148     14.024398   9 C  py        
   174    -11.587992  11 C  s               276     -9.991015  17 N  s         
    13     -7.288124   2 C  s               106      6.672446   7 N  s         
   283      5.869969  17 N  px              147      5.392752   9 C  px        
   233     -5.218287  15 C  px              234      5.200701  15 C  py        

 Vector  220  Occ=0.000000D+00  E= 4.665851D-01
              MO Center= -7.1D-01, -1.8D-01,  1.8D-01, r^2= 2.3D+01
   Bfn.  Coefficient  Atom+Function         Bfn.  Coefficient  Atom+Function  
  ----- ------------  ---------------      ----- ------------  ---------------
   446     11.982896  27 N  s               276     -9.743891  17 N  s         
    13     -9.188136   2 C  s                56      8.719434   5 C  s         
   148      7.460741   9 C  py              174     -7.212799  11 C  s         
   573     -7.048659  34 C  s               198      6.669672  12 H  s         
   607     -6.059556  36 C  s               106      5.711181   7 N  s         

 Vector  221  Occ=0.000000D+00  E= 4.678257D-01
              MO Center= -5.8D-02, -9.8D-01, -1.2D-01, r^2= 2.5D+01
   Bfn.  Coefficient  Atom+Function         Bfn.  Coefficient  Atom+Function  
  ----- ------------  ---------------      ----- ------------  ---------------
   233    -15.695511  15 C  px              148     15.238588   9 C  py        
   539     14.874091  32 C  s               300    -14.104464  18 H  s         
   147     11.327690   9 C  px              283     10.319389  17 N  px        
   538    -10.211113  32 C  s               666     -9.164612  39 C  s         
   505     -9.031479  30 C  s               317      8.946430  19 C  px        

 Vector  222  Occ=0.000000D+00  E= 4.703150D-01
              MO Center=  4.0D-01,  4.6D-01, -4.8D-02, r^2= 2.4D+01
   Bfn.  Coefficient  Atom+Function         Bfn.  Coefficient  Atom+Function  
  ----- ------------  ---------------      ----- ------------  ---------------
   666     21.322607  39 C  s               446     13.119342  27 N  s         
   488    -12.783118  29 C  py              573     12.731419  34 C  s         
   716    -11.011305  41 N  s               648     10.027811  38 C  px        
   174     -9.914371  11 C  s               147     -9.151710   9 C  px        
   487     -8.916764  29 C  px              300      8.309087  18 H  s         

 Vector  223  Occ=0.000000D+00  E= 4.757565D-01
              MO Center=  4.3D-02, -9.9D-01,  4.8D-01, r^2= 2.1D+01
   Bfn.  Coefficient  Atom+Function         Bfn.  Coefficient  Atom+Function  
  ----- ------------  ---------------      ----- ------------  ---------------
   539     17.245858  32 C  s               206     -8.187145  13 H  s         
   607     -8.148526  36 C  s               505     -7.849490  30 C  s         
   173      7.433665  11 C  s                56     -6.335179   5 C  s         
   716      5.755840  41 N  s               513      5.708454  30 C  py        
   147     -5.069843   9 C  px              376      5.073444  23 H  s         

 Vector  224  Occ=0.000000D+00  E= 4.821573D-01
              MO Center= -4.3D-02, -2.8D-01,  3.4D-01, r^2= 2.1D+01
   Bfn.  Coefficient  Atom+Function         Bfn.  Coefficient  Atom+Function  
  ----- ------------  ---------------      ----- ------------  ---------------
   716     14.090559  41 N  s                56     13.962655   5 C  s         
   148     13.815552   9 C  py              666    -13.771874  39 C  s         
   174    -11.817247  11 C  s               300    -10.461782  18 H  s         
   573      9.734030  34 C  s               446     -9.680481  27 N  s         
   344     -8.435759  21 C  s               352      8.119419  21 C  py        

 Vector  225  Occ=0.000000D+00  E= 4.827063D-01
              MO Center= -1.8D-01, -2.0D-01, -1.8D-01, r^2= 2.3D+01
   Bfn.  Coefficient  Atom+Function         Bfn.  Coefficient  Atom+Function  
  ----- ------------  ---------------      ----- ------------  ---------------
   300     18.676072  18 H  s               148    -15.799236   9 C  py        
   344     14.104789  21 C  s                56    -14.029911   5 C  s         
   396    -13.851792  24 C  pz              233     13.666433  15 C  px        
   648    -13.249299  38 C  px              174     12.657911  11 C  s         
   149    -12.509768   9 C  pz              539     11.819992  32 C  s         

 Vector  226  Occ=0.000000D+00  E= 4.850826D-01
              MO Center=  6.3D-01,  1.9D-01, -1.7D-01, r^2= 2.4D+01
   Bfn.  Coefficient  Atom+Function         Bfn.  Coefficient  Atom+Function  
  ----- ------------  ---------------      ----- ------------  ---------------
   666     16.157603  39 C  s               276    -11.617330  17 N  s         
    13     10.261010   2 C  s               319      8.127406  19 C  pz        
   648      6.575466  38 C  px              446      6.508731  27 N  s         
   317     -6.312708  19 C  px              234      5.973750  15 C  py        
   650     -5.699080  38 C  pz              616      5.459841  36 C  pz        

 Vector  227  Occ=0.000000D+00  E= 4.920762D-01
              MO Center=  1.8D-01, -1.4D+00, -3.9D-02, r^2= 2.4D+01
   Bfn.  Coefficient  Atom+Function         Bfn.  Coefficient  Atom+Function  
  ----- ------------  ---------------      ----- ------------  ---------------
    13     16.830415   2 C  s                56    -14.708969   5 C  s         
   174     13.141842  11 C  s               276    -11.428474  17 N  s         
   539    -10.865629  32 C  s               147     10.608840   9 C  px        
   666     -9.606986  39 C  s               148      9.155688   9 C  py        
   234      9.174251  15 C  py              300     -8.181143  18 H  s         

 Vector  228  Occ=0.000000D+00  E= 4.968670D-01
              MO Center= -4.7D-01,  6.6D-01, -7.4D-03, r^2= 2.2D+01
   Bfn.  Coefficient  Atom+Function         Bfn.  Coefficient  Atom+Function  
  ----- ------------  ---------------      ----- ------------  ---------------
   276     11.357253  17 N  s               666    -10.090122  39 C  s         
   148     -8.808625   9 C  py              412      8.815152  25 C  s         
   300      7.750723  18 H  s               233      7.275266  15 C  px        
   395      7.213155  24 C  py              147     -7.111708   9 C  px        
   394      7.142821  24 C  px              641     -7.053385  38 C  s         

 Vector  229  Occ=0.000000D+00  E= 5.001322D-01
              MO Center=  5.7D-01, -8.9D-01,  4.5D-01, r^2= 2.3D+01
   Bfn.  Coefficient  Atom+Function         Bfn.  Coefficient  Atom+Function  
  ----- ------------  ---------------      ----- ------------  ---------------
    56     14.475638   5 C  s               174    -13.317705  11 C  s         
   716     10.453179  41 N  s               164      9.826737  10 H  s         
    13     -9.763111   2 C  s               114      9.401561   7 N  py        
   641     -9.216835  38 C  s               276      8.686907  17 N  s         
   666     -8.567549  39 C  s               394     -7.833493  24 C  px        


 center of mass
 --------------
 x =   0.01998529 y =   0.06323824 z =  -0.01676334

 moments of inertia (a.u.)
 ------------------
        9971.416741621662          -0.000000000001           0.000000000002
          -0.000000000001        5428.757830956860           0.000000000003
           0.000000000002           0.000000000003       14037.382506026210

  Mulliken analysis of the total density
  --------------------------------------

    Atom       Charge   Shell Charges
 -----------   ------   -------------------------------------------------------
    1 H    1     0.83   0.76  0.09  0.01  0.03 -0.07
    2 C    6     6.50   2.01  0.66  0.30  0.27  2.06  1.05 -0.02  0.06  0.12
    3 H    1     0.96   0.76  0.21  0.01  0.03 -0.06
    4 H    1     0.82   0.76  0.08  0.01  0.03 -0.06
    5 C    6     5.02   2.01  0.68  0.09 -0.17  1.90  0.30 -0.04  0.24  0.02
    6 O    8     8.73   2.01  0.82  0.99  0.16  2.79  1.82  0.14  0.01 -0.02
    7 N    7     7.65   2.01  0.72  0.89 -0.03  2.46  1.45  0.05  0.05  0.05
    8 H    1     1.00   0.75  0.22  0.00  0.06 -0.03
    9 C    6     6.49   2.01  0.66  0.14  0.00  2.00  1.31  0.07  0.14  0.16
   10 H    1     1.15   0.78  0.34 -0.00  0.03 -0.00
   11 C    6     5.51   2.01  0.67  0.19  0.12  2.04  0.41  0.01  0.07  0.00
   12 H    1     0.94   0.77  0.16  0.04  0.03 -0.06
   13 H    1     1.01   0.77  0.30 -0.01  0.03 -0.07
   14 H    1     0.89   0.78  0.16 -0.00  0.03 -0.08
   15 C    6     4.79   2.01  0.68  0.06  0.04  1.89  0.18  0.03  0.23 -0.33
   16 O    8     8.91   2.01  0.82  1.04  0.20  2.79  1.88  0.16  0.01  0.00
   17 N    7     7.22   2.01  0.72  0.83 -0.19  2.45  1.42 -0.08  0.05  0.01
   18 H    1     0.96   0.76  0.35 -0.01  0.06 -0.19
   19 C    6     6.52   2.01  0.67  0.13  0.00  1.99  1.38  0.06  0.14  0.16
   20 H    1     0.96   0.78  0.14  0.01  0.03  0.00
   21 C    6     5.54   2.01  0.66  0.06 -0.03  2.05  0.72 -0.02  0.10 -0.01
   22 H    1     1.06   0.77  0.30  0.01  0.03 -0.05
   23 H    1     0.83   0.78  0.12 -0.04  0.03 -0.07
   24 C    6     6.29   2.01  0.65  0.16 -0.15  2.05  1.04  0.20  0.12  0.21
   25 C    6     4.81   2.01  0.67 -0.01 -0.14  1.98  0.36  0.01  0.12 -0.19
   26 H    1     1.34   0.76  0.57 -0.00  0.03 -0.02
   27 N    7     8.08   2.01  0.72  1.17 -0.03  2.44  1.53  0.02  0.06  0.17
   28 H    1     1.07   0.77  0.26 -0.00  0.05 -0.00
   29 C    6     5.62   2.01  0.66  0.17 -0.09  2.00  0.48  0.28  0.15 -0.03
   30 C    6     5.14   2.01  0.66  0.19 -0.50  2.02  0.69  0.18  0.09 -0.19
   31 H    1     1.52   0.78  0.72 -0.00  0.03 -0.00
   32 C    6     5.70   2.01  0.66  0.21 -0.29  2.00  0.91  0.34  0.09 -0.23
   33 H    1     1.54   0.78  0.71 -0.00  0.03  0.02
   34 C    6     4.89   2.01  0.66 -0.02 -0.49  2.00  0.69  0.22  0.09 -0.27
   35 H    1     1.62   0.78  0.80 -0.02  0.03  0.03
   36 C    6     5.33   2.01  0.66  0.23 -0.30  2.00  0.87 -0.05  0.09 -0.19
   37 H    1     1.66   0.79  0.83  0.02  0.03 -0.00
   38 C    6     6.56   2.01  0.66  0.24 -0.13  2.02  1.34  0.24  0.12  0.05
   39 C    6     4.52   2.01  0.68  0.03  0.12  1.89 -0.15 -0.07  0.24 -0.22
   40 O    8     8.82   2.01  0.82  1.03  0.16  2.79  1.84  0.16  0.01 -0.00
   41 N    7     7.26   2.01  0.72  0.85 -0.15  2.47  1.25  0.08  0.04 -0.01
   42 H    1     1.02   0.76  0.24  0.00  0.05 -0.03
   43 H    1     0.91   0.74  0.20 -0.02  0.06 -0.06

       Multipole analysis of the density wrt the origin
       ------------------------------------------------

     L   x y z        total         open         nuclear
     -   - - -        -----         ----         -------
     0   0 0 0     -0.000000      0.000000    168.000000

     1   1 0 0      0.102071      0.000000     -0.000000
     1   0 1 0      0.354543      0.000000     -0.000000
     1   0 0 1      0.796335      0.000000     -0.000000

     2   2 0 0   -113.745408      0.000000   2548.965507
     2   1 1 0    -13.771372      0.000000     -7.073335
     2   1 0 1     -1.365559      0.000000     -9.092123
     2   0 2 0    -94.791319      0.000000   5040.814740
     2   0 1 1      2.928587      0.000000     -6.169069
     2   0 0 2    -96.736101      0.000000    413.717050


 Task  times  cpu:    11570.6s     wall:    11774.6s


                                NWChem Input Module
                                -------------------


 Summary of allocated global arrays
-----------------------------------
  No active global arrays


MA_summarize_allocated_blocks: starting scan ...
MA_summarize_allocated_blocks: scan completed: 0 heap blocks, 0 stack blocks
MA usage statistics:

	allocation statistics:
					      heap	     stack
					      ----	     -----
	current number of blocks	         0	         0
	maximum number of blocks	        16	        14
	current total bytes		         0	         0
	maximum total bytes		    162016	  33964408
	maximum total K-bytes		       163	     33965
	maximum total M-bytes		         1	        34


                                     CITATION
                                     --------
                Please cite the following reference when publishing
                           results obtained with NWChem:

          E. Apra, E. J. Bylaska, W. A. de Jong, N. Govind, K. Kowalski,
       T. P. Straatsma, M. Valiev, H. J. J. van Dam, Y. Alexeev, J. Anchell,
       V. Anisimov, F. W. Aquino, R. Atta-Fynn, J. Autschbach, N. P. Bauman,
     J. C. Becca, D. E. Bernholdt, K. Bhaskaran-Nair, S. Bogatko, P. Borowski,
         J. Boschen, J. Brabec, A. Bruner, E. Cauet, Y. Chen, G. N. Chuev,
      C. J. Cramer, J. Daily, M. J. O. Deegan, T. H. Dunning Jr., M. Dupuis,
   K. G. Dyall, G. I. Fann, S. A. Fischer, A. Fonari, H. Fruchtl, L. Gagliardi,
      J. Garza, N. Gawande, S. Ghosh, K. Glaesemann, A. W. Gotz, J. Hammond,
       V. Helms, E. D. Hermes, K. Hirao, S. Hirata, M. Jacquelin, L. Jensen,
   B. G. Johnson, H. Jonsson, R. A. Kendall, M. Klemm, R. Kobayashi, V. Konkov,
      S. Krishnamoorthy, M. Krishnan, Z. Lin, R. D. Lins, R. J. Littlefield,
      A. J. Logsdail, K. Lopata, W. Ma, A. V. Marenich, J. Martin del Campo,
   D. Mejia-Rodriguez, J. E. Moore, J. M. Mullin, T. Nakajima, D. R. Nascimento,
    J. A. Nichols, P. J. Nichols, J. Nieplocha, A. Otero-de-la-Roza, B. Palmer,
    A. Panyala, T. Pirojsirikul, B. Peng, R. Peverati, J. Pittner, L. Pollack,
   R. M. Richard, P. Sadayappan, G. C. Schatz, W. A. Shelton, D. W. Silverstein,
   D. M. A. Smith, T. A. Soares, D. Song, M. Swart, H. L. Taylor, G. S. Thomas,
            V. Tipparaju, D. G. Truhlar, K. Tsemekhman, T. Van Voorhis,
      A. Vazquez-Mayagoitia, P. Verma, O. Villa, A. Vishnu, K. D. Vogiatzis,
        D. Wang, J. H. Weare, M. J. Williamson, T. L. Windus, K. Wolinski,
        A. T. Wong, Q. Wu, C. Yang, Q. Yu, M. Zacharias, Z. Zhang, Y. Zhao,
                                and R. J. Harrison
                        "NWChem: Past, present, and future
                         J. Chem. Phys. 152, 184102 (2020)
                               doi:10.1063/5.0004997

                                      AUTHORS
                                      -------
  E. Apra, E. J. Bylaska, N. Govind, K. Kowalski, M. Valiev, D. Mejia-Rodriguez,
       A. Kunitsa, N. P. Bauman, A. Panyala, W. A. de Jong, T. P. Straatsma,
   H. J. J. van Dam, D. Wang, T. L. Windus, J. Hammond, J. Autschbach, A. Woods,
    K. Bhaskaran-Nair, J. Brabec, K. Lopata, S. A. Fischer, S. Krishnamoorthy,
     M. Jacquelin, W. Ma, M. Klemm, O. Villa, Y. Chen, V. Anisimov, F. Aquino,
     S. Hirata, M. T. Hackler, E. Hermes, L. Jensen, J. E. Moore, J. C. Becca,
      V. Konjkov, T. Risthaus, M. Malagoli, A. Marenich, A. Otero-de-la-Roza,
        J. Mullin, P. Nichols, R. Peverati, J. Pittner, Y. Zhao, P.-D. Fan,
        A. Fonari, M. J. Williamson, R. J. Harrison, J. R. Rehr, M. Dupuis,
     D. Silverstein, D. M. A. Smith, J. Nieplocha, V. Tipparaju, M. Krishnan,
     B. E. Van Kuiken, A. Vazquez-Mayagoitia, M. Swart, Q. Wu, T. Van Voorhis,
     A. A. Auer, M. Nooijen, L. D. Crosby, E. Brown, G. Cisneros, G. I. Fann,
   H. Fruchtl, J. Garza, K. Hirao, R. A. Kendall, J. A. Nichols, K. Tsemekhman,
    K. Wolinski, J. Anchell, D. E. Bernholdt, P. Borowski, T. Clark, D. Clerc,
   H. Dachsel, M. J. O. Deegan, K. Dyall, D. Elwood, E. Glendening, M. Gutowski,
   A. C. Hess, J. Jaffe, B. G. Johnson, J. Ju, R. Kobayashi, R. Kutteh, Z. Lin,
   R. Littlefield, X. Long, B. Meng, T. Nakajima, S. Niu, L. Pollack, M. Rosing,
   K. Glaesemann, G. Sandrone, M. Stave, H. Taylor, G. Thomas, J. H. van Lenthe,
                               A. T. Wong, Z. Zhang.

 Total times  cpu:    11570.6s     wall:    11775.1s
