export TMOUT=5400
export TMPDIR=/tmp
export PTMPDIR=/tmp/ptmp
 argument  1 = ALA_SER_0.nw
                                         
                                         


             Northwest Computational Chemistry Package (NWChem) 7.2.0
             --------------------------------------------------------


                    Environmental Molecular Sciences Laboratory
                       Pacific Northwest National Laboratory
                                Richland, WA 99352

                              Copyright (c) 1994-2022
                       Pacific Northwest National Laboratory
                            Battelle Memorial Institute

             NWChem is an open-source computational chemistry package
                        distributed under the terms of the
                      Educational Community License (ECL) 2.0
             A copy of the license is included with this distribution
                              in the LICENSE.TXT file

                                  ACKNOWLEDGMENT
                                  --------------

            This software and its documentation were developed at the
            EMSL at Pacific Northwest National Laboratory, a multiprogram
            national laboratory, operated for the U.S. Department of Energy
            by Battelle under Contract Number DE-AC05-76RL01830. Support
            for this work was provided by the Department of Energy Office
            of Biological and Environmental Research, Office of Basic
            Energy Sciences, and the Office of Advanced Scientific Computing.


           Job information
           ---------------

    hostname        = nova18-41
    program         = /opt/rit/el9/20230413/app/linux-rhel9-x86_64_v3/gcc-11.2.1/nwchem-7.2.0-oxtctbuhfuzyfaoziquq6bki22grib3g/bin/nwchem
    date            = Mon Jun 30 09:30:38 2025

    compiled        = Wed_May_17_23:46:39_2023
    source          = /tmp/root/spack-stage/spack-stage-nwchem-7.2.0-oxtctbuhfuzyfaoziquq6bki22grib3g/spack-src
    nwchem branch   = 7.2.0
    nwchem revision = d0d141fd
    ga revision     = 5.8.0
    use scalapack   = T
    input           = ALA_SER_0.nw
    prefix          = ALA_SER_0.
    data base       = ./ALA_SER_0.db
    status          = startup
    nproc           =        8
    time left       =     -1s



           Memory information
           ------------------

    heap     =   26214398 doubles =    200.0 Mbytes
    stack    =   26214395 doubles =    200.0 Mbytes
    global   =   52428800 doubles =    400.0 Mbytes (distinct from heap & stack)
    total    =  104857593 doubles =    800.0 Mbytes
    verify   = yes
    hardfail = no 


           Directory information
           ---------------------

  0 permanent = .
  0 scratch   = .




                                NWChem Input Module
                                -------------------



 Scaling coordinates for geometry "geometry" by  1.889725989
 (inverse scale =  0.529177249)

 C1  symmetry detected

          ------
          auto-z
          ------
  no constraints, skipping    0.0000000000000000     
  no constraints, skipping    0.0000000000000000     


                             Geometry "geometry" -> ""
                             -------------------------

 Output coordinates in angstroms (scale by  1.889725989 to convert to a.u.)

  No.       Tag          Charge          X              Y              Z
 ---- ---------------- ---------- -------------- -------------- --------------
    1 H                    1.0000    -0.31044192     4.49923373    -1.78156531
    2 C                    6.0000     0.43871490     4.61824369    -1.00120021
    3 H                    1.0000     0.12781447     5.38833107    -0.29761273
    4 H                    1.0000     1.39128818     4.89729022    -1.45127042
    5 C                    6.0000     0.60900425     3.30839648    -0.26996372
    6 O                    8.0000     1.69459487     2.74186168    -0.26122721
    7 N                    7.0000    -0.46362998     2.82357856     0.35092952
    8 H                    1.0000    -1.33365138     3.32277982     0.27068701
    9 C                    6.0000    -0.47466246     1.51712378     1.00687401
   10 H                    1.0000     0.41470256     1.44429983     1.63588716
   11 C                    6.0000    -1.70895047     1.42237498     1.91169707
   12 H                    1.0000    -1.70569159     0.46769338     2.43831878
   13 H                    1.0000    -1.69494481     2.22959071     2.64555851
   14 H                    1.0000    -2.61785460     1.49376365     1.31236832
   15 C                    6.0000    -0.43000188     0.36760106    -0.01993656
   16 O                    8.0000    -1.13703792     0.39605513    -1.02767184
   17 N                    7.0000     0.36015169    -0.67103752     0.26173211
   18 H                    1.0000     0.90906866    -0.64324309     1.10868348
   19 C                    6.0000     0.54872571    -1.85548977    -0.59085202
   20 H                    1.0000     0.63337092    -1.52195999    -1.62511266
   21 C                    6.0000     1.87335493    -2.52985462    -0.20960212
   22 H                    1.0000     2.05582917    -3.38163482    -0.86712447
   23 H                    1.0000     2.69040903    -1.81525464    -0.32652710
   24 O                    8.0000     1.82499021    -2.96882204     1.13406542
   25 H                    1.0000     1.18151692    -3.69243518     1.16194285
   26 C                    6.0000    -0.63730464    -2.83858587    -0.52603627
   27 O                    8.0000    -0.49170258    -3.99595119    -0.14223870
   28 N                    7.0000    -1.84099893    -2.39266290    -0.85624643
   29 H                    1.0000    -2.62282968    -3.02347045    -0.80523157
   30 H                    1.0000    -1.94728401    -1.42813813    -1.14321064

      Atomic Mass 
      ----------- 

      H                  1.007825
      C                 12.000000
      O                 15.994910
      N                 14.003070


 Effective nuclear repulsion energy (a.u.)    1066.4515954941

            Nuclear Dipole moment (a.u.) 
            ----------------------------
        X                 Y               Z
 ---------------- ---------------- ----------------
    -0.0000000000    -0.0000000000     0.0000000000



                                Z-matrix (autoz)
                                -------- 

 Units are Angstrom for bonds and degrees for angles

      Type          Name      I     J     K     L     M      Value
      ----------- --------  ----- ----- ----- ----- ----- ----------
    1 Stretch                  1     2                       1.08829
    2 Stretch                  2     3                       1.08845
    3 Stretch                  2     4                       1.08987
    4 Stretch                  2     5                       1.50977
    5 Stretch                  5     6                       1.22456
    6 Stretch                  5     7                       1.33083
    7 Stretch                  7     8                       1.00627
    8 Stretch                  7     9                       1.46192
    9 Stretch                  9    10                       1.09176
   10 Stretch                  9    11                       1.53335
   11 Stretch                  9    15                       1.54199
   12 Stretch                 11    12                       1.09030
   13 Stretch                 11    13                       1.09103
   14 Stretch                 11    14                       1.09105
   15 Stretch                 15    16                       1.23136
   16 Stretch                 15    17                       1.33508
   17 Stretch                 17    18                       1.00966
   18 Stretch                 17    19                       1.47153
   19 Stretch                 19    20                       1.09000
   20 Stretch                 19    21                       1.53452
   21 Stretch                 19    26                       1.54186
   22 Stretch                 21    22                       1.09140
   23 Stretch                 21    23                       1.09174
   24 Stretch                 21    24                       1.41438
   25 Stretch                 24    25                       0.96874
   26 Stretch                 26    27                       1.22800
   27 Stretch                 26    28                       1.32543
   28 Stretch                 28    29                       1.00587
   29 Stretch                 28    30                       1.01191
   30 Bend                     1     2     3               110.13648
   31 Bend                     1     2     4               109.48411
   32 Bend                     1     2     5               109.27281
   33 Bend                     2     5     6               120.31993
   34 Bend                     2     5     7               116.81523
   35 Bend                     3     2     4               109.59952
   36 Bend                     3     2     5               109.44830
   37 Bend                     4     2     5               108.87829
   38 Bend                     5     7     8               118.61564
   39 Bend                     5     7     9               122.74994
   40 Bend                     6     5     7               122.86451
   41 Bend                     7     9    10               108.17816
   42 Bend                     7     9    11               109.03010
   43 Bend                     7     9    15               111.54328
   44 Bend                     8     7     9               118.20255
   45 Bend                     9    11    12               109.67717
   46 Bend                     9    11    13               109.92970
   47 Bend                     9    11    14               110.02231
   48 Bend                     9    15    16               120.73787
   49 Bend                     9    15    17               117.16824
   50 Bend                    10     9    11               108.15771
   51 Bend                    10     9    15               108.07952
   52 Bend                    11     9    15               111.72761
   53 Bend                    12    11    13               108.83915
   54 Bend                    12    11    14               108.97180
   55 Bend                    13    11    14               109.37615
   56 Bend                    15    17    18               118.51066
   57 Bend                    15    17    19               125.43622
   58 Bend                    16    15    17               122.03696
   59 Bend                    17    19    20               108.26514
   60 Bend                    17    19    21               108.68722
   61 Bend                    17    19    26               112.97223
   62 Bend                    18    17    19               116.00870
   63 Bend                    19    21    22               109.73195
   64 Bend                    19    21    23               109.37621
   65 Bend                    19    21    24               110.05370
   66 Bend                    19    26    27               121.52419
   67 Bend                    19    26    28               118.26711
   68 Bend                    20    19    21               107.64872
   69 Bend                    20    19    26               107.14087
   70 Bend                    21    19    26               111.92283
   71 Bend                    21    24    25               106.37246
   72 Bend                    22    21    23               108.73500
   73 Bend                    22    21    24               109.62323
   74 Bend                    23    21    24               109.29805
   75 Bend                    26    28    29               118.83272
   76 Bend                    26    28    30               119.12537
   77 Bend                    27    26    28               120.17383
   78 Bend                    29    28    30               122.03947
   79 Torsion                  1     2     5     6         119.25062
   80 Torsion                  1     2     5     7         -60.95367
   81 Torsion                  2     5     7     8           2.68361
   82 Torsion                  2     5     7     9         174.99987
   83 Torsion                  3     2     5     6        -120.07018
   84 Torsion                  3     2     5     7          59.72554
   85 Torsion                  4     2     5     6          -0.28759
   86 Torsion                  4     2     5     7         179.50813
   87 Torsion                  5     7     9    10          48.23443
   88 Torsion                  5     7     9    11         165.63595
   89 Torsion                  5     7     9    15         -70.50343
   90 Torsion                  6     5     7     8        -177.52633
   91 Torsion                  6     5     7     9          -5.21008
   92 Torsion                  7     9    11    12        -177.65819
   93 Torsion                  7     9    11    13         -58.02505
   94 Torsion                  7     9    11    14          62.48796
   95 Torsion                  7     9    15    16         -44.39966
   96 Torsion                  7     9    15    17         138.28947
   97 Torsion                  8     7     9    10        -139.41923
   98 Torsion                  8     7     9    11         -22.01771
   99 Torsion                  8     7     9    15         101.84291
  100 Torsion                  9    15    17    18          -1.97648
  101 Torsion                  9    15    17    19        -179.44864
  102 Torsion                 10     9    11    12         -60.24373
  103 Torsion                 10     9    11    13          59.38941
  104 Torsion                 10     9    11    14         179.90241
  105 Torsion                 10     9    15    16        -163.19634
  106 Torsion                 10     9    15    17          19.49279
  107 Torsion                 11     9    15    16          77.92312
  108 Torsion                 11     9    15    17         -99.38775
  109 Torsion                 12    11     9    15          58.59038
  110 Torsion                 13    11     9    15         178.22352
  111 Torsion                 14    11     9    15         -61.26348
  112 Torsion                 15    17    19    20          42.10935
  113 Torsion                 15    17    19    21         158.76744
  114 Torsion                 15    17    19    26         -76.38024
  115 Torsion                 16    15    17    18        -179.24986
  116 Torsion                 16    15    17    19           3.27798
  117 Torsion                 17    19    21    22        -177.07532
  118 Torsion                 17    19    21    23         -57.87535
  119 Torsion                 17    19    21    24          62.21154
  120 Torsion                 17    19    26    27        -119.68473
  121 Torsion                 17    19    26    28          58.17014
  122 Torsion                 18    17    19    20        -135.41910
  123 Torsion                 18    17    19    21         -18.76100
  124 Torsion                 18    17    19    26         106.09132
  125 Torsion                 19    21    24    25          68.20535
  126 Torsion                 19    26    28    29        -179.19466
  127 Torsion                 19    26    28    30           0.24919
  128 Torsion                 20    19    21    22         -60.02268
  129 Torsion                 20    19    21    23          59.17729
  130 Torsion                 20    19    21    24         179.26417
  131 Torsion                 20    19    26    27         121.17332
  132 Torsion                 20    19    26    28         -60.97181
  133 Torsion                 21    19    26    27           3.38988
  134 Torsion                 21    19    26    28        -178.75525
  135 Torsion                 22    21    19    26          57.45684
  136 Torsion                 22    21    24    25         -52.57316
  137 Torsion                 23    21    19    26         176.65681
  138 Torsion                 23    21    24    25        -171.66047
  139 Torsion                 24    21    19    26         -63.25631
  140 Torsion                 27    26    28    29          -1.30979
  141 Torsion                 27    26    28    30         178.13406


            XYZ format geometry
            -------------------
    30
 geometry
 H                    -0.31044192     4.49923373    -1.78156531
 C                     0.43871490     4.61824369    -1.00120021
 H                     0.12781447     5.38833107    -0.29761273
 H                     1.39128818     4.89729022    -1.45127042
 C                     0.60900425     3.30839648    -0.26996372
 O                     1.69459487     2.74186168    -0.26122721
 N                    -0.46362998     2.82357856     0.35092952
 H                    -1.33365138     3.32277982     0.27068701
 C                    -0.47466246     1.51712378     1.00687401
 H                     0.41470256     1.44429983     1.63588716
 C                    -1.70895047     1.42237498     1.91169707
 H                    -1.70569159     0.46769338     2.43831878
 H                    -1.69494481     2.22959071     2.64555851
 H                    -2.61785460     1.49376365     1.31236832
 C                    -0.43000188     0.36760106    -0.01993656
 O                    -1.13703792     0.39605513    -1.02767184
 N                     0.36015169    -0.67103752     0.26173211
 H                     0.90906866    -0.64324309     1.10868348
 C                     0.54872571    -1.85548977    -0.59085202
 H                     0.63337092    -1.52195999    -1.62511266
 C                     1.87335493    -2.52985462    -0.20960212
 H                     2.05582917    -3.38163482    -0.86712447
 H                     2.69040903    -1.81525464    -0.32652710
 O                     1.82499021    -2.96882204     1.13406542
 H                     1.18151692    -3.69243518     1.16194285
 C                    -0.63730464    -2.83858587    -0.52603627
 O                    -0.49170258    -3.99595119    -0.14223870
 N                    -1.84099893    -2.39266290    -0.85624643
 H                    -2.62282968    -3.02347045    -0.80523157
 H                    -1.94728401    -1.42813813    -1.14321064

 ==============================================================================
                                internuclear distances
 ------------------------------------------------------------------------------
       center one      |      center two      | atomic units |  angstroms
 ------------------------------------------------------------------------------
    2 C                |   1 H                |     2.05656  |     1.08829
    3 H                |   2 C                |     2.05688  |     1.08845
    4 H                |   2 C                |     2.05956  |     1.08987
    5 C                |   2 C                |     2.85305  |     1.50977
    6 O                |   5 C                |     2.31408  |     1.22456
    7 N                |   5 C                |     2.51490  |     1.33083
    8 H                |   7 N                |     1.90157  |     1.00627
    9 C                |   7 N                |     2.76263  |     1.46192
   10 H                |   9 C                |     2.06312  |     1.09176
   11 C                |   9 C                |     2.89760  |     1.53335
   12 H                |  11 C                |     2.06037  |     1.09030
   13 H                |  11 C                |     2.06175  |     1.09103
   14 H                |  11 C                |     2.06179  |     1.09105
   15 C                |   9 C                |     2.91394  |     1.54199
   16 O                |  15 C                |     2.32693  |     1.23136
   17 N                |  15 C                |     2.52294  |     1.33508
   18 H                |  17 N                |     1.90798  |     1.00966
   19 C                |  17 N                |     2.78078  |     1.47153
   20 H                |  19 C                |     2.05980  |     1.09000
   21 C                |  19 C                |     2.89983  |     1.53452
   22 H                |  21 C                |     2.06245  |     1.09140
   23 H                |  21 C                |     2.06309  |     1.09174
   24 O                |  21 C                |     2.67279  |     1.41438
   25 H                |  24 O                |     1.83065  |     0.96874
   26 C                |  19 C                |     2.91370  |     1.54186
   27 O                |  26 C                |     2.32059  |     1.22800
   28 N                |  26 C                |     2.50470  |     1.32543
   29 H                |  28 N                |     1.90082  |     1.00587
   30 H                |  28 N                |     1.91222  |     1.01191
 ------------------------------------------------------------------------------
                         number of included internuclear distances:         29
 ==============================================================================



 ==============================================================================
                                 internuclear angles
 ------------------------------------------------------------------------------
        center 1       |       center 2       |       center 3       |  degrees
 ------------------------------------------------------------------------------
    1 H                |   2 C                |   3 H                |   110.14
    1 H                |   2 C                |   4 H                |   109.48
    1 H                |   2 C                |   5 C                |   109.27
    3 H                |   2 C                |   4 H                |   109.60
    3 H                |   2 C                |   5 C                |   109.45
    4 H                |   2 C                |   5 C                |   108.88
    2 C                |   5 C                |   6 O                |   120.32
    2 C                |   5 C                |   7 N                |   116.82
    6 O                |   5 C                |   7 N                |   122.86
    5 C                |   7 N                |   8 H                |   118.62
    5 C                |   7 N                |   9 C                |   122.75
    8 H                |   7 N                |   9 C                |   118.20
    7 N                |   9 C                |  10 H                |   108.18
    7 N                |   9 C                |  11 C                |   109.03
    7 N                |   9 C                |  15 C                |   111.54
   10 H                |   9 C                |  11 C                |   108.16
   10 H                |   9 C                |  15 C                |   108.08
   11 C                |   9 C                |  15 C                |   111.73
    9 C                |  11 C                |  12 H                |   109.68
    9 C                |  11 C                |  13 H                |   109.93
    9 C                |  11 C                |  14 H                |   110.02
   12 H                |  11 C                |  13 H                |   108.84
   12 H                |  11 C                |  14 H                |   108.97
   13 H                |  11 C                |  14 H                |   109.38
    9 C                |  15 C                |  16 O                |   120.74
    9 C                |  15 C                |  17 N                |   117.17
   16 O                |  15 C                |  17 N                |   122.04
   15 C                |  17 N                |  18 H                |   118.51
   15 C                |  17 N                |  19 C                |   125.44
   18 H                |  17 N                |  19 C                |   116.01
   17 N                |  19 C                |  20 H                |   108.27
   17 N                |  19 C                |  21 C                |   108.69
   17 N                |  19 C                |  26 C                |   112.97
   20 H                |  19 C                |  21 C                |   107.65
   20 H                |  19 C                |  26 C                |   107.14
   21 C                |  19 C                |  26 C                |   111.92
   19 C                |  21 C                |  22 H                |   109.73
   19 C                |  21 C                |  23 H                |   109.38
   19 C                |  21 C                |  24 O                |   110.05
   22 H                |  21 C                |  23 H                |   108.74
   22 H                |  21 C                |  24 O                |   109.62
   23 H                |  21 C                |  24 O                |   109.30
   21 C                |  24 O                |  25 H                |   106.37
   19 C                |  26 C                |  27 O                |   121.52
   19 C                |  26 C                |  28 N                |   118.27
   27 O                |  26 C                |  28 N                |   120.17
   26 C                |  28 N                |  29 H                |   118.83
   26 C                |  28 N                |  30 H                |   119.13
   29 H                |  28 N                |  30 H                |   122.04
 ------------------------------------------------------------------------------
                            number of included internuclear angles:         49
 ==============================================================================



  library name resolved from: environment
  library file name is: </opt/rit/el9/20230413/app/linux-rhel9-x86_64_v3/gcc-11.2.1/nwchem-7.2.0-oxtctbuhfuzyfaoziquq6bki22grib3g/share/nwchem/libraries/>
  


 Summary of "ao basis" -> "" (cartesian)
 ------------------------------------------------------------------------------
       Tag                 Description            Shells   Functions and Types
 ---------------- ------------------------------  ------  ---------------------
 *                        aug-cc-pvdz                 on all atoms 


                      Basis "ao basis" -> "ao basis" (cartesian)
                      -----
  H (Hydrogen)
  ------------
            Exponent  Coefficients 
       -------------- ---------------------------------------------------------
  1 S  1.30100000E+01  0.019685
  1 S  1.96200000E+00  0.137977
  1 S  4.44600000E-01  0.478148

  2 S  1.22000000E-01  1.000000

  3 S  2.97400000E-02  1.000000

  4 P  7.27000000E-01  1.000000

  5 P  1.41000000E-01  1.000000

  C (Carbon)
  ----------
            Exponent  Coefficients 
       -------------- ---------------------------------------------------------
  1 S  6.66500000E+03  0.000692
  1 S  1.00000000E+03  0.005329
  1 S  2.28000000E+02  0.027077
  1 S  6.47100000E+01  0.101718
  1 S  2.10600000E+01  0.274740
  1 S  7.49500000E+00  0.448564
  1 S  2.79700000E+00  0.285074
  1 S  5.21500000E-01  0.015204

  2 S  6.66500000E+03 -0.000146
  2 S  1.00000000E+03 -0.001154
  2 S  2.28000000E+02 -0.005725
  2 S  6.47100000E+01 -0.023312
  2 S  2.10600000E+01 -0.063955
  2 S  7.49500000E+00 -0.149981
  2 S  2.79700000E+00 -0.127262
  2 S  5.21500000E-01  0.544529

  3 S  1.59600000E-01  1.000000

  4 S  4.69000000E-02  1.000000

  5 P  9.43900000E+00  0.038109
  5 P  2.00200000E+00  0.209480
  5 P  5.45600000E-01  0.508557

  6 P  1.51700000E-01  1.000000

  7 P  4.04100000E-02  1.000000

  8 D  5.50000000E-01  1.000000

  9 D  1.51000000E-01  1.000000

  O (Oxygen)
  ----------
            Exponent  Coefficients 
       -------------- ---------------------------------------------------------
  1 S  1.17200000E+04  0.000710
  1 S  1.75900000E+03  0.005470
  1 S  4.00800000E+02  0.027837
  1 S  1.13700000E+02  0.104800
  1 S  3.70300000E+01  0.283062
  1 S  1.32700000E+01  0.448719
  1 S  5.02500000E+00  0.270952
  1 S  1.01300000E+00  0.015458

  2 S  1.17200000E+04 -0.000160
  2 S  1.75900000E+03 -0.001263
  2 S  4.00800000E+02 -0.006267
  2 S  1.13700000E+02 -0.025716
  2 S  3.70300000E+01 -0.070924
  2 S  1.32700000E+01 -0.165411
  2 S  5.02500000E+00 -0.116955
  2 S  1.01300000E+00  0.557368

  3 S  3.02300000E-01  1.000000

  4 S  7.89600000E-02  1.000000

  5 P  1.77000000E+01  0.043018
  5 P  3.85400000E+00  0.228913
  5 P  1.04600000E+00  0.508728

  6 P  2.75300000E-01  1.000000

  7 P  6.85600000E-02  1.000000

  8 D  1.18500000E+00  1.000000

  9 D  3.32000000E-01  1.000000

  N (Nitrogen)
  ------------
            Exponent  Coefficients 
       -------------- ---------------------------------------------------------
  1 S  9.04600000E+03  0.000700
  1 S  1.35700000E+03  0.005389
  1 S  3.09300000E+02  0.027406
  1 S  8.77300000E+01  0.103207
  1 S  2.85600000E+01  0.278723
  1 S  1.02100000E+01  0.448540
  1 S  3.83800000E+00  0.278238
  1 S  7.46600000E-01  0.015440

  2 S  9.04600000E+03 -0.000153
  2 S  1.35700000E+03 -0.001208
  2 S  3.09300000E+02 -0.005992
  2 S  8.77300000E+01 -0.024544
  2 S  2.85600000E+01 -0.067459
  2 S  1.02100000E+01 -0.158078
  2 S  3.83800000E+00 -0.121831
  2 S  7.46600000E-01  0.549003

  3 S  2.24800000E-01  1.000000

  4 S  6.12400000E-02  1.000000

  5 P  1.35500000E+01  0.039919
  5 P  2.91700000E+00  0.217169
  5 P  7.97300000E-01  0.510319

  6 P  2.18500000E-01  1.000000

  7 P  5.61100000E-02  1.000000

  8 D  8.17000000E-01  1.000000

  9 D  2.30000000E-01  1.000000



 Summary of "ao basis" -> "ao basis" (cartesian)
 ------------------------------------------------------------------------------
       Tag                 Description            Shells   Functions and Types
 ---------------- ------------------------------  ------  ---------------------
 H                        aug-cc-pvdz                5        9   3s2p
 C                        aug-cc-pvdz                9       25   4s3p2d
 O                        aug-cc-pvdz                9       25   4s3p2d
 N                        aug-cc-pvdz                9       25   4s3p2d


                                 NWChem SCF Module
                                 -----------------



  ao basis        = "ao basis"
  functions       =   510
  atoms           =    30
  closed shells   =    58
  open shells     =     0
  charge          =   0.00
  wavefunction    = RHF 
  input vectors   = atomic
  output vectors  = ./ALA_SER_0.movecs
  use symmetry    = F
  symmetry adapt  = F


 Summary of "ao basis" -> "ao basis" (cartesian)
 ------------------------------------------------------------------------------
       Tag                 Description            Shells   Functions and Types
 ---------------- ------------------------------  ------  ---------------------
 H                        aug-cc-pvdz                5        9   3s2p
 C                        aug-cc-pvdz                9       25   4s3p2d
 O                        aug-cc-pvdz                9       25   4s3p2d
 N                        aug-cc-pvdz                9       25   4s3p2d



 Forming initial guess at       1.7s


 !! The overlap matrix has   3 vectors deemed linearly dependent with
    eigenvalues:
 3.26D-06 5.88D-06 8.07D-06


      Superposition of Atomic Density Guess
      -------------------------------------

 Sum of atomic energies:        -770.80158829

      Non-variational initial energy
      ------------------------------

 Total energy =    -780.120660
 1-e energy   =   -3167.548518
 2-e energy   =    1320.976263
 HOMO         =      -0.310681
 LUMO         =       0.010966


 Starting SCF solution at     185.8s



 ----------------------------------------------
         Quadratically convergent ROHF

 Convergence threshold     :          1.000E-04
 Maximum no. of iterations :           30
 Final Fock-matrix accuracy:          1.000E-10
 ----------------------------------------------


              iter       energy          gnorm     gmax       time
             ----- ------------------- --------- --------- --------
                 1     -774.2940345580  2.42D+00  1.99D-01    363.1
                 2     -774.6029527065  7.91D-01  4.81D-02    685.2
                 3     -774.6572029062  6.26D-02  4.82D-03   1210.5
                 4     -774.6577945499  3.64D-03  3.13D-04   1901.7
                 5     -774.6577971255  8.02D-06  5.97D-07   3116.2


       Final RHF  results 
       ------------------ 

         Total SCF energy =   -774.657797125517
      One-electron energy =  -3178.105074687375
      Two-electron energy =   1336.995682067744
 Nuclear repulsion energy =   1066.451595494114

        Time for solution =   2937.0s


             Final eigenvalues
             -----------------

              1      
    1  -20.5647
    2  -20.5447
    3  -20.5336
    4  -20.5292
    5  -15.6165
    6  -15.6075
    7  -15.5900
    8  -11.3749
    9  -11.3649
   10  -11.3592
   11  -11.3115
   12  -11.3040
   13  -11.2961
   14  -11.2590
   15  -11.2462
   16   -1.4079
   17   -1.3957
   18   -1.3892
   19   -1.3649
   20   -1.2581
   21   -1.2546
   22   -1.2199
   23   -1.0791
   24   -1.0370
   25   -0.9996
   26   -0.9136
   27   -0.8911
   28   -0.8323
   29   -0.8059
   30   -0.7933
   31   -0.7441
   32   -0.7387
   33   -0.7047
   34   -0.6882
   35   -0.6835
   36   -0.6756
   37   -0.6563
   38   -0.6311
   39   -0.6202
   40   -0.6138
   41   -0.6074
   42   -0.5948
   43   -0.5874
   44   -0.5816
   45   -0.5751
   46   -0.5549
   47   -0.5516
   48   -0.5454
   49   -0.5319
   50   -0.5195
   51   -0.5056
   52   -0.4564
   53   -0.4531
   54   -0.4431
   55   -0.4267
   56   -0.4139
   57   -0.4073
   58   -0.4007
   59    0.0251
   60    0.0368
   61    0.0391
   62    0.0438
   63    0.0515
   64    0.0547
   65    0.0598
   66    0.0609
   67    0.0647
   68    0.0742

                       ROHF Final Molecular Orbital Analysis
                       -------------------------------------

 Vector   16  Occ=2.000000D+00  E=-1.407922D+00
              MO Center= -5.7D-01, -9.9D-02, -4.8D-01, r^2= 3.5D+00
   Bfn.  Coefficient  Atom+Function         Bfn.  Coefficient  Atom+Function  
  ----- ------------  ---------------      ----- ------------  ---------------
   250      0.329627  16 O  s               249      0.304500  16 O  s         
   224      0.218384  15 C  s         

 Vector   17  Occ=2.000000D+00  E=-1.395656D+00
              MO Center= -3.1D-01, -2.4D+00, -2.5D-01, r^2= 6.4D+00
   Bfn.  Coefficient  Atom+Function         Bfn.  Coefficient  Atom+Function  
  ----- ------------  ---------------      ----- ------------  ---------------
   445      0.335319  27 O  s               444      0.306332  27 O  s         
   419      0.208114  26 C  s         

 Vector   18  Occ=2.000000D+00  E=-1.389176D+00
              MO Center=  7.9D-01,  2.2D+00, -2.6D-01, r^2= 4.1D+00
   Bfn.  Coefficient  Atom+Function         Bfn.  Coefficient  Atom+Function  
  ----- ------------  ---------------      ----- ------------  ---------------
    79      0.317229   6 O  s                80      0.318552   6 O  s         
    54      0.224105   5 C  s         

 Vector   19  Occ=2.000000D+00  E=-1.364916D+00
              MO Center=  1.5D+00, -3.0D+00,  7.9D-01, r^2= 1.4D+00
   Bfn.  Coefficient  Atom+Function         Bfn.  Coefficient  Atom+Function  
  ----- ------------  ---------------      ----- ------------  ---------------
   386      0.421465  24 O  s               385      0.386994  24 O  s         
   343     -0.195475  21 C  s               314      0.194322  19 C  px        
   409      0.181974  25 H  s         

 Vector   20  Occ=2.000000D+00  E=-1.258101D+00
              MO Center=  2.6D-02, -5.3D-02,  4.4D-02, r^2= 3.5D+00
   Bfn.  Coefficient  Atom+Function         Bfn.  Coefficient  Atom+Function  
  ----- ------------  ---------------      ----- ------------  ---------------
   275      0.325667  17 N  s               274      0.302435  17 N  s         
   250     -0.235295  16 O  s               249     -0.184337  16 O  s         
   105      0.175302   7 N  s         

 Vector   21  Occ=2.000000D+00  E=-1.254617D+00
              MO Center= -4.5D-02,  2.0D+00,  2.2D-01, r^2= 3.8D+00
   Bfn.  Coefficient  Atom+Function         Bfn.  Coefficient  Atom+Function  
  ----- ------------  ---------------      ----- ------------  ---------------
   105      0.383416   7 N  s               104      0.312392   7 N  s         
    80     -0.199718   6 O  s                57     -0.174713   5 C  px        
    79     -0.172963   6 O  s               275     -0.159077  17 N  s         
   274     -0.153318  17 N  s         

 Vector   22  Occ=2.000000D+00  E=-1.219879D+00
              MO Center= -1.4D+00, -2.5D+00, -6.9D-01, r^2= 1.7D+00
   Bfn.  Coefficient  Atom+Function         Bfn.  Coefficient  Atom+Function  
  ----- ------------  ---------------      ----- ------------  ---------------
   470      0.393357  28 N  s               469      0.366569  28 N  s         
   445     -0.205525  27 O  s               444     -0.170965  27 O  s         
   502      0.161874  30 H  s               493      0.156402  29 H  s         

 Vector   23  Occ=2.000000D+00  E=-1.079097D+00
              MO Center= -4.3D-01,  1.3D+00,  6.3D-01, r^2= 5.7D+00
   Bfn.  Coefficient  Atom+Function         Bfn.  Coefficient  Atom+Function  
  ----- ------------  ---------------      ----- ------------  ---------------
   138      0.228963   9 C  s               172      0.197808  11 C  s         
    12     -0.174936   2 C  s         

 Vector   24  Occ=2.000000D+00  E=-1.037000D+00
              MO Center=  4.4D-01, -9.1D-01, -1.2D-01, r^2= 7.1D+00
   Bfn.  Coefficient  Atom+Function         Bfn.  Coefficient  Atom+Function  
  ----- ------------  ---------------      ----- ------------  ---------------
   308      0.254177  19 C  s               342      0.178746  21 C  s         

 Vector   25  Occ=2.000000D+00  E=-9.995701D-01
              MO Center=  2.2D-02,  3.6D+00, -2.8D-01, r^2= 5.2D+00
   Bfn.  Coefficient  Atom+Function         Bfn.  Coefficient  Atom+Function  
  ----- ------------  ---------------      ----- ------------  ---------------
    11      0.319381   2 C  s                56     -0.235444   5 C  s         
    13      0.200049   2 C  s               172      0.168700  11 C  s         
   146      0.153084   9 C  pz        

 Vector   26  Occ=2.000000D+00  E=-9.135614D-01
              MO Center= -9.4D-02,  9.0D-02,  6.7D-01, r^2= 8.4D+00
   Bfn.  Coefficient  Atom+Function         Bfn.  Coefficient  Atom+Function  
  ----- ------------  ---------------      ----- ------------  ---------------
   139      0.317927   9 C  s               146     -0.281842   9 C  pz        
   225     -0.252297  15 C  s               172     -0.206302  11 C  s         
   342      0.198068  21 C  s               145     -0.191358   9 C  py        
   231     -0.176088  15 C  py              138      0.150975   9 C  s         

 Vector   27  Occ=2.000000D+00  E=-8.911348D-01
              MO Center=  1.4D-01, -1.4D+00,  3.1D-02, r^2= 7.8D+00
   Bfn.  Coefficient  Atom+Function         Bfn.  Coefficient  Atom+Function  
  ----- ------------  ---------------      ----- ------------  ---------------
   309      0.447303  19 C  s               342     -0.199468  21 C  s         
   139      0.188565   9 C  s               146     -0.186771   9 C  pz        
   314     -0.179936  19 C  px              425     -0.161952  26 C  px        
   419      0.156858  26 C  s         

 Vector   28  Occ=2.000000D+00  E=-8.323274D-01
              MO Center= -1.1D-01,  6.2D-01,  1.3D-01, r^2= 7.3D+00
   Bfn.  Coefficient  Atom+Function         Bfn.  Coefficient  Atom+Function  
  ----- ------------  ---------------      ----- ------------  ---------------
   309      0.187543  19 C  s               278      0.173220  17 N  py        
   277     -0.167791  17 N  px              225      0.165001  15 C  s         
   224      0.163827  15 C  s               107      0.158397   7 N  px        
   298     -0.151258  18 H  s         

 Vector   29  Occ=2.000000D+00  E=-8.059394D-01
              MO Center= -1.4D-01,  1.8D+00,  2.2D-01, r^2= 5.3D+00
   Bfn.  Coefficient  Atom+Function         Bfn.  Coefficient  Atom+Function  
  ----- ------------  ---------------      ----- ------------  ---------------
   107      0.314126   7 N  px              128     -0.275977   8 H  s         
   105     -0.196726   7 N  s                56     -0.191166   5 C  s         
    55      0.187427   5 C  s                54      0.168330   5 C  s         
    80     -0.158196   6 O  s         

 Vector   30  Occ=2.000000D+00  E=-7.932830D-01
              MO Center= -6.2D-01, -2.0D+00, -4.0D-01, r^2= 4.1D+00
   Bfn.  Coefficient  Atom+Function         Bfn.  Coefficient  Atom+Function  
  ----- ------------  ---------------      ----- ------------  ---------------
   472      0.258967  28 N  px              314     -0.215794  19 C  px        
   343      0.212672  21 C  s               419      0.193968  26 C  s         
   298      0.190735  18 H  s               279      0.179700  17 N  pz        
   502     -0.180577  30 H  s               225     -0.176628  15 C  s         
   425     -0.170221  26 C  px              421     -0.163975  26 C  s         

 Vector   31  Occ=2.000000D+00  E=-7.440810D-01
              MO Center= -7.3D-01, -1.6D+00, -4.6D-01, r^2= 4.9D+00
   Bfn.  Coefficient  Atom+Function         Bfn.  Coefficient  Atom+Function  
  ----- ------------  ---------------      ----- ------------  ---------------
   473      0.294312  28 N  py              225     -0.262697  15 C  s         
   502      0.248851  30 H  s               279      0.200593  17 N  pz        
   315     -0.185480  19 C  py              422      0.171135  26 C  px        
   312     -0.167114  19 C  py              145     -0.158857   9 C  py        
   493     -0.157350  29 H  s               420     -0.152899  26 C  s         

 Vector   32  Occ=2.000000D+00  E=-7.387269D-01
              MO Center= -4.7D-01,  1.8D-01,  8.7D-02, r^2= 7.2D+00
   Bfn.  Coefficient  Atom+Function         Bfn.  Coefficient  Atom+Function  
  ----- ------------  ---------------      ----- ------------  ---------------
   225      0.272221  15 C  s               145      0.251256   9 C  py        
    55      0.209362   5 C  s               228     -0.191159  15 C  py        
   142      0.166666   9 C  py              275     -0.167140  17 N  s         
   493     -0.162374  29 H  s         

 Vector   33  Occ=2.000000D+00  E=-7.047114D-01
              MO Center=  2.5D-01, -1.5D+00,  7.6D-02, r^2= 7.5D+00
   Bfn.  Coefficient  Atom+Function         Bfn.  Coefficient  Atom+Function  
  ----- ------------  ---------------      ----- ------------  ---------------
   309      0.217753  19 C  s               333     -0.208840  20 H  s         
   389     -0.206302  24 O  py              409      0.179175  25 H  s         
   315     -0.174261  19 C  py              473     -0.169509  28 N  py        
   347     -0.153355  21 C  pz              376     -0.151034  23 H  s         

 Vector   34  Occ=2.000000D+00  E=-6.881726D-01
              MO Center= -3.2D-02,  1.2D+00, -1.0D-01, r^2= 1.0D+01
   Bfn.  Coefficient  Atom+Function         Bfn.  Coefficient  Atom+Function  
  ----- ------------  ---------------      ----- ------------  ---------------
   145     -0.201499   9 C  py              139      0.188311   9 C  s         
   108      0.159421   7 N  py               58      0.154427   5 C  py        

 Vector   35  Occ=2.000000D+00  E=-6.834944D-01
              MO Center=  1.3D-02, -8.3D-01, -1.3D-01, r^2= 1.1D+01
   Bfn.  Coefficient  Atom+Function         Bfn.  Coefficient  Atom+Function  
  ----- ------------  ---------------      ----- ------------  ---------------
   472      0.181499  28 N  px              448     -0.169517  27 O  py        
   493     -0.156768  29 H  s               422     -0.155103  26 C  px        

 Vector   36  Occ=2.000000D+00  E=-6.755580D-01
              MO Center=  8.4D-01,  1.2D+00,  9.2D-02, r^2= 1.0D+01
   Bfn.  Coefficient  Atom+Function         Bfn.  Coefficient  Atom+Function  
  ----- ------------  ---------------      ----- ------------  ---------------
    80      0.225139   6 O  s                82      0.197243   6 O  px        
    83     -0.190750   6 O  py               57     -0.187511   5 C  px        
   145     -0.180852   9 C  py              389      0.168709  24 O  py        
   108      0.158015   7 N  py               56     -0.156150   5 C  s         
    13      0.150244   2 C  s         

 Vector   37  Occ=2.000000D+00  E=-6.562866D-01
              MO Center=  1.6D-01, -8.1D-01, -1.3D-02, r^2= 8.6D+00
   Bfn.  Coefficient  Atom+Function         Bfn.  Coefficient  Atom+Function  
  ----- ------------  ---------------      ----- ------------  ---------------
   313     -0.177610  19 C  pz              278      0.176241  17 N  py        
   254     -0.156264  16 O  pz        

 Vector   38  Occ=2.000000D+00  E=-6.311324D-01
              MO Center= -2.9D-01,  1.1D+00, -2.8D-01, r^2= 8.1D+00
   Bfn.  Coefficient  Atom+Function         Bfn.  Coefficient  Atom+Function  
  ----- ------------  ---------------      ----- ------------  ---------------
   225      0.250034  15 C  s               139     -0.219702   9 C  s         
   254      0.218018  16 O  pz              252      0.203085  16 O  px        
   250     -0.189460  16 O  s               229     -0.183197  15 C  pz        

 Vector   39  Occ=2.000000D+00  E=-6.202477D-01
              MO Center= -1.5D-01,  2.2D+00,  2.3D-02, r^2= 8.6D+00
   Bfn.  Coefficient  Atom+Function         Bfn.  Coefficient  Atom+Function  
  ----- ------------  ---------------      ----- ------------  ---------------
   139      0.367004   9 C  s               225     -0.224983  15 C  s         
    35     -0.191561   3 H  s               234      0.177162  15 C  py        
    16     -0.169586   2 C  pz              252      0.168236  16 O  px        
    59     -0.167105   5 C  pz               15     -0.163645   2 C  py        
   177      0.164088  11 C  pz              232     -0.160081  15 C  pz        

 Vector   40  Occ=2.000000D+00  E=-6.138404D-01
              MO Center=  3.1D-01, -2.9D+00, -5.1D-02, r^2= 5.2D+00
   Bfn.  Coefficient  Atom+Function         Bfn.  Coefficient  Atom+Function  
  ----- ------------  ---------------      ----- ------------  ---------------
   448      0.338296  27 O  py              423     -0.229385  26 C  py        
   390      0.211278  24 O  pz              445     -0.211711  27 O  s         
   420      0.179537  26 C  s               375      0.171768  23 H  s         
   451      0.172469  27 O  py              315      0.168933  19 C  py        

 Vector   41  Occ=2.000000D+00  E=-6.073643D-01
              MO Center=  7.1D-01, -1.7D+00, -2.9D-02, r^2= 6.4D+00
   Bfn.  Coefficient  Atom+Function         Bfn.  Coefficient  Atom+Function  
  ----- ------------  ---------------      ----- ------------  ---------------
   388      0.261713  24 O  px              311     -0.200665  19 C  px        
   345      0.194607  21 C  px              391      0.187718  24 O  px        
   346     -0.181728  21 C  py              254      0.160132  16 O  pz        
   366      0.150961  22 H  s         

 Vector   42  Occ=2.000000D+00  E=-5.947609D-01
              MO Center=  2.3D-01,  1.3D+00, -4.0D-02, r^2= 9.8D+00
   Bfn.  Coefficient  Atom+Function         Bfn.  Coefficient  Atom+Function  
  ----- ------------  ---------------      ----- ------------  ---------------
    82      0.226303   6 O  px               16      0.193208   2 C  pz        
    58      0.192467   5 C  py        

 Vector   43  Occ=2.000000D+00  E=-5.873894D-01
              MO Center= -5.5D-01,  1.4D+00,  5.9D-01, r^2= 9.0D+00
   Bfn.  Coefficient  Atom+Function         Bfn.  Coefficient  Atom+Function  
  ----- ------------  ---------------      ----- ------------  ---------------
   196      0.257915  12 H  s               139      0.223167   9 C  s         
   176     -0.219680  11 C  py              197      0.207469  12 H  s         
   225     -0.201136  15 C  s               145     -0.196517   9 C  py        
   177      0.183864  11 C  pz               14      0.164146   2 C  px        
   163     -0.153882  10 H  s         

 Vector   44  Occ=2.000000D+00  E=-5.816000D-01
              MO Center=  5.9D-02, -1.6D+00,  1.4D-01, r^2= 9.3D+00
   Bfn.  Coefficient  Atom+Function         Bfn.  Coefficient  Atom+Function  
  ----- ------------  ---------------      ----- ------------  ---------------
   449      0.220504  27 O  pz              390      0.199517  24 O  pz        
   423      0.195065  26 C  py              314     -0.191742  19 C  px        
   376      0.181448  23 H  s               375      0.173083  23 H  s         
   474      0.156739  28 N  pz              452      0.151892  27 O  pz        

 Vector   45  Occ=2.000000D+00  E=-5.751300D-01
              MO Center=  4.5D-01,  3.0D+00, -3.0D-01, r^2= 7.0D+00
   Bfn.  Coefficient  Atom+Function         Bfn.  Coefficient  Atom+Function  
  ----- ------------  ---------------      ----- ------------  ---------------
    82      0.292325   6 O  px               45      0.255844   4 H  s         
    14      0.253754   2 C  px               44      0.203569   4 H  s         
    35     -0.170715   3 H  s                85      0.161131   6 O  px        
    57     -0.160147   5 C  px               13     -0.151086   2 C  s         
    18     -0.151647   2 C  py        

 Vector   46  Occ=2.000000D+00  E=-5.548528D-01
              MO Center= -9.1D-01,  1.2D+00,  7.4D-01, r^2= 8.3D+00
   Bfn.  Coefficient  Atom+Function         Bfn.  Coefficient  Atom+Function  
  ----- ------------  ---------------      ----- ------------  ---------------
   205      0.263009  13 H  s               206      0.243137  13 H  s         
   176      0.230618  11 C  py              252     -0.204950  16 O  px        
   343     -0.191143  21 C  s                12     -0.181127   2 C  s         
    55      0.181269   5 C  s               163     -0.177923  10 H  s         
   197     -0.176999  12 H  s               215     -0.163463  14 H  s         

 Vector   47  Occ=2.000000D+00  E=-5.515559D-01
              MO Center= -3.3D-01,  8.0D-01,  1.4D-01, r^2= 1.3D+01
   Bfn.  Coefficient  Atom+Function         Bfn.  Coefficient  Atom+Function  
  ----- ------------  ---------------      ----- ------------  ---------------
   197      0.204731  12 H  s               108     -0.172651   7 N  py        
   214     -0.170123  14 H  s                16      0.168167   2 C  pz        
    44     -0.168204   4 H  s                13      0.155256   2 C  s         

 Vector   48  Occ=2.000000D+00  E=-5.453531D-01
              MO Center= -2.0D-01, -7.4D-01, -1.4D-01, r^2= 1.0D+01
   Bfn.  Coefficient  Atom+Function         Bfn.  Coefficient  Atom+Function  
  ----- ------------  ---------------      ----- ------------  ---------------
   332      0.180995  20 H  s               313     -0.174642  19 C  pz        
   474      0.168834  28 N  pz              197      0.166962  12 H  s         
   343     -0.166057  21 C  s               424      0.164332  26 C  pz        
   449      0.154277  27 O  pz        

 Vector   49  Occ=2.000000D+00  E=-5.319160D-01
              MO Center= -5.2D-01,  1.7D+00,  5.0D-01, r^2= 6.6D+00
   Bfn.  Coefficient  Atom+Function         Bfn.  Coefficient  Atom+Function  
  ----- ------------  ---------------      ----- ------------  ---------------
   141      0.274727   9 C  px              175     -0.253265  11 C  px        
   178     -0.165290  11 C  px              163      0.153971  10 H  s         

 Vector   50  Occ=2.000000D+00  E=-5.194956D-01
              MO Center=  1.2D-01,  2.3D+00,  4.9D-02, r^2= 6.6D+00
   Bfn.  Coefficient  Atom+Function         Bfn.  Coefficient  Atom+Function  
  ----- ------------  ---------------      ----- ------------  ---------------
    84      0.212021   6 O  pz              141     -0.185358   9 C  px        
   162     -0.181673  10 H  s               139     -0.173691   9 C  s         
    59      0.170250   5 C  pz                1      0.161773   1 H  s         
   253      0.162170  16 O  py               16     -0.160365   2 C  pz        
   163     -0.160350  10 H  s               109      0.157194   7 N  pz        

 Vector   51  Occ=2.000000D+00  E=-5.055964D-01
              MO Center=  1.5D+00, -2.4D+00,  2.2D-01, r^2= 3.9D+00
   Bfn.  Coefficient  Atom+Function         Bfn.  Coefficient  Atom+Function  
  ----- ------------  ---------------      ----- ------------  ---------------
   390      0.297740  24 O  pz              393      0.219610  24 O  pz        
   375     -0.210198  23 H  s               343      0.207341  21 C  s         
   366      0.203535  22 H  s               347     -0.198946  21 C  pz        
   386      0.184096  24 O  s               376     -0.181770  23 H  s         
   345     -0.177852  21 C  px              388      0.171616  24 O  px        

 Vector   52  Occ=2.000000D+00  E=-4.564485D-01
              MO Center=  9.5D-01, -2.1D+00,  2.2D-01, r^2= 5.3D+00
   Bfn.  Coefficient  Atom+Function         Bfn.  Coefficient  Atom+Function  
  ----- ------------  ---------------      ----- ------------  ---------------
   388      0.340151  24 O  px              391      0.270253  24 O  px        
   343      0.243613  21 C  s               389     -0.244620  24 O  py        
   348     -0.238386  21 C  px              392     -0.205140  24 O  py        
   311      0.180015  19 C  px              447      0.173008  27 O  px        
   252     -0.160905  16 O  px        

 Vector   53  Occ=2.000000D+00  E=-4.531088D-01
              MO Center=  4.1D-02, -1.3D+00, -1.7D-01, r^2= 7.4D+00
   Bfn.  Coefficient  Atom+Function         Bfn.  Coefficient  Atom+Function  
  ----- ------------  ---------------      ----- ------------  ---------------
   447      0.263300  27 O  px              253      0.251309  16 O  py        
   389      0.231117  24 O  py              252     -0.212407  16 O  px        
   450      0.208708  27 O  px              256      0.205959  16 O  py        
   392      0.178414  24 O  py              255     -0.172866  16 O  px        
   254      0.165565  16 O  pz              388     -0.162832  24 O  px        

 Vector   54  Occ=2.000000D+00  E=-4.431221D-01
              MO Center= -4.3D-01, -6.3D-01, -3.2D-01, r^2= 7.3D+00
   Bfn.  Coefficient  Atom+Function         Bfn.  Coefficient  Atom+Function  
  ----- ------------  ---------------      ----- ------------  ---------------
   253      0.392298  16 O  py              256      0.318136  16 O  py        
   447     -0.299733  27 O  px              450     -0.238045  27 O  px        
   277     -0.162923  17 N  px        

 Vector   55  Occ=2.000000D+00  E=-4.267290D-01
              MO Center=  1.2D+00,  2.9D+00, -3.1D-01, r^2= 2.6D+00
   Bfn.  Coefficient  Atom+Function         Bfn.  Coefficient  Atom+Function  
  ----- ------------  ---------------      ----- ------------  ---------------
    13      0.458869   2 C  s                83      0.403597   6 O  py        
    56     -0.343823   5 C  s                84     -0.328715   6 O  pz        
    86      0.317032   6 O  py               87     -0.259139   6 O  pz        
    64     -0.220642   5 C  py               18      0.218704   2 C  py        
    15      0.189459   2 C  py              105      0.187485   7 N  s         

 Vector   56  Occ=2.000000D+00  E=-4.139044D-01
              MO Center= -1.2D+00, -2.9D+00, -5.4D-01, r^2= 2.9D+00
   Bfn.  Coefficient  Atom+Function         Bfn.  Coefficient  Atom+Function  
  ----- ------------  ---------------      ----- ------------  ---------------
   474      0.424138  28 N  pz              477      0.367086  28 N  pz        
   449     -0.360903  27 O  pz              452     -0.284855  27 O  pz        

 Vector   57  Occ=2.000000D+00  E=-4.072607D-01
              MO Center=  1.2D-01,  1.4D+00,  6.8D-02, r^2= 6.4D+00
   Bfn.  Coefficient  Atom+Function         Bfn.  Coefficient  Atom+Function  
  ----- ------------  ---------------      ----- ------------  ---------------
   109      0.318186   7 N  pz              112      0.280485   7 N  pz        
    84     -0.229258   6 O  pz               87     -0.174093   6 O  pz        
   253     -0.172827  16 O  py              108      0.171078   7 N  py        
   277      0.168636  17 N  px              111      0.167224   7 N  py        
    83     -0.158450   6 O  py              256     -0.155414  16 O  py        

 Vector   58  Occ=2.000000D+00  E=-4.007188D-01
              MO Center= -8.9D-02, -7.1D-01, -1.6D-01, r^2= 6.6D+00
   Bfn.  Coefficient  Atom+Function         Bfn.  Coefficient  Atom+Function  
  ----- ------------  ---------------      ----- ------------  ---------------
   447      0.262895  27 O  px              277     -0.232527  17 N  px        
   280     -0.220374  17 N  px              450      0.208254  27 O  px        
   252      0.190853  16 O  px              278     -0.187656  17 N  py        
   109      0.171300   7 N  pz              254     -0.161814  16 O  pz        
   279      0.162000  17 N  pz              255      0.161113  16 O  px        

 Vector   59  Occ=0.000000D+00  E= 2.512535D-02
              MO Center= -2.3D+00,  3.5D+00,  1.6D+00, r^2= 2.1D+01
   Bfn.  Coefficient  Atom+Function         Bfn.  Coefficient  Atom+Function  
  ----- ------------  ---------------      ----- ------------  ---------------
   421     -2.573542  26 C  s               106      2.379290   7 N  s         
   173     -2.375493  11 C  s                56     -2.135704   5 C  s         
   207      2.031727  13 H  s               310     -1.844301  19 C  s         
   206      1.570496  13 H  s               215      1.485963  14 H  s         
   471      1.472680  28 N  s                37      1.465031   3 H  s         

 Vector   60  Occ=0.000000D+00  E= 3.676949D-02
              MO Center= -2.1D+00,  1.4D+00,  4.9D-01, r^2= 3.8D+01
   Bfn.  Coefficient  Atom+Function         Bfn.  Coefficient  Atom+Function  
  ----- ------------  ---------------      ----- ------------  ---------------
    64      2.995121   5 C  py              147      2.328169   9 C  px        
   149     -2.216890   9 C  pz              198      2.165393  12 H  s         
   471      2.158440  28 N  s                12      1.871999   2 C  s         
   495      1.855682  29 H  s                37     -1.802323   3 H  s         
   428      1.688905  26 C  px              421     -1.660396  26 C  s         

 Vector   61  Occ=0.000000D+00  E= 3.908578D-02
              MO Center= -1.8D+00,  1.1D+00,  2.5D-01, r^2= 3.4D+01
   Bfn.  Coefficient  Atom+Function         Bfn.  Coefficient  Atom+Function  
  ----- ------------  ---------------      ----- ------------  ---------------
    56      2.853270   5 C  s               207     -2.847271  13 H  s         
    64     -2.417322   5 C  py                3      2.011705   1 H  s         
   428      2.015611  26 C  px              216      1.627022  14 H  s         
   421     -1.586944  26 C  s               183      1.518575  11 C  pz        
   234     -1.511009  15 C  py              495      1.506894  29 H  s         

 Vector   62  Occ=0.000000D+00  E= 4.377290D-02
              MO Center=  1.1D+00,  5.6D-01, -4.3D-01, r^2= 3.6D+01
   Bfn.  Coefficient  Atom+Function         Bfn.  Coefficient  Atom+Function  
  ----- ------------  ---------------      ----- ------------  ---------------
   234      3.635455  15 C  py              147     -3.125798   9 C  px        
   164      2.988604  10 H  s               276      2.449281  17 N  s         
   174     -2.283919  11 C  s               216     -2.264278  14 H  s         
   226     -2.035978  15 C  s                46      1.978397   4 H  s         
    56     -1.693692   5 C  s               130     -1.623697   8 H  s         

 Vector   63  Occ=0.000000D+00  E= 5.150150D-02
              MO Center=  8.7D-01, -3.1D-02, -1.2D+00, r^2= 4.2D+01
   Bfn.  Coefficient  Atom+Function         Bfn.  Coefficient  Atom+Function  
  ----- ------------  ---------------      ----- ------------  ---------------
   368      2.560497  22 H  s               471     -2.469718  28 N  s         
   130      2.204112   8 H  s               428     -1.959646  26 C  px        
    46     -1.747322   4 H  s               106      1.647375   7 N  s         
   334      1.641411  20 H  s               198     -1.554466  12 H  s         
   174     -1.401453  11 C  s               495     -1.377443  29 H  s         

 Vector   64  Occ=0.000000D+00  E= 5.468140D-02
              MO Center= -1.6D+00,  1.7D+00, -2.8D-01, r^2= 3.9D+01
   Bfn.  Coefficient  Atom+Function         Bfn.  Coefficient  Atom+Function  
  ----- ------------  ---------------      ----- ------------  ---------------
    37      3.469089   3 H  s                56     -3.215178   5 C  s         
     3     -2.970820   1 H  s                13      2.669940   2 C  s         
   234      2.240339  15 C  py              495      2.146402  29 H  s         
   198     -1.894105  12 H  s               216     -1.792153  14 H  s         
   207      1.702123  13 H  s               428      1.581733  26 C  px        

 Vector   65  Occ=0.000000D+00  E= 5.979884D-02
              MO Center=  4.3D-01, -4.7D-01,  6.9D-01, r^2= 4.2D+01
   Bfn.  Coefficient  Atom+Function         Bfn.  Coefficient  Atom+Function  
  ----- ------------  ---------------      ----- ------------  ---------------
   334      3.686416  20 H  s               207      2.965144  13 H  s         
    13      2.533938   2 C  s               174     -2.517808  11 C  s         
   319      2.452292  19 C  pz               46      2.423973   4 H  s         
   344      2.350876  21 C  s               226     -2.165838  15 C  s         
   130     -1.958328   8 H  s               411     -1.847327  25 H  s         

 Vector   66  Occ=0.000000D+00  E= 6.085568D-02
              MO Center= -4.8D-02,  1.8D+00,  5.7D-01, r^2= 3.7D+01
   Bfn.  Coefficient  Atom+Function         Bfn.  Coefficient  Atom+Function  
  ----- ------------  ---------------      ----- ------------  ---------------
   164      5.301414  10 H  s                56     -4.593861   5 C  s         
   147     -3.088775   9 C  px               46     -2.846623   4 H  s         
   106      2.595567   7 N  s               504      2.489628  30 H  s         
   113      2.244710   7 N  px              174      2.224902  11 C  s         
   130      2.165869   8 H  s               148      2.142037   9 C  py        

 Vector   67  Occ=0.000000D+00  E= 6.466616D-02
              MO Center=  4.9D-01,  7.6D-01, -3.4D-01, r^2= 3.7D+01
   Bfn.  Coefficient  Atom+Function         Bfn.  Coefficient  Atom+Function  
  ----- ------------  ---------------      ----- ------------  ---------------
   234     -4.431655  15 C  py              216      4.253977  14 H  s         
   377      4.075281  23 H  s               344     -3.174038  21 C  s         
     3     -2.999636   1 H  s               198     -2.819662  12 H  s         
   164      2.703169  10 H  s                56      2.665343   5 C  s         
    46      2.411430   4 H  s               368     -2.102035  22 H  s         

 Vector   68  Occ=0.000000D+00  E= 7.422720D-02
              MO Center=  3.8D-01,  3.7D-01,  1.6D-01, r^2= 4.5D+01
   Bfn.  Coefficient  Atom+Function         Bfn.  Coefficient  Atom+Function  
  ----- ------------  ---------------      ----- ------------  ---------------
    56      5.055747   5 C  s               198     -4.506225  12 H  s         
   334     -4.112655  20 H  s                37     -3.590580   3 H  s         
   207      3.469427  13 H  s               368      3.465015  22 H  s         
    46      2.576246   4 H  s               319     -2.544641  19 C  pz        
   164      2.289640  10 H  s               147     -2.275956   9 C  px        

 Vector   69  Occ=0.000000D+00  E= 7.693444D-02
              MO Center= -2.6D-01, -1.4D-01, -3.8D-01, r^2= 4.1D+01
   Bfn.  Coefficient  Atom+Function         Bfn.  Coefficient  Atom+Function  
  ----- ------------  ---------------      ----- ------------  ---------------
   377      4.804828  23 H  s               164     -4.139477  10 H  s         
   216     -3.578916  14 H  s               207      3.102453  13 H  s         
   147      2.753752   9 C  px              504     -2.679763  30 H  s         
   495      2.619562  29 H  s               368     -2.590872  22 H  s         
   233     -2.531584  15 C  px                3      2.079219   1 H  s         

 Vector   70  Occ=0.000000D+00  E= 8.001369D-02
              MO Center=  3.3D-01,  2.0D-01, -2.0D-02, r^2= 4.4D+01
   Bfn.  Coefficient  Atom+Function         Bfn.  Coefficient  Atom+Function  
  ----- ------------  ---------------      ----- ------------  ---------------
    13      6.034509   2 C  s               368     -4.152034  22 H  s         
   421     -3.772964  26 C  s                56     -3.684989   5 C  s         
   130      3.518303   8 H  s               334      3.510591  20 H  s         
    46      3.134919   4 H  s               164     -3.031463  10 H  s         
   411      2.500322  25 H  s                 3     -2.328523   1 H  s         

 Vector   71  Occ=0.000000D+00  E= 8.569862D-02
              MO Center= -7.6D-01, -8.9D-01,  1.2D-01, r^2= 3.9D+01
   Bfn.  Coefficient  Atom+Function         Bfn.  Coefficient  Atom+Function  
  ----- ------------  ---------------      ----- ------------  ---------------
   504      5.629646  30 H  s               344     -4.774058  21 C  s         
   164     -4.254975  10 H  s               234      4.102971  15 C  py        
   207      3.849811  13 H  s               130     -2.986160   8 H  s         
   368     -2.970770  22 H  s                56     -2.531562   5 C  s         
    13      2.329112   2 C  s               495     -2.172075  29 H  s         

 Vector   72  Occ=0.000000D+00  E= 9.417201D-02
              MO Center= -1.3D+00,  7.9D-01, -5.6D-02, r^2= 3.8D+01
   Bfn.  Coefficient  Atom+Function         Bfn.  Coefficient  Atom+Function  
  ----- ------------  ---------------      ----- ------------  ---------------
    56      8.383807   5 C  s                13     -7.108153   2 C  s         
   216      6.729954  14 H  s               234     -5.522974  15 C  py        
   198     -5.026099  12 H  s               504     -4.806361  30 H  s         
   130     -4.490186   8 H  s               334      4.226060  20 H  s         
   421     -3.736560  26 C  s               226      3.245705  15 C  s         

 Vector   73  Occ=0.000000D+00  E= 9.791692D-02
              MO Center=  5.0D-01,  2.1D+00,  3.3D-01, r^2= 3.2D+01
   Bfn.  Coefficient  Atom+Function         Bfn.  Coefficient  Atom+Function  
  ----- ------------  ---------------      ----- ------------  ---------------
    56     24.697243   5 C  s                13    -18.716984   2 C  s         
    64      6.190145   5 C  py               21      5.433678   2 C  py        
   300      4.990184  18 H  s               106     -4.410843   7 N  s         
    65     -4.235818   5 C  pz              226      3.619869  15 C  s         
    12     -3.522845   2 C  s               235      3.405492  15 C  pz        

 Vector   74  Occ=0.000000D+00  E= 1.158168D-01
              MO Center=  7.8D-01,  1.6D+00,  5.8D-01, r^2= 3.5D+01
   Bfn.  Coefficient  Atom+Function         Bfn.  Coefficient  Atom+Function  
  ----- ------------  ---------------      ----- ------------  ---------------
    13     27.332323   2 C  s                56    -23.825884   5 C  s         
    64    -13.763294   5 C  py              164    -10.314359  10 H  s         
   300      9.282072  18 H  s                65      8.793636   5 C  pz        
    21     -7.843944   2 C  py              226     -6.841858  15 C  s         
   149      6.498397   9 C  pz              276      4.984757  17 N  s         

 Vector   75  Occ=0.000000D+00  E= 1.197233D-01
              MO Center=  2.8D-01, -2.0D+00, -5.3D-01, r^2= 3.0D+01
   Bfn.  Coefficient  Atom+Function         Bfn.  Coefficient  Atom+Function  
  ----- ------------  ---------------      ----- ------------  ---------------
   344     20.461487  21 C  s               421    -14.928258  26 C  s         
   317    -10.200279  19 C  px              429     -6.093307  26 C  py        
   149     -5.811437   9 C  pz              351     -5.813067  21 C  px        
    56     -5.245854   5 C  s               226     -5.013536  15 C  s         
   300     -4.982651  18 H  s               377      4.674112  23 H  s         

 Vector   76  Occ=0.000000D+00  E= 1.257331D-01
              MO Center= -1.3D+00, -1.1D+00,  8.1D-01, r^2= 2.7D+01
   Bfn.  Coefficient  Atom+Function         Bfn.  Coefficient  Atom+Function  
  ----- ------------  ---------------      ----- ------------  ---------------
   421     -7.466724  26 C  s               174      7.015170  11 C  s         
   234     -6.375293  15 C  py              318     -6.065402  19 C  py        
   106     -5.956776   7 N  s               428     -5.789327  26 C  px        
    56      5.075593   5 C  s               319     -4.553244  19 C  pz        
   226      3.870645  15 C  s               233      3.804230  15 C  px        

 Vector   77  Occ=0.000000D+00  E= 1.306882D-01
              MO Center=  3.9D-01, -1.1D+00,  2.7D-01, r^2= 3.2D+01
   Bfn.  Coefficient  Atom+Function         Bfn.  Coefficient  Atom+Function  
  ----- ------------  ---------------      ----- ------------  ---------------
   344    -10.639541  21 C  s                56     10.448243   5 C  s         
   421      8.066846  26 C  s               317      7.845476  19 C  px        
   471     -7.538764  28 N  s               226      7.347107  15 C  s         
   318     -5.911038  19 C  py              234     -5.652684  15 C  py        
   428     -4.275795  26 C  px              429      4.096039  26 C  py        

 Vector   78  Occ=0.000000D+00  E= 1.353170D-01
              MO Center= -4.9D-01,  8.4D-01,  5.4D-01, r^2= 2.9D+01
   Bfn.  Coefficient  Atom+Function         Bfn.  Coefficient  Atom+Function  
  ----- ------------  ---------------      ----- ------------  ---------------
    56     13.894213   5 C  s               318      9.676517  19 C  py        
   421      9.606120  26 C  s               174     -8.546319  11 C  s         
   149      7.990885   9 C  pz              344      7.921601  21 C  s         
   284      5.741871  17 N  py               13     -5.692815   2 C  s         
   233     -5.254775  15 C  px              276     -5.198525  17 N  s         

 Vector   79  Occ=0.000000D+00  E= 1.389792D-01
              MO Center=  2.4D-01,  1.0D+00,  3.0D-01, r^2= 3.2D+01
   Bfn.  Coefficient  Atom+Function         Bfn.  Coefficient  Atom+Function  
  ----- ------------  ---------------      ----- ------------  ---------------
    56      9.556862   5 C  s                63     -6.821541   5 C  px        
   106     -6.020115   7 N  s               148     -5.523802   9 C  py        
    64     -5.273718   5 C  py              421     -4.206933  26 C  s         
   207     -4.158180  13 H  s               344      3.947459  21 C  s         
    13      3.758572   2 C  s                65      3.685299   5 C  pz        

 Vector   80  Occ=0.000000D+00  E= 1.422325D-01
              MO Center= -3.6D-01,  1.4D+00, -3.1D-01, r^2= 2.8D+01
   Bfn.  Coefficient  Atom+Function         Bfn.  Coefficient  Atom+Function  
  ----- ------------  ---------------      ----- ------------  ---------------
    13     12.804471   2 C  s                64    -12.172345   5 C  py        
   174    -11.876271  11 C  s               148     -9.384697   9 C  py        
   149      7.767854   9 C  pz              106      7.717129   7 N  s         
   147     -7.599906   9 C  px              226     -7.359827  15 C  s         
    56     -6.910073   5 C  s                65      5.534932   5 C  pz        

 Vector   81  Occ=0.000000D+00  E= 1.459008D-01
              MO Center=  4.9D-01,  8.0D-01,  6.2D-01, r^2= 3.2D+01
   Bfn.  Coefficient  Atom+Function         Bfn.  Coefficient  Atom+Function  
  ----- ------------  ---------------      ----- ------------  ---------------
   106      6.433296   7 N  s               164      6.100601  10 H  s         
    56     -4.657328   5 C  s               300     -3.935722  18 H  s         
    65     -3.707864   5 C  pz              421      3.712636  26 C  s         
   428     -3.321540  26 C  px              353      3.181526  21 C  pz        
    13     -3.086290   2 C  s               319     -2.891419  19 C  pz        

 Vector   82  Occ=0.000000D+00  E= 1.491568D-01
              MO Center= -5.7D-01, -1.8D-01, -4.0D-01, r^2= 2.6D+01
   Bfn.  Coefficient  Atom+Function         Bfn.  Coefficient  Atom+Function  
  ----- ------------  ---------------      ----- ------------  ---------------
   471    -10.187333  28 N  s               421      9.419989  26 C  s         
   276     -6.452862  17 N  s               106      5.615196   7 N  s         
   319      5.361394  19 C  pz              174     -5.177347  11 C  s         
   149      4.381222   9 C  pz              428     -4.399043  26 C  px        
   148     -4.356797   9 C  py              147     -3.849816   9 C  px        

 Vector   83  Occ=0.000000D+00  E= 1.526549D-01
              MO Center=  6.1D-01,  2.0D-01, -4.6D-01, r^2= 3.0D+01
   Bfn.  Coefficient  Atom+Function         Bfn.  Coefficient  Atom+Function  
  ----- ------------  ---------------      ----- ------------  ---------------
   344      7.158822  21 C  s               317     -6.551065  19 C  px        
    56     -6.004590   5 C  s               319      5.836778  19 C  pz        
   234      4.883103  15 C  py              351     -4.617502  21 C  px        
   318      4.369499  19 C  py              377      4.252070  23 H  s         
   148      4.062877   9 C  py              430     -3.779315  26 C  pz        

 Vector   84  Occ=0.000000D+00  E= 1.539428D-01
              MO Center= -1.1D+00,  8.9D-01,  2.6D-01, r^2= 2.8D+01
   Bfn.  Coefficient  Atom+Function         Bfn.  Coefficient  Atom+Function  
  ----- ------------  ---------------      ----- ------------  ---------------
   421     14.410136  26 C  s               234     11.923784  15 C  py        
   310      8.251979  19 C  s                56     -7.932031   5 C  s         
   471     -7.512209  28 N  s               233     -7.102835  15 C  px        
   300      5.906349  18 H  s                13      5.799522   2 C  s         
   174     -5.365066  11 C  s               276      4.538378  17 N  s         

 Vector   85  Occ=0.000000D+00  E= 1.579074D-01
              MO Center=  9.4D-02,  9.0D-01,  9.1D-01, r^2= 2.8D+01
   Bfn.  Coefficient  Atom+Function         Bfn.  Coefficient  Atom+Function  
  ----- ------------  ---------------      ----- ------------  ---------------
   174      8.617649  11 C  s               147      6.750270   9 C  px        
   164     -5.930333  10 H  s               181      4.949503  11 C  px        
   148      4.519615   9 C  py              149     -4.208918   9 C  pz        
   216      4.033962  14 H  s               234     -4.006992  15 C  py        
   226      3.929089  15 C  s               317      3.665914  19 C  px        

 Vector   86  Occ=0.000000D+00  E= 1.627571D-01
              MO Center=  9.2D-01, -1.2D+00, -1.4D+00, r^2= 2.3D+01
   Bfn.  Coefficient  Atom+Function         Bfn.  Coefficient  Atom+Function  
  ----- ------------  ---------------      ----- ------------  ---------------
   234     10.338861  15 C  py              344      8.277063  21 C  s         
   174     -7.159516  11 C  s               317     -6.382702  19 C  px        
   226     -5.442628  15 C  s               421     -5.025037  26 C  s         
    56      4.963454   5 C  s               351     -4.463143  21 C  px        
   334      4.148417  20 H  s               368      3.827858  22 H  s         

 Vector   87  Occ=0.000000D+00  E= 1.667371D-01
              MO Center= -1.6D-01,  1.0D+00, -5.9D-01, r^2= 3.4D+01
   Bfn.  Coefficient  Atom+Function         Bfn.  Coefficient  Atom+Function  
  ----- ------------  ---------------      ----- ------------  ---------------
   471     -7.737828  28 N  s                64      7.064115   5 C  py        
   428     -7.089659  26 C  px              147      6.124984   9 C  px        
    13     -5.882478   2 C  s                56      4.203119   5 C  s         
   173     -3.982580  11 C  s               130      3.733624   8 H  s         
   344      3.689412  21 C  s               317     -3.552596  19 C  px        

 Vector   88  Occ=0.000000D+00  E= 1.689250D-01
              MO Center= -2.0D-01,  2.5D+00,  2.4D-01, r^2= 2.2D+01
   Bfn.  Coefficient  Atom+Function         Bfn.  Coefficient  Atom+Function  
  ----- ------------  ---------------      ----- ------------  ---------------
   148     -7.107065   9 C  py               56      6.507727   5 C  s         
     3     -4.747779   1 H  s               174     -4.414250  11 C  s         
   130      4.249733   8 H  s               234      4.141337  15 C  py        
    22     -3.978636   2 C  pz               65      3.831246   5 C  pz        
   421      3.523828  26 C  s               149      2.917334   9 C  pz        

 Vector   89  Occ=0.000000D+00  E= 1.707171D-01
              MO Center=  5.1D-01,  7.5D-01, -2.0D-01, r^2= 3.1D+01
   Bfn.  Coefficient  Atom+Function         Bfn.  Coefficient  Atom+Function  
  ----- ------------  ---------------      ----- ------------  ---------------
    64     -8.188061   5 C  py               13      7.570991   2 C  s         
    56     -6.793391   5 C  s                65      5.355784   5 C  pz        
   344      5.231712  21 C  s               106     -5.167013   7 N  s         
   300     -5.191651  18 H  s               226     -4.786012  15 C  s         
    63     -4.230820   5 C  px              149     -3.897484   9 C  pz        

 Vector   90  Occ=0.000000D+00  E= 1.732328D-01
              MO Center= -4.0D-01,  2.7D+00,  2.9D-01, r^2= 2.7D+01
   Bfn.  Coefficient  Atom+Function         Bfn.  Coefficient  Atom+Function  
  ----- ------------  ---------------      ----- ------------  ---------------
    56     10.808446   5 C  s               174     -6.980155  11 C  s         
   114     -6.026760   7 N  py               63     -5.811200   5 C  px        
   198     -5.183931  12 H  s               182     -5.029377  11 C  py        
   234     -4.960177  15 C  py               46      4.539228   4 H  s         
   115      3.934379   7 N  pz               37     -3.833735   3 H  s         

 Vector   91  Occ=0.000000D+00  E= 1.779183D-01
              MO Center= -3.5D-01,  6.9D-01,  4.4D-01, r^2= 2.9D+01
   Bfn.  Coefficient  Atom+Function         Bfn.  Coefficient  Atom+Function  
  ----- ------------  ---------------      ----- ------------  ---------------
   319      5.930220  19 C  pz              164      5.837134  10 H  s         
    64      5.688127   5 C  py              421      4.864908  26 C  s         
   147     -4.813165   9 C  px              334      4.690187  20 H  s         
    13     -4.456349   2 C  s               428      4.370256  26 C  px        
   276     -4.292614  17 N  s               148      4.083046   9 C  py        

 Vector   92  Occ=0.000000D+00  E= 1.797355D-01
              MO Center= -1.3D-02,  1.3D+00, -4.7D-01, r^2= 2.8D+01
   Bfn.  Coefficient  Atom+Function         Bfn.  Coefficient  Atom+Function  
[...]

 Vector  144  Occ=0.000000D+00  E= 4.276687D-01
              MO Center=  7.9D-02,  9.5D-01, -3.7D-02, r^2= 2.0D+01
   Bfn.  Coefficient  Atom+Function         Bfn.  Coefficient  Atom+Function  
  ----- ------------  ---------------      ----- ------------  ---------------
   235     11.520185  15 C  pz               13      9.570375   2 C  s         
   226     -9.186064  15 C  s                12      8.475972   2 C  s         
   149     -8.394152   9 C  pz              285     -8.132476  17 N  pz        
   317     -7.988450  19 C  px              344      7.892276  21 C  s         
   421     -7.709748  26 C  s               113      5.847706   7 N  px        

 Vector  145  Occ=0.000000D+00  E= 4.307393D-01
              MO Center= -2.9D-01,  1.0D+00,  2.7D-01, r^2= 2.0D+01
   Bfn.  Coefficient  Atom+Function         Bfn.  Coefficient  Atom+Function  
  ----- ------------  ---------------      ----- ------------  ---------------
    56      7.390276   5 C  s               317     -6.712804  19 C  px        
   233      6.259299  15 C  px              234      6.003375  15 C  py        
   344      5.480094  21 C  s               114     -5.269719   7 N  py        
   164     -4.083050  10 H  s               300      3.678956  18 H  s         
   215      3.617134  14 H  s               226     -3.556821  15 C  s         

 Vector  146  Occ=0.000000D+00  E= 4.359944D-01
              MO Center=  2.2D-02,  3.8D-01,  1.6D-01, r^2= 1.9D+01
   Bfn.  Coefficient  Atom+Function         Bfn.  Coefficient  Atom+Function  
  ----- ------------  ---------------      ----- ------------  ---------------
    13     10.249333   2 C  s               276     -8.880099  17 N  s         
   147     -8.032031   9 C  px              421      5.795874  26 C  s         
   163      5.631105  10 H  s               139     -5.595981   9 C  s         
   226     -4.736770  15 C  s                56     -4.267863   5 C  s         
   225      4.246006  15 C  s                36     -4.089599   3 H  s         

 Vector  147  Occ=0.000000D+00  E= 4.371877D-01
              MO Center=  4.2D-01,  1.4D+00, -6.4D-01, r^2= 2.4D+01
   Bfn.  Coefficient  Atom+Function         Bfn.  Coefficient  Atom+Function  
  ----- ------------  ---------------      ----- ------------  ---------------
   344     12.060469  21 C  s               234      9.595856  15 C  py        
   471     -6.640784  28 N  s               367     -6.138685  22 H  s         
     2     -6.016917   1 H  s               148     -5.116104   9 C  py        
   421      4.975466  26 C  s               351     -4.168472  21 C  px        
   310      3.763489  19 C  s               333     -3.775180  20 H  s         

 Vector  148  Occ=0.000000D+00  E= 4.412772D-01
              MO Center= -5.5D-01,  5.9D-01,  7.0D-01, r^2= 1.8D+01
   Bfn.  Coefficient  Atom+Function         Bfn.  Coefficient  Atom+Function  
  ----- ------------  ---------------      ----- ------------  ---------------
   174     18.630613  11 C  s               173     16.085774  11 C  s         
    56    -11.845440   5 C  s               197    -11.605354  12 H  s         
   215    -10.761665  14 H  s               284    -10.538871  17 N  py        
   206     -9.114726  13 H  s               421     -8.950146  26 C  s         
    13      8.680446   2 C  s               319     -7.445846  19 C  pz        

 Vector  149  Occ=0.000000D+00  E= 4.429237D-01
              MO Center=  4.2D-01,  1.4D+00, -1.3D-01, r^2= 2.3D+01
   Bfn.  Coefficient  Atom+Function         Bfn.  Coefficient  Atom+Function  
  ----- ------------  ---------------      ----- ------------  ---------------
   344     13.776843  21 C  s               106      9.575533   7 N  s         
   421     -9.377189  26 C  s               367     -6.629289  22 H  s         
   376     -5.800626  23 H  s               343      5.599381  21 C  s         
   149      5.177506   9 C  pz              148     -4.919807   9 C  py        
   235     -4.878634  15 C  pz               56      4.000493   5 C  s         

 Vector  150  Occ=0.000000D+00  E= 4.478222D-01
              MO Center=  1.3D-01, -2.1D-01,  2.4D-01, r^2= 1.7D+01
   Bfn.  Coefficient  Atom+Function         Bfn.  Coefficient  Atom+Function  
  ----- ------------  ---------------      ----- ------------  ---------------
   344     12.283916  21 C  s               235      8.233572  15 C  pz        
   318      7.123909  19 C  py              284      7.079507  17 N  py        
   234      6.295642  15 C  py              428      5.974289  26 C  px        
   343      5.506665  21 C  s                13     -5.353824   2 C  s         
   317     -4.901384  19 C  px              197     -4.774845  12 H  s         

 Vector  151  Occ=0.000000D+00  E= 4.565130D-01
              MO Center= -1.1D-01, -3.6D-01,  1.2D-01, r^2= 1.7D+01
   Bfn.  Coefficient  Atom+Function         Bfn.  Coefficient  Atom+Function  
  ----- ------------  ---------------      ----- ------------  ---------------
   174     13.820258  11 C  s               276    -10.009494  17 N  s         
   233      9.533658  15 C  px              318     -8.653320  19 C  py        
   149     -8.357876   9 C  pz              206     -7.397366  13 H  s         
   173      6.681862  11 C  s               367     -6.630432  22 H  s         
   344      6.499155  21 C  s               421     -6.412728  26 C  s         

 Vector  152  Occ=0.000000D+00  E= 4.598653D-01
              MO Center= -1.5D-02,  4.7D-01,  4.0D-02, r^2= 2.1D+01
   Bfn.  Coefficient  Atom+Function         Bfn.  Coefficient  Atom+Function  
  ----- ------------  ---------------      ----- ------------  ---------------
   344      7.789490  21 C  s               233     -7.250992  15 C  px        
   174     -6.987229  11 C  s               215      5.393681  14 H  s         
   284      4.960665  17 N  py              173     -4.923473  11 C  s         
   376     -4.452283  23 H  s               225     -4.409093  15 C  s         
   471     -4.326385  28 N  s               139      4.089646   9 C  s         

 Vector  153  Occ=0.000000D+00  E= 4.666949D-01
              MO Center= -6.5D-01,  1.4D+00,  2.1D-01, r^2= 2.0D+01
   Bfn.  Coefficient  Atom+Function         Bfn.  Coefficient  Atom+Function  
  ----- ------------  ---------------      ----- ------------  ---------------
    56     28.985699   5 C  s                13    -24.651173   2 C  s         
   174    -10.734750  11 C  s               173     -9.014835  11 C  s         
    64      7.953110   5 C  py               36      7.782724   3 H  s         
    12     -7.185876   2 C  s               106     -6.736906   7 N  s         
   234      6.611223  15 C  py              206      6.516769  13 H  s         

 Vector  154  Occ=0.000000D+00  E= 4.732107D-01
              MO Center= -8.0D-02, -6.9D-01,  2.2D-01, r^2= 2.0D+01
   Bfn.  Coefficient  Atom+Function         Bfn.  Coefficient  Atom+Function  
  ----- ------------  ---------------      ----- ------------  ---------------
   344     24.675417  21 C  s                56    -13.935693   5 C  s         
   421    -12.473899  26 C  s               317    -10.657621  19 C  px        
   234      8.321485  15 C  py              367     -7.232170  22 H  s         
   376     -7.113746  23 H  s               226     -6.967148  15 C  s         
   114      6.896128   7 N  py               12      6.577418   2 C  s         

 Vector  155  Occ=0.000000D+00  E= 4.793471D-01
              MO Center= -6.6D-01,  3.5D-01, -2.0D-01, r^2= 1.8D+01
   Bfn.  Coefficient  Atom+Function         Bfn.  Coefficient  Atom+Function  
  ----- ------------  ---------------      ----- ------------  ---------------
    56     17.121997   5 C  s               174    -15.385814  11 C  s         
   421      8.660361  26 C  s                13     -8.518024   2 C  s         
   284      8.118116  17 N  py              149      7.384232   9 C  pz        
   147     -5.527918   9 C  px              251      5.117197  16 O  s         
   215      5.041810  14 H  s               317      5.058005  19 C  px        

 Vector  156  Occ=0.000000D+00  E= 4.827523D-01
              MO Center= -1.7D-01, -6.8D-01,  4.4D-01, r^2= 1.8D+01
   Bfn.  Coefficient  Atom+Function         Bfn.  Coefficient  Atom+Function  
  ----- ------------  ---------------      ----- ------------  ---------------
    13     10.184413   2 C  s               234     -8.821544  15 C  py        
   284      8.467358  17 N  py              333      6.911328  20 H  s         
   174     -6.715775  11 C  s                64     -6.535742   5 C  py        
   139     -5.587632   9 C  s               285      5.177985  17 N  pz        
   428      4.847541  26 C  px              215      4.785833  14 H  s         

 Vector  157  Occ=0.000000D+00  E= 4.843803D-01
              MO Center= -3.1D-01,  1.0D+00,  9.6D-02, r^2= 2.0D+01
   Bfn.  Coefficient  Atom+Function         Bfn.  Coefficient  Atom+Function  
  ----- ------------  ---------------      ----- ------------  ---------------
    13     23.439359   2 C  s               344     19.104336  21 C  s         
   226    -14.652858  15 C  s               174    -13.769066  11 C  s         
    64    -11.385880   5 C  py               56    -10.908241   5 C  s         
   421     -8.460481  26 C  s               147     -8.331418   9 C  px        
    12     -7.469192   2 C  s                65      6.786312   5 C  pz        

 Vector  158  Occ=0.000000D+00  E= 4.907627D-01
              MO Center= -1.2D-03,  1.5D+00, -1.8D-01, r^2= 2.0D+01
   Bfn.  Coefficient  Atom+Function         Bfn.  Coefficient  Atom+Function  
  ----- ------------  ---------------      ----- ------------  ---------------
    56     37.866502   5 C  s                13    -28.107698   2 C  s         
   174    -15.998383  11 C  s               344     13.544974  21 C  s         
    12    -13.229319   2 C  s                36     10.639771   3 H  s         
   235      9.433705  15 C  pz               64      9.211062   5 C  py        
     2      9.033188   1 H  s               234      8.778252  15 C  py        

 Vector  159  Occ=0.000000D+00  E= 4.970111D-01
              MO Center= -7.5D-01,  2.8D-01, -1.7D-01, r^2= 1.9D+01
   Bfn.  Coefficient  Atom+Function         Bfn.  Coefficient  Atom+Function  
  ----- ------------  ---------------      ----- ------------  ---------------
    13     24.318481   2 C  s                56    -13.442208   5 C  s         
   174    -12.698558  11 C  s               344    -11.970287  21 C  s         
    64     -9.937869   5 C  py              149      9.613661   9 C  pz        
   233     -9.628778  15 C  px              106      8.943708   7 N  s         
   317      7.641035  19 C  px              148     -6.515124   9 C  py        

 Vector  160  Occ=0.000000D+00  E= 4.991357D-01
              MO Center= -4.8D-01,  7.4D-01,  3.5D-01, r^2= 1.9D+01
   Bfn.  Coefficient  Atom+Function         Bfn.  Coefficient  Atom+Function  
  ----- ------------  ---------------      ----- ------------  ---------------
    13     26.139186   2 C  s               174    -24.018327  11 C  s         
   421     20.798762  26 C  s               106     15.261194   7 N  s         
    64    -13.330264   5 C  py              149     11.795546   9 C  pz        
    56    -11.482067   5 C  s               344    -11.273526  21 C  s         
    12     10.632642   2 C  s               148     -9.529199   9 C  py        

 Vector  161  Occ=0.000000D+00  E= 5.080303D-01
              MO Center=  5.6D-01, -9.1D-01, -2.4D-04, r^2= 1.9D+01
   Bfn.  Coefficient  Atom+Function         Bfn.  Coefficient  Atom+Function  
  ----- ------------  ---------------      ----- ------------  ---------------
    56    -17.013365   5 C  s                13     15.799709   2 C  s         
   344    -10.659433  21 C  s               106     10.200373   7 N  s         
   318     -9.957457  19 C  py              317      7.879513  19 C  px        
   148     -7.291749   9 C  py              235     -7.174656  15 C  pz        
   421      5.308309  26 C  s               174      5.252520  11 C  s         


 center of mass
 --------------
 x =   0.02429303 y =  -0.07097064 z =  -0.01964718

 moments of inertia (a.u.)
 ------------------
        5961.998983279583           0.000000000001          -0.000000000001
           0.000000000001        1695.825845504547           0.000000000001
          -0.000000000001           0.000000000001        6516.289621830466

  Mulliken analysis of the total density
  --------------------------------------

    Atom       Charge   Shell Charges
 -----------   ------   -------------------------------------------------------
    1 H    1     0.81   0.76  0.08  0.01  0.03 -0.06
    2 C    6     6.57   2.01  0.66  0.33  0.29  2.07  1.06 -0.02  0.06  0.12
    3 H    1     0.79   0.76  0.06  0.01  0.03 -0.07
    4 H    1     0.96   0.76  0.21  0.01  0.03 -0.06
    5 C    6     4.95   2.01  0.68  0.09 -0.16  1.90  0.30 -0.11  0.24  0.01
    6 O    8     8.72   2.01  0.82  0.99  0.15  2.79  1.83  0.14  0.01 -0.02
    7 N    7     7.63   2.01  0.72  0.82 -0.07  2.45  1.44  0.17  0.05  0.04
    8 H    1     0.96   0.77  0.20 -0.02  0.05 -0.05
    9 C    6     6.68   2.01  0.66  0.26  0.01  2.00  1.44 -0.02  0.14  0.19
   10 H    1     1.11   0.79  0.29  0.01  0.03  0.01
   11 C    6     5.73   2.01  0.66  0.22  0.17  2.04  0.55 -0.01  0.07  0.02
   12 H    1     0.97   0.77  0.24  0.00  0.03 -0.07
   13 H    1     0.94   0.77  0.23  0.00  0.03 -0.09
   14 H    1     0.90   0.77  0.16  0.02  0.03 -0.08
   15 C    6     4.24   2.01  0.68 -0.17  0.05  1.88  0.05 -0.06  0.23 -0.43
   16 O    8     8.94   2.01  0.82  1.04  0.20  2.80  1.89  0.17  0.01  0.00
   17 N    7     7.61   2.01  0.72  0.82 -0.04  2.44  1.47  0.05  0.05  0.08
   18 H    1     0.98   0.76  0.22 -0.02  0.06 -0.03
   19 C    6     6.32   2.01  0.67  0.04 -0.03  2.01  1.32  0.05  0.13  0.13
   20 H    1     0.96   0.78  0.16 -0.02  0.03  0.01
   21 C    6     5.15   2.01  0.66  0.09  0.08  1.96  0.30 -0.06  0.13 -0.03
   22 H    1     1.04   0.78  0.26  0.00  0.03 -0.03
   23 H    1     1.05   0.78  0.29  0.01  0.03 -0.07
   24 O    8     8.61   2.01  0.80  0.95  0.04  2.83  1.90  0.11  0.01 -0.03
   25 H    1     0.84   0.71  0.03 -0.00  0.08  0.03
   26 C    6     4.53   2.01  0.68 -0.00  0.05  1.89 -0.11 -0.04  0.24 -0.18
   27 O    8     8.81   2.01  0.82  1.03  0.16  2.80  1.85  0.14  0.01 -0.00
   28 N    7     7.25   2.01  0.72  0.83 -0.15  2.46  1.27  0.09  0.04 -0.02
   29 H    1     1.02   0.76  0.24 -0.00  0.05 -0.03
   30 H    1     0.90   0.73  0.20 -0.01  0.06 -0.07

       Multipole analysis of the density wrt the origin
       ------------------------------------------------

     L   x y z        total         open         nuclear
     -   - - -        -----         ----         -------
     0   0 0 0     -0.000000      0.000000    116.000000

     1   1 0 0     -1.421324      0.000000     -0.000000
     1   0 1 0      1.506916      0.000000     -0.000000
     1   0 0 1      0.312210      0.000000      0.000000

     2   2 0 0    -67.813479      0.000000    635.974671
     2   1 1 0     -5.135233      0.000000    -23.669936
     2   1 0 1     -3.617642      0.000000    -18.169440
     2   0 2 0    -68.876985      0.000000   2937.461665
     2   0 1 1      4.575479      0.000000      1.157456
     2   0 0 2    -65.666681      0.000000    340.040367


 Task  times  cpu:     3121.8s     wall:     3229.2s


                                NWChem Input Module
                                -------------------


 Summary of allocated global arrays
-----------------------------------
  No active global arrays


MA_summarize_allocated_blocks: starting scan ...
MA_summarize_allocated_blocks: scan completed: 0 heap blocks, 0 stack blocks
MA usage statistics:

	allocation statistics:
					      heap	     stack
					      ----	     -----
	current number of blocks	         0	         0
	maximum number of blocks	        16	        14
	current total bytes		         0	         0
	maximum total bytes		    107296	  24874808
	maximum total K-bytes		       108	     24875
	maximum total M-bytes		         1	        25


                                     CITATION
                                     --------
                Please cite the following reference when publishing
                           results obtained with NWChem:

          E. Apra, E. J. Bylaska, W. A. de Jong, N. Govind, K. Kowalski,
       T. P. Straatsma, M. Valiev, H. J. J. van Dam, Y. Alexeev, J. Anchell,
       V. Anisimov, F. W. Aquino, R. Atta-Fynn, J. Autschbach, N. P. Bauman,
     J. C. Becca, D. E. Bernholdt, K. Bhaskaran-Nair, S. Bogatko, P. Borowski,
         J. Boschen, J. Brabec, A. Bruner, E. Cauet, Y. Chen, G. N. Chuev,
      C. J. Cramer, J. Daily, M. J. O. Deegan, T. H. Dunning Jr., M. Dupuis,
   K. G. Dyall, G. I. Fann, S. A. Fischer, A. Fonari, H. Fruchtl, L. Gagliardi,
      J. Garza, N. Gawande, S. Ghosh, K. Glaesemann, A. W. Gotz, J. Hammond,
       V. Helms, E. D. Hermes, K. Hirao, S. Hirata, M. Jacquelin, L. Jensen,
   B. G. Johnson, H. Jonsson, R. A. Kendall, M. Klemm, R. Kobayashi, V. Konkov,
      S. Krishnamoorthy, M. Krishnan, Z. Lin, R. D. Lins, R. J. Littlefield,
      A. J. Logsdail, K. Lopata, W. Ma, A. V. Marenich, J. Martin del Campo,
   D. Mejia-Rodriguez, J. E. Moore, J. M. Mullin, T. Nakajima, D. R. Nascimento,
    J. A. Nichols, P. J. Nichols, J. Nieplocha, A. Otero-de-la-Roza, B. Palmer,
    A. Panyala, T. Pirojsirikul, B. Peng, R. Peverati, J. Pittner, L. Pollack,
   R. M. Richard, P. Sadayappan, G. C. Schatz, W. A. Shelton, D. W. Silverstein,
   D. M. A. Smith, T. A. Soares, D. Song, M. Swart, H. L. Taylor, G. S. Thomas,
            V. Tipparaju, D. G. Truhlar, K. Tsemekhman, T. Van Voorhis,
      A. Vazquez-Mayagoitia, P. Verma, O. Villa, A. Vishnu, K. D. Vogiatzis,
        D. Wang, J. H. Weare, M. J. Williamson, T. L. Windus, K. Wolinski,
        A. T. Wong, Q. Wu, C. Yang, Q. Yu, M. Zacharias, Z. Zhang, Y. Zhao,
                                and R. J. Harrison
                        "NWChem: Past, present, and future
                         J. Chem. Phys. 152, 184102 (2020)
                               doi:10.1063/5.0004997

                                      AUTHORS
                                      -------
  E. Apra, E. J. Bylaska, N. Govind, K. Kowalski, M. Valiev, D. Mejia-Rodriguez,
       A. Kunitsa, N. P. Bauman, A. Panyala, W. A. de Jong, T. P. Straatsma,
   H. J. J. van Dam, D. Wang, T. L. Windus, J. Hammond, J. Autschbach, A. Woods,
    K. Bhaskaran-Nair, J. Brabec, K. Lopata, S. A. Fischer, S. Krishnamoorthy,
     M. Jacquelin, W. Ma, M. Klemm, O. Villa, Y. Chen, V. Anisimov, F. Aquino,
     S. Hirata, M. T. Hackler, E. Hermes, L. Jensen, J. E. Moore, J. C. Becca,
      V. Konjkov, T. Risthaus, M. Malagoli, A. Marenich, A. Otero-de-la-Roza,
        J. Mullin, P. Nichols, R. Peverati, J. Pittner, Y. Zhao, P.-D. Fan,
        A. Fonari, M. J. Williamson, R. J. Harrison, J. R. Rehr, M. Dupuis,
     D. Silverstein, D. M. A. Smith, J. Nieplocha, V. Tipparaju, M. Krishnan,
     B. E. Van Kuiken, A. Vazquez-Mayagoitia, M. Swart, Q. Wu, T. Van Voorhis,
     A. A. Auer, M. Nooijen, L. D. Crosby, E. Brown, G. Cisneros, G. I. Fann,
   H. Fruchtl, J. Garza, K. Hirao, R. A. Kendall, J. A. Nichols, K. Tsemekhman,
    K. Wolinski, J. Anchell, D. E. Bernholdt, P. Borowski, T. Clark, D. Clerc,
   H. Dachsel, M. J. O. Deegan, K. Dyall, D. Elwood, E. Glendening, M. Gutowski,
   A. C. Hess, J. Jaffe, B. G. Johnson, J. Ju, R. Kobayashi, R. Kutteh, Z. Lin,
   R. Littlefield, X. Long, B. Meng, T. Nakajima, S. Niu, L. Pollack, M. Rosing,
   K. Glaesemann, G. Sandrone, M. Stave, H. Taylor, G. Thomas, J. H. van Lenthe,
                               A. T. Wong, Z. Zhang.

 Total times  cpu:     3121.9s     wall:     3230.0s
