export TMOUT=5400
export TMPDIR=/tmp
export PTMPDIR=/tmp/ptmp
 argument  1 = ALA_ASN_2.nw
                                         
                                         


             Northwest Computational Chemistry Package (NWChem) 7.2.0
             --------------------------------------------------------


                    Environmental Molecular Sciences Laboratory
                       Pacific Northwest National Laboratory
                                Richland, WA 99352

                              Copyright (c) 1994-2022
                       Pacific Northwest National Laboratory
                            Battelle Memorial Institute

             NWChem is an open-source computational chemistry package
                        distributed under the terms of the
                      Educational Community License (ECL) 2.0
             A copy of the license is included with this distribution
                              in the LICENSE.TXT file

                                  ACKNOWLEDGMENT
                                  --------------

            This software and its documentation were developed at the
            EMSL at Pacific Northwest National Laboratory, a multiprogram
            national laboratory, operated for the U.S. Department of Energy
            by Battelle under Contract Number DE-AC05-76RL01830. Support
            for this work was provided by the Department of Energy Office
            of Biological and Environmental Research, Office of Basic
            Energy Sciences, and the Office of Advanced Scientific Computing.


           Job information
           ---------------

    hostname        = nova18-45
    program         = /opt/rit/el9/20230413/app/linux-rhel9-x86_64_v3/gcc-11.2.1/nwchem-7.2.0-oxtctbuhfuzyfaoziquq6bki22grib3g/bin/nwchem
    date            = Wed Jun 25 13:24:08 2025

    compiled        = Wed_May_17_23:46:39_2023
    source          = /tmp/root/spack-stage/spack-stage-nwchem-7.2.0-oxtctbuhfuzyfaoziquq6bki22grib3g/spack-src
    nwchem branch   = 7.2.0
    nwchem revision = d0d141fd
    ga revision     = 5.8.0
    use scalapack   = T
    input           = ALA_ASN_2.nw
    prefix          = ALA_ASN_2.
    data base       = ./ALA_ASN_2.db
    status          = startup
    nproc           =        8
    time left       =     -1s



           Memory information
           ------------------

    heap     =   26214400 doubles =    200.0 Mbytes
    stack    =   26214397 doubles =    200.0 Mbytes
    global   =   52428800 doubles =    400.0 Mbytes (distinct from heap & stack)
    total    =  104857597 doubles =    800.0 Mbytes
    verify   = yes
    hardfail = no 


           Directory information
           ---------------------

  0 permanent = .
  0 scratch   = .




                                NWChem Input Module
                                -------------------



 Scaling coordinates for geometry "geometry" by  1.889725989
 (inverse scale =  0.529177249)

 C1  symmetry detected

          ------
          auto-z
          ------
  no constraints, skipping    0.0000000000000000     
  no constraints, skipping    0.0000000000000000     


                             Geometry "geometry" -> ""
                             -------------------------

 Output coordinates in angstroms (scale by  1.889725989 to convert to a.u.)

  No.       Tag          Charge          X              Y              Z
 ---- ---------------- ---------- -------------- -------------- --------------
    1 H                    1.0000    -1.05551312     5.26223314    -1.42782712
    2 C                    6.0000    -0.52419609     5.44128090    -0.49509559
    3 H                    1.0000    -1.23295554     5.61656532     0.31131834
    4 H                    1.0000     0.12597809     6.30847063    -0.60473377
    5 C                    6.0000     0.32330350     4.23573657    -0.16205759
    6 O                    8.0000     1.53715034     4.34696201    -0.05893271
    7 N                    7.0000    -0.32124177     3.08200990    -0.00078711
    8 H                    1.0000    -1.32050790     3.06496968    -0.13750156
    9 C                    6.0000     0.32308532     1.80297210     0.29971403
   10 H                    1.0000     1.30011207     1.77570104    -0.18637240
   11 C                    6.0000     0.53254631     1.69383071     1.81800657
   12 H                    1.0000    -0.42977988     1.71833417     2.33177392
   13 H                    1.0000     1.04408413     0.76045645     2.05701191
   14 H                    1.0000     1.14670475     2.52500551     2.16564270
   15 C                    6.0000    -0.50900787     0.62419535    -0.23921852
   16 O                    8.0000    -1.70247406     0.76548447    -0.50630993
   17 N                    7.0000     0.11030049    -0.55193107    -0.36866658
   18 H                    1.0000     1.08955217    -0.59939005    -0.10963993
   19 C                    6.0000    -0.48923796    -1.78949461    -0.89316266
   20 H                    1.0000    -1.07004344    -1.52753098    -1.77910907
   21 C                    6.0000     0.65690650    -2.71634083    -1.34040640
   22 H                    1.0000     0.25335387    -3.64701783    -1.73852523
   23 H                    1.0000     1.22296417    -2.23238583    -2.13611569
   24 C                    6.0000     1.61574802    -3.02496853    -0.20538927
   25 O                    8.0000     2.57020871    -2.30588607     0.02812987
   26 N                    7.0000     1.35586886    -4.04709979     0.57072316
   27 H                    1.0000     1.98716154    -4.21683460     1.33127864
   28 H                    1.0000     0.46683100    -4.51982237     0.47105340
   29 C                    6.0000    -1.48491179    -2.48662478     0.07214411
   30 O                    8.0000    -1.48648455    -3.70725180     0.21068362
   31 N                    7.0000    -2.32103774    -1.74318361     0.78357550
   32 H                    1.0000    -2.95993555    -2.20105280     1.41288814
   33 H                    1.0000    -2.34785454    -0.74425962     0.62916786

      Atomic Mass 
      ----------- 

      H                  1.007825
      C                 12.000000
      O                 15.994910
      N                 14.003070


 Effective nuclear repulsion energy (a.u.)    1271.9870097059

            Nuclear Dipole moment (a.u.) 
            ----------------------------
        X                 Y               Z
 ---------------- ---------------- ----------------
    -0.0000000000     0.0000000000     0.0000000000



                                Z-matrix (autoz)
                                -------- 

 Units are Angstrom for bonds and degrees for angles

      Type          Name      I     J     K     L     M      Value
      ----------- --------  ----- ----- ----- ----- ----- ----------
    1 Stretch                  1     2                       1.08828
    2 Stretch                  2     3                       1.08783
    3 Stretch                  2     4                       1.08939
    4 Stretch                  2     5                       1.51080
    5 Stretch                  5     6                       1.22329
    6 Stretch                  5     7                       1.33136
    7 Stretch                  7     8                       1.00872
    8 Stretch                  7     9                       1.46335
    9 Stretch                  9    10                       1.09161
   10 Stretch                  9    11                       1.53655
   11 Stretch                  9    15                       1.54024
   12 Stretch                 11    12                       1.09116
   13 Stretch                 11    13                       1.09086
   14 Stretch                 11    14                       1.09036
   15 Stretch                 15    16                       1.23112
   16 Stretch                 15    17                       1.33550
   17 Stretch                 17    18                       1.01404
   18 Stretch                 17    19                       1.47177
   19 Stretch                 19    20                       1.09127
   20 Stretch                 19    21                       1.54036
   21 Stretch                 19    29                       1.55215
   22 Stretch                 21    22                       1.08973
   23 Stretch                 21    23                       1.08986
   24 Stretch                 21    24                       1.51753
   25 Stretch                 24    25                       1.21762
   26 Stretch                 24    26                       1.30944
   27 Stretch                 26    27                       1.00289
   28 Stretch                 26    28                       1.01182
   29 Stretch                 29    30                       1.22846
   30 Stretch                 29    31                       1.32588
   31 Stretch                 31    32                       1.00691
   32 Stretch                 31    33                       1.01114
   33 Bend                     1     2     3               110.10683
   34 Bend                     1     2     4               109.63890
   35 Bend                     1     2     5               109.36117
   36 Bend                     2     5     6               120.17640
   37 Bend                     2     5     7               116.52655
   38 Bend                     3     2     4               109.58430
   39 Bend                     3     2     5               109.30828
   40 Bend                     4     2     5               108.81943
   41 Bend                     5     7     8               118.54238
   42 Bend                     5     7     9               124.69009
   43 Bend                     6     5     7               123.29626
   44 Bend                     7     9    10               108.93447
   45 Bend                     7     9    11               108.96659
   46 Bend                     7     9    15               111.05119
   47 Bend                     8     7     9               116.69556
   48 Bend                     9    11    12               110.08604
   49 Bend                     9    11    13               109.94956
   50 Bend                     9    11    14               109.73523
   51 Bend                     9    15    16               120.78321
   52 Bend                     9    15    17               117.21823
   53 Bend                    10     9    11               108.43435
   54 Bend                    10     9    15               107.97496
   55 Bend                    11     9    15               111.40922
   56 Bend                    12    11    13               109.24548
   57 Bend                    12    11    14               109.23965
   58 Bend                    13    11    14               108.55746
   59 Bend                    15    17    18               117.66321
   60 Bend                    15    17    19               125.88487
   61 Bend                    16    15    17               121.97723
   62 Bend                    17    19    20               107.71457
   63 Bend                    17    19    21               107.83774
   64 Bend                    17    19    29               114.66711
   65 Bend                    18    17    19               116.42719
   66 Bend                    19    21    22               110.14582
   67 Bend                    19    21    23               109.34517
   68 Bend                    19    21    24               112.04581
   69 Bend                    19    29    30               121.14662
   70 Bend                    19    29    31               119.10396
   71 Bend                    20    19    21               107.74258
   72 Bend                    20    19    29               105.74197
   73 Bend                    21    19    29               112.80726
   74 Bend                    21    24    25               121.23979
   75 Bend                    21    24    26               118.46740
   76 Bend                    22    21    23               107.74903
   77 Bend                    22    21    24               109.48407
   78 Bend                    23    21    24               107.95143
   79 Bend                    24    26    27               117.17232
   80 Bend                    24    26    28               118.73014
   81 Bend                    25    24    26               120.19107
   82 Bend                    27    26    28               123.27911
   83 Bend                    29    31    32               118.71939
   84 Bend                    29    31    33               119.25701
   85 Bend                    30    29    31               119.72386
   86 Bend                    32    31    33               121.85989
   87 Torsion                  1     2     5     6         119.77496
   88 Torsion                  1     2     5     7         -59.91298
   89 Torsion                  2     5     7     8           2.02023
   90 Torsion                  2     5     7     9         178.82641
   91 Torsion                  3     2     5     6        -119.61394
   92 Torsion                  3     2     5     7          60.69812
   93 Torsion                  4     2     5     6           0.03170
   94 Torsion                  4     2     5     7        -179.65624
   95 Torsion                  5     7     9    10         -33.26976
   96 Torsion                  5     7     9    11          84.85524
   97 Torsion                  5     7     9    15        -152.06117
   98 Torsion                  6     5     7     8        -177.65702
   99 Torsion                  6     5     7     9          -0.85084
  100 Torsion                  7     9    11    12          61.56787
  101 Torsion                  7     9    11    13        -178.02798
  102 Torsion                  7     9    11    14         -58.69299
  103 Torsion                  7     9    15    16         -19.55254
  104 Torsion                  7     9    15    17         162.09492
  105 Torsion                  8     7     9    10         143.58989
  106 Torsion                  8     7     9    11         -98.28511
  107 Torsion                  8     7     9    15          24.79848
  108 Torsion                  9    15    17    18          -0.26969
  109 Torsion                  9    15    17    19        -178.38958
  110 Torsion                 10     9    11    12        -179.99279
  111 Torsion                 10     9    11    13         -59.58864
  112 Torsion                 10     9    11    14          59.74635
  113 Torsion                 10     9    15    16        -138.91975
  114 Torsion                 10     9    15    17          42.72771
  115 Torsion                 11     9    15    16         102.11434
  116 Torsion                 11     9    15    17         -76.23820
  117 Torsion                 12    11     9    15         -61.30136
  118 Torsion                 13    11     9    15          59.10279
  119 Torsion                 14    11     9    15         178.43778
  120 Torsion                 15    17    19    20          43.71003
  121 Torsion                 15    17    19    21         159.74070
  122 Torsion                 15    17    19    29         -73.68381
  123 Torsion                 16    15    17    18        -178.60115
  124 Torsion                 16    15    17    19           3.27896
  125 Torsion                 17    19    21    22        -179.89391
  126 Torsion                 17    19    21    23         -61.66857
  127 Torsion                 17    19    21    24          57.97437
  128 Torsion                 17    19    29    30        -138.21969
  129 Torsion                 17    19    29    31          39.93609
  130 Torsion                 18    17    19    20        -134.43045
  131 Torsion                 18    17    19    21         -18.39979
  132 Torsion                 18    17    19    29         108.17570
  133 Torsion                 19    21    24    25         -88.37788
  134 Torsion                 19    21    24    26          87.96076
  135 Torsion                 19    29    31    32        -179.56486
  136 Torsion                 19    29    31    33           4.99772
  137 Torsion                 20    19    21    22         -63.88159
  138 Torsion                 20    19    21    23          54.34375
  139 Torsion                 20    19    21    24         173.98669
  140 Torsion                 20    19    29    30         103.26913
  141 Torsion                 20    19    29    31         -78.57509
  142 Torsion                 21    19    29    30         -14.24733
  143 Torsion                 21    19    29    31         163.90846
  144 Torsion                 21    24    26    27        -178.20414
  145 Torsion                 21    24    26    28          -8.21837
  146 Torsion                 22    21    19    29          52.44976
  147 Torsion                 22    21    24    25         149.11352
  148 Torsion                 22    21    24    26         -34.54784
  149 Torsion                 23    21    19    29         170.67510
  150 Torsion                 23    21    24    25          32.07814
  151 Torsion                 23    21    24    26        -151.58322
  152 Torsion                 24    21    19    29         -69.68196
  153 Torsion                 25    24    26    27          -1.82585
  154 Torsion                 25    24    26    28         168.15993
  155 Torsion                 30    29    31    32          -1.38236
  156 Torsion                 30    29    31    33        -176.81977


            XYZ format geometry
            -------------------
    33
 geometry
 H                    -1.05551312     5.26223314    -1.42782712
 C                    -0.52419609     5.44128090    -0.49509559
 H                    -1.23295554     5.61656532     0.31131834
 H                     0.12597809     6.30847063    -0.60473377
 C                     0.32330350     4.23573657    -0.16205759
 O                     1.53715034     4.34696201    -0.05893271
 N                    -0.32124177     3.08200990    -0.00078711
 H                    -1.32050790     3.06496968    -0.13750156
 C                     0.32308532     1.80297210     0.29971403
 H                     1.30011207     1.77570104    -0.18637240
 C                     0.53254631     1.69383071     1.81800657
 H                    -0.42977988     1.71833417     2.33177392
 H                     1.04408413     0.76045645     2.05701191
 H                     1.14670475     2.52500551     2.16564270
 C                    -0.50900787     0.62419535    -0.23921852
 O                    -1.70247406     0.76548447    -0.50630993
 N                     0.11030049    -0.55193107    -0.36866658
 H                     1.08955217    -0.59939005    -0.10963993
 C                    -0.48923796    -1.78949461    -0.89316266
 H                    -1.07004344    -1.52753098    -1.77910907
 C                     0.65690650    -2.71634083    -1.34040640
 H                     0.25335387    -3.64701783    -1.73852523
 H                     1.22296417    -2.23238583    -2.13611569
 C                     1.61574802    -3.02496853    -0.20538927
 O                     2.57020871    -2.30588607     0.02812987
 N                     1.35586886    -4.04709979     0.57072316
 H                     1.98716154    -4.21683460     1.33127864
 H                     0.46683100    -4.51982237     0.47105340
 C                    -1.48491179    -2.48662478     0.07214411
 O                    -1.48648455    -3.70725180     0.21068362
 N                    -2.32103774    -1.74318361     0.78357550
 H                    -2.95993555    -2.20105280     1.41288814
 H                    -2.34785454    -0.74425962     0.62916786

 ==============================================================================
                                internuclear distances
 ------------------------------------------------------------------------------
       center one      |      center two      | atomic units |  angstroms
 ------------------------------------------------------------------------------
    2 C                |   1 H                |     2.05654  |     1.08828
    3 H                |   2 C                |     2.05570  |     1.08783
    4 H                |   2 C                |     2.05864  |     1.08939
    5 C                |   2 C                |     2.85499  |     1.51080
    6 O                |   5 C                |     2.31168  |     1.22329
    7 N                |   5 C                |     2.51591  |     1.33136
    8 H                |   7 N                |     1.90620  |     1.00872
    9 C                |   7 N                |     2.76533  |     1.46335
   10 H                |   9 C                |     2.06284  |     1.09161
   11 C                |   9 C                |     2.90367  |     1.53655
   12 H                |  11 C                |     2.06199  |     1.09116
   13 H                |  11 C                |     2.06143  |     1.09086
   14 H                |  11 C                |     2.06049  |     1.09036
   15 C                |   9 C                |     2.91063  |     1.54024
   16 O                |  15 C                |     2.32648  |     1.23112
   17 N                |  15 C                |     2.52374  |     1.33550
   18 H                |  17 N                |     1.91626  |     1.01404
   19 C                |  17 N                |     2.78124  |     1.47177
   20 H                |  19 C                |     2.06219  |     1.09127
   21 C                |  19 C                |     2.91086  |     1.54036
   22 H                |  21 C                |     2.05929  |     1.08973
   23 H                |  21 C                |     2.05953  |     1.08986
   24 C                |  21 C                |     2.86771  |     1.51753
   25 O                |  24 C                |     2.30097  |     1.21762
   26 N                |  24 C                |     2.47449  |     1.30944
   27 H                |  26 N                |     1.89518  |     1.00289
   28 H                |  26 N                |     1.91207  |     1.01182
   29 C                |  19 C                |     2.93314  |     1.55215
   30 O                |  29 C                |     2.32146  |     1.22846
   31 N                |  29 C                |     2.50554  |     1.32588
   32 H                |  31 N                |     1.90279  |     1.00691
   33 H                |  31 N                |     1.91078  |     1.01114
 ------------------------------------------------------------------------------
                         number of included internuclear distances:         32
 ==============================================================================



 ==============================================================================
                                 internuclear angles
 ------------------------------------------------------------------------------
        center 1       |       center 2       |       center 3       |  degrees
 ------------------------------------------------------------------------------
    1 H                |   2 C                |   3 H                |   110.11
    1 H                |   2 C                |   4 H                |   109.64
    1 H                |   2 C                |   5 C                |   109.36
    3 H                |   2 C                |   4 H                |   109.58
    3 H                |   2 C                |   5 C                |   109.31
    4 H                |   2 C                |   5 C                |   108.82
    2 C                |   5 C                |   6 O                |   120.18
    2 C                |   5 C                |   7 N                |   116.53
    6 O                |   5 C                |   7 N                |   123.30
    5 C                |   7 N                |   8 H                |   118.54
    5 C                |   7 N                |   9 C                |   124.69
    8 H                |   7 N                |   9 C                |   116.70
    7 N                |   9 C                |  10 H                |   108.93
    7 N                |   9 C                |  11 C                |   108.97
    7 N                |   9 C                |  15 C                |   111.05
   10 H                |   9 C                |  11 C                |   108.43
   10 H                |   9 C                |  15 C                |   107.97
   11 C                |   9 C                |  15 C                |   111.41
    9 C                |  11 C                |  12 H                |   110.09
    9 C                |  11 C                |  13 H                |   109.95
    9 C                |  11 C                |  14 H                |   109.74
   12 H                |  11 C                |  13 H                |   109.25
   12 H                |  11 C                |  14 H                |   109.24
   13 H                |  11 C                |  14 H                |   108.56
    9 C                |  15 C                |  16 O                |   120.78
    9 C                |  15 C                |  17 N                |   117.22
   16 O                |  15 C                |  17 N                |   121.98
   15 C                |  17 N                |  18 H                |   117.66
   15 C                |  17 N                |  19 C                |   125.88
   18 H                |  17 N                |  19 C                |   116.43
   17 N                |  19 C                |  20 H                |   107.71
   17 N                |  19 C                |  21 C                |   107.84
   17 N                |  19 C                |  29 C                |   114.67
   20 H                |  19 C                |  21 C                |   107.74
   20 H                |  19 C                |  29 C                |   105.74
   21 C                |  19 C                |  29 C                |   112.81
   19 C                |  21 C                |  22 H                |   110.15
   19 C                |  21 C                |  23 H                |   109.35
   19 C                |  21 C                |  24 C                |   112.05
   22 H                |  21 C                |  23 H                |   107.75
   22 H                |  21 C                |  24 C                |   109.48
   23 H                |  21 C                |  24 C                |   107.95
   21 C                |  24 C                |  25 O                |   121.24
   21 C                |  24 C                |  26 N                |   118.47
   25 O                |  24 C                |  26 N                |   120.19
   24 C                |  26 N                |  27 H                |   117.17
   24 C                |  26 N                |  28 H                |   118.73
   27 H                |  26 N                |  28 H                |   123.28
   19 C                |  29 C                |  30 O                |   121.15
   19 C                |  29 C                |  31 N                |   119.10
   30 O                |  29 C                |  31 N                |   119.72
   29 C                |  31 N                |  32 H                |   118.72
   29 C                |  31 N                |  33 H                |   119.26
   32 H                |  31 N                |  33 H                |   121.86
 ------------------------------------------------------------------------------
                            number of included internuclear angles:         54
 ==============================================================================



  library name resolved from: environment
  library file name is: </opt/rit/el9/20230413/app/linux-rhel9-x86_64_v3/gcc-11.2.1/nwchem-7.2.0-oxtctbuhfuzyfaoziquq6bki22grib3g/share/nwchem/libraries/>
  


 Summary of "ao basis" -> "" (cartesian)
 ------------------------------------------------------------------------------
       Tag                 Description            Shells   Functions and Types
 ---------------- ------------------------------  ------  ---------------------
 *                        aug-cc-pvdz                 on all atoms 


                      Basis "ao basis" -> "ao basis" (cartesian)
                      -----
  H (Hydrogen)
  ------------
            Exponent  Coefficients 
       -------------- ---------------------------------------------------------
  1 S  1.30100000E+01  0.019685
  1 S  1.96200000E+00  0.137977
  1 S  4.44600000E-01  0.478148

  2 S  1.22000000E-01  1.000000

  3 S  2.97400000E-02  1.000000

  4 P  7.27000000E-01  1.000000

  5 P  1.41000000E-01  1.000000

  C (Carbon)
  ----------
            Exponent  Coefficients 
       -------------- ---------------------------------------------------------
  1 S  6.66500000E+03  0.000692
  1 S  1.00000000E+03  0.005329
  1 S  2.28000000E+02  0.027077
  1 S  6.47100000E+01  0.101718
  1 S  2.10600000E+01  0.274740
  1 S  7.49500000E+00  0.448564
  1 S  2.79700000E+00  0.285074
  1 S  5.21500000E-01  0.015204

  2 S  6.66500000E+03 -0.000146
  2 S  1.00000000E+03 -0.001154
  2 S  2.28000000E+02 -0.005725
  2 S  6.47100000E+01 -0.023312
  2 S  2.10600000E+01 -0.063955
  2 S  7.49500000E+00 -0.149981
  2 S  2.79700000E+00 -0.127262
  2 S  5.21500000E-01  0.544529

  3 S  1.59600000E-01  1.000000

  4 S  4.69000000E-02  1.000000

  5 P  9.43900000E+00  0.038109
  5 P  2.00200000E+00  0.209480
  5 P  5.45600000E-01  0.508557

  6 P  1.51700000E-01  1.000000

  7 P  4.04100000E-02  1.000000

  8 D  5.50000000E-01  1.000000

  9 D  1.51000000E-01  1.000000

  O (Oxygen)
  ----------
            Exponent  Coefficients 
       -------------- ---------------------------------------------------------
  1 S  1.17200000E+04  0.000710
  1 S  1.75900000E+03  0.005470
  1 S  4.00800000E+02  0.027837
  1 S  1.13700000E+02  0.104800
  1 S  3.70300000E+01  0.283062
  1 S  1.32700000E+01  0.448719
  1 S  5.02500000E+00  0.270952
  1 S  1.01300000E+00  0.015458

  2 S  1.17200000E+04 -0.000160
  2 S  1.75900000E+03 -0.001263
  2 S  4.00800000E+02 -0.006267
  2 S  1.13700000E+02 -0.025716
  2 S  3.70300000E+01 -0.070924
  2 S  1.32700000E+01 -0.165411
  2 S  5.02500000E+00 -0.116955
  2 S  1.01300000E+00  0.557368

  3 S  3.02300000E-01  1.000000

  4 S  7.89600000E-02  1.000000

  5 P  1.77000000E+01  0.043018
  5 P  3.85400000E+00  0.228913
  5 P  1.04600000E+00  0.508728

  6 P  2.75300000E-01  1.000000

  7 P  6.85600000E-02  1.000000

  8 D  1.18500000E+00  1.000000

  9 D  3.32000000E-01  1.000000

  N (Nitrogen)
  ------------
            Exponent  Coefficients 
       -------------- ---------------------------------------------------------
  1 S  9.04600000E+03  0.000700
  1 S  1.35700000E+03  0.005389
  1 S  3.09300000E+02  0.027406
  1 S  8.77300000E+01  0.103207
  1 S  2.85600000E+01  0.278723
  1 S  1.02100000E+01  0.448540
  1 S  3.83800000E+00  0.278238
  1 S  7.46600000E-01  0.015440

  2 S  9.04600000E+03 -0.000153
  2 S  1.35700000E+03 -0.001208
  2 S  3.09300000E+02 -0.005992
  2 S  8.77300000E+01 -0.024544
  2 S  2.85600000E+01 -0.067459
  2 S  1.02100000E+01 -0.158078
  2 S  3.83800000E+00 -0.121831
  2 S  7.46600000E-01  0.549003

  3 S  2.24800000E-01  1.000000

  4 S  6.12400000E-02  1.000000

  5 P  1.35500000E+01  0.039919
  5 P  2.91700000E+00  0.217169
  5 P  7.97300000E-01  0.510319

  6 P  2.18500000E-01  1.000000

  7 P  5.61100000E-02  1.000000

  8 D  8.17000000E-01  1.000000

  9 D  2.30000000E-01  1.000000



 Summary of "ao basis" -> "ao basis" (cartesian)
 ------------------------------------------------------------------------------
       Tag                 Description            Shells   Functions and Types
 ---------------- ------------------------------  ------  ---------------------
 H                        aug-cc-pvdz                5        9   3s2p
 C                        aug-cc-pvdz                9       25   4s3p2d
 O                        aug-cc-pvdz                9       25   4s3p2d
 N                        aug-cc-pvdz                9       25   4s3p2d


                                 NWChem SCF Module
                                 -----------------



  ao basis        = "ao basis"
  functions       =   569
  atoms           =    33
  closed shells   =    65
  open shells     =     0
  charge          =   0.00
  wavefunction    = RHF 
  input vectors   = atomic
  output vectors  = ./ALA_ASN_2.movecs
  use symmetry    = F
  symmetry adapt  = F


 Summary of "ao basis" -> "ao basis" (cartesian)
 ------------------------------------------------------------------------------
       Tag                 Description            Shells   Functions and Types
 ---------------- ------------------------------  ------  ---------------------
 H                        aug-cc-pvdz                5        9   3s2p
 C                        aug-cc-pvdz                9       25   4s3p2d
 O                        aug-cc-pvdz                9       25   4s3p2d
 N                        aug-cc-pvdz                9       25   4s3p2d



 Forming initial guess at       1.0s


 !! The overlap matrix has   4 vectors deemed linearly dependent with
    eigenvalues:
 3.02D-06 5.10D-06 6.77D-06 9.80D-06


      Superposition of Atomic Density Guess
      -------------------------------------

 Sum of atomic energies:        -863.27065637

      Non-variational initial energy
      ------------------------------

 Total energy =    -874.085420
 1-e energy   =   -3701.876509
 2-e energy   =    1555.804080
 HOMO         =      -0.305312
 LUMO         =       0.006977


 Starting SCF solution at     171.4s



 ----------------------------------------------
         Quadratically convergent ROHF

 Convergence threshold     :          1.000E-04
 Maximum no. of iterations :           30
 Final Fock-matrix accuracy:          1.000E-10
 ----------------------------------------------


              iter       energy          gnorm     gmax       time
             ----- ------------------- --------- --------- --------
                 1     -867.1719687293  2.65D+00  1.69D-01    361.1
                 2     -867.5368576403  8.42D-01  4.43D-02    746.3
                 3     -867.5992776035  6.70D-02  4.78D-03   1267.3
                 4     -867.5999743526  4.07D-03  3.62D-04   2030.0
                 5     -867.5999774843  8.28D-06  5.55D-07   3371.8


       Final RHF  results 
       ------------------ 

         Total SCF energy =   -867.599977484343
      One-electron energy =  -3713.088019165806
      Two-electron energy =   1573.501031975523
 Nuclear repulsion energy =   1271.987009705940

        Time for solution =   3205.3s


             Final eigenvalues
             -----------------

              1      
    1  -20.5604
    2  -20.5453
    3  -20.5322
    4  -20.5218
    5  -15.6257
    6  -15.6025
    7  -15.5990
    8  -15.5931
    9  -11.3886
   10  -11.3799
   11  -11.3625
   12  -11.3542
   13  -11.3308
   14  -11.3087
   15  -11.2714
   16  -11.2443
   17  -11.2421
   18   -1.4225
   19   -1.4075
   20   -1.4022
   21   -1.3842
   22   -1.2733
   23   -1.2478
   24   -1.2335
   25   -1.2286
   26   -1.0938
   27   -1.0571
   28   -0.9942
   29   -0.9558
   30   -0.9040
   31   -0.8433
   32   -0.8200
   33   -0.7967
   34   -0.7946
   35   -0.7642
   36   -0.7473
   37   -0.7338
   38   -0.7057
   39   -0.6938
   40   -0.6745
   41   -0.6660
   42   -0.6503
   43   -0.6392
   44   -0.6259
   45   -0.6222
   46   -0.6138
   47   -0.6001
   48   -0.5936
   49   -0.5872
   50   -0.5683
   51   -0.5665
   52   -0.5564
   53   -0.5536
   54   -0.5485
   55   -0.5396
   56   -0.5333
   57   -0.5047
   58   -0.4674
   59   -0.4537
   60   -0.4370
   61   -0.4267
   62   -0.4204
   63   -0.4180
   64   -0.4133
   65   -0.3964
   66    0.0280
   67    0.0355
   68    0.0361
   69    0.0423
   70    0.0499
   71    0.0532
   72    0.0570
   73    0.0616
   74    0.0671
   75    0.0723

                       ROHF Final Molecular Orbital Analysis
                       -------------------------------------

 Vector   18  Occ=2.000000D+00  E=-1.422510D+00
              MO Center= -1.1D+00,  3.1D-01, -3.5D-01, r^2= 2.2D+00
   Bfn.  Coefficient  Atom+Function         Bfn.  Coefficient  Atom+Function  
  ----- ------------  ---------------      ----- ------------  ---------------
   250      0.352155  16 O  s               249      0.332089  16 O  s         
   224      0.231108  15 C  s         

 Vector   19  Occ=2.000000D+00  E=-1.407469D+00
              MO Center= -6.8D-01, -2.7D+00,  1.1D-01, r^2= 4.4D+00
   Bfn.  Coefficient  Atom+Function         Bfn.  Coefficient  Atom+Function  
  ----- ------------  ---------------      ----- ------------  ---------------
   504      0.321369  30 O  s               503      0.296258  30 O  s         
   478      0.201338  29 C  s               411      0.166134  25 O  s         
   410      0.161989  25 O  s         

 Vector   20  Occ=2.000000D+00  E=-1.402151D+00
              MO Center=  1.3D+00, -2.8D+00,  6.2D-02, r^2= 3.4D+00
   Bfn.  Coefficient  Atom+Function         Bfn.  Coefficient  Atom+Function  
  ----- ------------  ---------------      ----- ------------  ---------------
   411      0.331612  25 O  s               410      0.308804  25 O  s         
   385      0.216650  24 C  s               504     -0.192481  30 O  s         
   503     -0.177088  30 O  s         

 Vector   21  Occ=2.000000D+00  E=-1.384231D+00
              MO Center=  9.4D-01,  4.1D+00, -8.5D-02, r^2= 1.2D+00
   Bfn.  Coefficient  Atom+Function         Bfn.  Coefficient  Atom+Function  
  ----- ------------  ---------------      ----- ------------  ---------------
    79      0.346229   6 O  s                80      0.347129   6 O  s         
    54      0.245974   5 C  s                12      0.174164   2 C  s         

 Vector   22  Occ=2.000000D+00  E=-1.273282D+00
              MO Center= -2.6D-01, -5.3D-01, -3.9D-01, r^2= 1.9D+00
   Bfn.  Coefficient  Atom+Function         Bfn.  Coefficient  Atom+Function  
  ----- ------------  ---------------      ----- ------------  ---------------
   275      0.405616  17 N  s               274      0.338183  17 N  s         
   250     -0.220581  16 O  s               249     -0.177161  16 O  s         
   227      0.150881  15 C  px        

 Vector   23  Occ=2.000000D+00  E=-1.247823D+00
              MO Center=  3.8D-03,  3.1D+00,  2.1D-02, r^2= 2.1D+00
   Bfn.  Coefficient  Atom+Function         Bfn.  Coefficient  Atom+Function  
  ----- ------------  ---------------      ----- ------------  ---------------
   105      0.449012   7 N  s               104      0.339609   7 N  s         
    80     -0.213379   6 O  s                79     -0.186708   6 O  s         
    57     -0.162270   5 C  px              128      0.151962   8 H  s         
   138      0.150800   9 C  s         

 Vector   24  Occ=2.000000D+00  E=-1.233491D+00
              MO Center= -3.3D-01, -2.7D+00,  4.7D-01, r^2= 5.4D+00
   Bfn.  Coefficient  Atom+Function         Bfn.  Coefficient  Atom+Function  
  ----- ------------  ---------------      ----- ------------  ---------------
   529      0.284565  31 N  s               528      0.268268  31 N  s         
   435     -0.250223  26 N  s               436     -0.229323  26 N  s         
   411      0.156226  25 O  s         

 Vector   25  Occ=2.000000D+00  E=-1.228550D+00
              MO Center= -1.7D-01, -2.8D+00,  4.6D-01, r^2= 5.4D+00
   Bfn.  Coefficient  Atom+Function         Bfn.  Coefficient  Atom+Function  
  ----- ------------  ---------------      ----- ------------  ---------------
   529      0.280315  31 N  s               435      0.266969  26 N  s         
   436      0.250553  26 N  s               528      0.251085  31 N  s         
   504     -0.153949  30 O  s               411     -0.152054  25 O  s         

 Vector   26  Occ=2.000000D+00  E=-1.093827D+00
              MO Center=  8.0D-02, -8.6D-01, -5.0D-01, r^2= 6.5D+00
   Bfn.  Coefficient  Atom+Function         Bfn.  Coefficient  Atom+Function  
  ----- ------------  ---------------      ----- ------------  ---------------
   308      0.216828  19 C  s               342      0.216091  21 C  s         
   343      0.166038  21 C  s         

 Vector   27  Occ=2.000000D+00  E=-1.057096D+00
              MO Center=  2.2D-01,  1.3D+00,  1.2D-01, r^2= 8.9D+00
   Bfn.  Coefficient  Atom+Function         Bfn.  Coefficient  Atom+Function  
  ----- ------------  ---------------      ----- ------------  ---------------
   343      0.250333  21 C  s               138      0.205767   9 C  s         
   172      0.187426  11 C  s               342      0.161426  21 C  s         
    12     -0.159211   2 C  s         

 Vector   28  Occ=2.000000D+00  E=-9.942024D-01
              MO Center= -2.2D-01,  4.3D+00, -9.9D-02, r^2= 5.4D+00
   Bfn.  Coefficient  Atom+Function         Bfn.  Coefficient  Atom+Function  
  ----- ------------  ---------------      ----- ------------  ---------------
    11      0.321564   2 C  s                56     -0.251389   5 C  s         
   225      0.170149  15 C  s                13      0.163173   2 C  s         
     1      0.150225   1 H  s                35      0.150959   3 H  s         

 Vector   29  Occ=2.000000D+00  E=-9.558027D-01
              MO Center=  7.8D-02, -1.8D+00, -3.8D-01, r^2= 5.6D+00
   Bfn.  Coefficient  Atom+Function         Bfn.  Coefficient  Atom+Function  
  ----- ------------  ---------------      ----- ------------  ---------------
   343      0.333964  21 C  s               342      0.207641  21 C  s         
   308     -0.197201  19 C  s         

 Vector   30  Occ=2.000000D+00  E=-9.040077D-01
              MO Center=  6.7D-03,  1.2D+00,  6.4D-01, r^2= 6.2D+00
   Bfn.  Coefficient  Atom+Function         Bfn.  Coefficient  Atom+Function  
  ----- ------------  ---------------      ----- ------------  ---------------
   146      0.244587   9 C  pz              172      0.237335  11 C  s         
    56     -0.201780   5 C  s               309     -0.192218  19 C  s         
   144      0.184682   9 C  px              138     -0.162172   9 C  s         
   180      0.152893  11 C  pz        

 Vector   31  Occ=2.000000D+00  E=-8.433219D-01
              MO Center= -3.8D-01, -5.8D-01, -5.0D-04, r^2= 8.1D+00
   Bfn.  Coefficient  Atom+Function         Bfn.  Coefficient  Atom+Function  
  ----- ------------  ---------------      ----- ------------  ---------------
   309      0.327293  19 C  s               225      0.207761  15 C  s         
   278      0.199731  17 N  py              343      0.162071  21 C  s         
   277     -0.155544  17 N  px              478      0.152677  29 C  s         

 Vector   32  Occ=2.000000D+00  E=-8.200404D-01
              MO Center=  2.4D-02, -1.7D+00, -1.1D-01, r^2= 7.8D+00
   Bfn.  Coefficient  Atom+Function         Bfn.  Coefficient  Atom+Function  
  ----- ------------  ---------------      ----- ------------  ---------------
   225      0.207139  15 C  s               275     -0.183077  17 N  s         
   314      0.171046  19 C  px              298     -0.160763  18 H  s         
   385     -0.157826  24 C  s               316     -0.156408  19 C  pz        
   277     -0.151325  17 N  px              439     -0.151637  26 N  py        

 Vector   33  Occ=2.000000D+00  E=-7.967099D-01
              MO Center= -1.2D-01, -1.5D+00,  1.4D-01, r^2= 9.5D+00
   Bfn.  Coefficient  Atom+Function         Bfn.  Coefficient  Atom+Function  
  ----- ------------  ---------------      ----- ------------  ---------------
   225      0.180769  15 C  s               439      0.170590  26 N  py        
   277     -0.168904  17 N  px              532      0.154841  31 N  py        
   298     -0.152187  18 H  s         

 Vector   34  Occ=2.000000D+00  E=-7.945601D-01
              MO Center= -1.1D-02,  1.8D+00,  8.3D-02, r^2= 8.2D+00
   Bfn.  Coefficient  Atom+Function         Bfn.  Coefficient  Atom+Function  
  ----- ------------  ---------------      ----- ------------  ---------------
   107      0.295823   7 N  px              128     -0.279901   8 H  s         
   105     -0.244316   7 N  s                55      0.214761   5 C  s         
   163      0.183386  10 H  s               344     -0.176442  21 C  s         
   139      0.174782   9 C  s               144     -0.167476   9 C  px        
   162      0.159194  10 H  s         

 Vector   35  Occ=2.000000D+00  E=-7.642221D-01
              MO Center= -7.8D-01, -2.3D+00,  2.5D-01, r^2= 5.5D+00
   Bfn.  Coefficient  Atom+Function         Bfn.  Coefficient  Atom+Function  
  ----- ------------  ---------------      ----- ------------  ---------------
   532      0.279215  31 N  py              561      0.234572  33 H  s         
   438     -0.192470  26 N  px              468      0.181606  28 H  s         
   552     -0.154029  32 H  s               562      0.151173  33 H  s         

 Vector   36  Occ=2.000000D+00  E=-7.473369D-01
              MO Center= -6.5D-02,  7.0D-02, -2.2D-02, r^2= 1.0D+01
   Bfn.  Coefficient  Atom+Function         Bfn.  Coefficient  Atom+Function  
  ----- ------------  ---------------      ----- ------------  ---------------
   145      0.205082   9 C  py              142      0.192097   9 C  py        
   277     -0.187102  17 N  px              225      0.168640  15 C  s         
   315      0.166954  19 C  py              228     -0.165421  15 C  py        

 Vector   37  Occ=2.000000D+00  E=-7.337515D-01
              MO Center= -7.0D-02, -2.2D+00,  2.6D-01, r^2= 9.4D+00
   Bfn.  Coefficient  Atom+Function         Bfn.  Coefficient  Atom+Function  
  ----- ------------  ---------------      ----- ------------  ---------------
   438      0.261902  26 N  px              459      0.213045  27 H  s         
   468     -0.211832  28 H  s               552     -0.185920  32 H  s         
   532      0.173386  31 N  py              343      0.165168  21 C  s         
   561      0.155550  33 H  s         

 Vector   38  Occ=2.000000D+00  E=-7.057201D-01
              MO Center= -3.6D-01, -7.2D-01, -1.9D-01, r^2= 9.5D+00
   Bfn.  Coefficient  Atom+Function         Bfn.  Coefficient  Atom+Function  
  ----- ------------  ---------------      ----- ------------  ---------------
   315      0.222995  19 C  py              252      0.184039  16 O  px        
   278     -0.171377  17 N  py              250     -0.166244  16 O  s         

 Vector   39  Occ=2.000000D+00  E=-6.937809D-01
              MO Center= -7.1D-01, -1.2D+00, -8.6D-02, r^2= 9.4D+00
   Bfn.  Coefficient  Atom+Function         Bfn.  Coefficient  Atom+Function  
  ----- ------------  ---------------      ----- ------------  ---------------
   313      0.173096  19 C  pz              481      0.169096  29 C  px        
   504     -0.168796  30 O  s               507      0.168259  30 O  py        
   480      0.166832  29 C  s               332     -0.161782  20 H  s         
   533      0.157310  31 N  pz        

 Vector   40  Occ=2.000000D+00  E=-6.744932D-01
              MO Center=  8.3D-01, -4.7D-01, -1.0D-01, r^2= 1.1D+01
   Bfn.  Coefficient  Atom+Function         Bfn.  Coefficient  Atom+Function  
  ----- ------------  ---------------      ----- ------------  ---------------
   413     -0.196071  25 O  px              389      0.189005  24 C  py        
   411     -0.168204  25 O  s         

 Vector   41  Occ=2.000000D+00  E=-6.659625D-01
              MO Center=  1.1D-01,  3.1D+00, -1.5D-01, r^2= 8.7D+00
   Bfn.  Coefficient  Atom+Function         Bfn.  Coefficient  Atom+Function  
  ----- ------------  ---------------      ----- ------------  ---------------
    82     -0.252839   6 O  px               58      0.239140   5 C  py        
    80     -0.207615   6 O  s                14      0.183217   2 C  px        
   252     -0.182254  16 O  px               12      0.161982   2 C  s         
    18     -0.151826   2 C  py        

 Vector   42  Occ=2.000000D+00  E=-6.503386D-01
              MO Center=  3.4D-01, -4.7D-01, -1.9D-01, r^2= 9.3D+00
   Bfn.  Coefficient  Atom+Function         Bfn.  Coefficient  Atom+Function  
  ----- ------------  ---------------      ----- ------------  ---------------
   139      0.208032   9 C  s               413      0.181535  25 O  px        
   332     -0.172588  20 H  s               277     -0.165982  17 N  px        
   313      0.165869  19 C  pz              344     -0.156036  21 C  s         
   316      0.154698  19 C  pz        

 Vector   43  Occ=2.000000D+00  E=-6.392283D-01
              MO Center= -2.1D-01,  2.1D+00,  2.3D-01, r^2= 7.5D+00
   Bfn.  Coefficient  Atom+Function         Bfn.  Coefficient  Atom+Function  
  ----- ------------  ---------------      ----- ------------  ---------------
   173      0.338441  11 C  s               139     -0.292908   9 C  s         
   229     -0.171562  15 C  pz              252      0.169895  16 O  px        
   143     -0.164283   9 C  pz              109     -0.159489   7 N  pz        
   145      0.152215   9 C  py        

 Vector   44  Occ=2.000000D+00  E=-6.259230D-01
              MO Center= -7.4D-01, -7.2D-01,  2.9D-03, r^2= 1.4D+01
   Bfn.  Coefficient  Atom+Function         Bfn.  Coefficient  Atom+Function  
  ----- ------------  ---------------      ----- ------------  ---------------
   507      0.308489  30 O  py              482     -0.236963  29 C  py        
   139      0.177310   9 C  s               173     -0.175908  11 C  s         
   479      0.176594  29 C  s               504     -0.173479  30 O  s         
   510      0.160498  30 O  py              532      0.153588  31 N  py        

 Vector   45  Occ=2.000000D+00  E=-6.222424D-01
              MO Center= -2.8D-02,  5.8D-01, -4.3D-02, r^2= 1.4D+01
   Bfn.  Coefficient  Atom+Function         Bfn.  Coefficient  Atom+Function  
  ----- ------------  ---------------      ----- ------------  ---------------
   139      0.238791   9 C  s                56      0.214053   5 C  s         
   507     -0.177123  30 O  py               16      0.163860   2 C  pz        

 Vector   46  Occ=2.000000D+00  E=-6.137931D-01
              MO Center=  1.9D-01, -2.0D+00, -2.5D-01, r^2= 7.4D+00
   Bfn.  Coefficient  Atom+Function         Bfn.  Coefficient  Atom+Function  
  ----- ------------  ---------------      ----- ------------  ---------------
   346      0.190811  21 C  py              348     -0.173836  21 C  px        
   311      0.171905  19 C  px        

 Vector   47  Occ=2.000000D+00  E=-6.001288D-01
              MO Center= -3.9D-01,  1.5D+00, -8.3D-02, r^2= 1.1D+01
   Bfn.  Coefficient  Atom+Function         Bfn.  Coefficient  Atom+Function  
  ----- ------------  ---------------      ----- ------------  ---------------
   227      0.179873  15 C  px              253      0.172647  16 O  py        
    35      0.170543   3 H  s                16      0.164869   2 C  pz        
   254     -0.154352  16 O  pz        

 Vector   48  Occ=2.000000D+00  E=-5.935543D-01
              MO Center=  9.6D-01, -2.7D+00, -1.3D-01, r^2= 4.8D+00
   Bfn.  Coefficient  Atom+Function         Bfn.  Coefficient  Atom+Function  
  ----- ------------  ---------------      ----- ------------  ---------------
   414     -0.289278  25 O  py              388      0.278178  24 C  px        
   347     -0.211694  21 C  pz              413     -0.186742  25 O  px        
   411     -0.180737  25 O  s               417     -0.167967  25 O  py        

 Vector   49  Occ=2.000000D+00  E=-5.872147D-01
              MO Center=  2.6D-01,  2.7D+00,  4.9D-01, r^2= 7.9D+00
   Bfn.  Coefficient  Atom+Function         Bfn.  Coefficient  Atom+Function  
  ----- ------------  ---------------      ----- ------------  ---------------
    82      0.224940   6 O  px               57     -0.218866   5 C  px        
   205     -0.216945  13 H  s               206     -0.207827  13 H  s         
    15     -0.202199   2 C  py              176      0.190952  11 C  py        
   175     -0.166952  11 C  px        

 Vector   50  Occ=2.000000D+00  E=-5.682849D-01
              MO Center=  1.8D-01,  4.4D+00, -7.7D-02, r^2= 5.0D+00
   Bfn.  Coefficient  Atom+Function         Bfn.  Coefficient  Atom+Function  
  ----- ------------  ---------------      ----- ------------  ---------------
    14      0.253804   2 C  px               82      0.249980   6 O  px        
    45      0.247521   4 H  s                 1     -0.222681   1 H  s         
    44      0.220561   4 H  s                57     -0.197213   5 C  px        
   215     -0.154039  14 H  s         

 Vector   51  Occ=2.000000D+00  E=-5.665307D-01
              MO Center=  1.3D-01, -1.7D+00, -4.6D-01, r^2= 9.8D+00
   Bfn.  Coefficient  Atom+Function         Bfn.  Coefficient  Atom+Function  
  ----- ------------  ---------------      ----- ------------  ---------------
   367      0.250691  22 H  s               366      0.224892  22 H  s         
   376     -0.222990  23 H  s               346     -0.204117  21 C  py        
   375     -0.180954  23 H  s               345     -0.163191  21 C  px        

 Vector   52  Occ=2.000000D+00  E=-5.563631D-01
              MO Center=  8.0D-02, -7.9D-01, -3.0D-01, r^2= 1.2D+01
   Bfn.  Coefficient  Atom+Function         Bfn.  Coefficient  Atom+Function  
  ----- ------------  ---------------      ----- ------------  ---------------
   375      0.233385  23 H  s               343      0.220746  21 C  s         
   333     -0.168575  20 H  s               387     -0.164750  24 C  s         
   347     -0.157294  21 C  pz               13      0.155215   2 C  s         

 Vector   53  Occ=2.000000D+00  E=-5.535744D-01
              MO Center= -8.7D-03,  1.7D+00,  5.3D-01, r^2= 1.1D+01
   Bfn.  Coefficient  Atom+Function         Bfn.  Coefficient  Atom+Function  
  ----- ------------  ---------------      ----- ------------  ---------------
   215      0.255089  14 H  s               214      0.246830  14 H  s         
   176      0.219916  11 C  py              163     -0.180586  10 H  s         
    44      0.172484   4 H  s               253      0.161482  16 O  py        
   175      0.155787  11 C  px        

 Vector   54  Occ=2.000000D+00  E=-5.484755D-01
              MO Center= -3.4D-01,  9.7D-01, -1.5D-01, r^2= 1.3D+01
   Bfn.  Coefficient  Atom+Function         Bfn.  Coefficient  Atom+Function  
  ----- ------------  ---------------      ----- ------------  ---------------
   343      0.338817  21 C  s               309     -0.209749  19 C  s         
   254     -0.185409  16 O  pz              315      0.165995  19 C  py        
   508     -0.156044  30 O  pz              163     -0.153965  10 H  s         
    44      0.150523   4 H  s         

 Vector   55  Occ=2.000000D+00  E=-5.396272D-01
              MO Center=  4.4D-01, -2.0D+00, -3.9D-01, r^2= 6.4D+00
   Bfn.  Coefficient  Atom+Function         Bfn.  Coefficient  Atom+Function  
  ----- ------------  ---------------      ----- ------------  ---------------
   348     -0.220778  21 C  px              311      0.214155  19 C  px        
   346      0.214879  21 C  py              312     -0.198142  19 C  py        
   414     -0.177077  25 O  py              309     -0.160735  19 C  s         
   349      0.158533  21 C  py              332     -0.156484  20 H  s         

 Vector   56  Occ=2.000000D+00  E=-5.332711D-01
              MO Center=  2.5D-01,  2.1D+00,  8.2D-01, r^2= 5.8D+00
   Bfn.  Coefficient  Atom+Function         Bfn.  Coefficient  Atom+Function  
  ----- ------------  ---------------      ----- ------------  ---------------
   163      0.288075  10 H  s               197      0.267465  12 H  s         
   175     -0.240360  11 C  px              196      0.235019  12 H  s         
   206     -0.235589  13 H  s               205     -0.234040  13 H  s         
   162      0.191979  10 H  s               141      0.185204   9 C  px        
   176      0.159564  11 C  py        

 Vector   57  Occ=2.000000D+00  E=-5.047063D-01
              MO Center=  4.3D-01,  3.5D+00,  1.7D-01, r^2= 5.1D+00
   Bfn.  Coefficient  Atom+Function         Bfn.  Coefficient  Atom+Function  
  ----- ------------  ---------------      ----- ------------  ---------------
    84      0.316975   6 O  pz               87      0.231054   6 O  pz        
   143     -0.211937   9 C  pz               59      0.209425   5 C  pz        
   177      0.193635  11 C  pz               16     -0.174357   2 C  pz        
     1      0.155557   1 H  s                36     -0.155623   3 H  s         

 Vector   58  Occ=2.000000D+00  E=-4.673641D-01
              MO Center= -1.1D+00, -1.6D+00, -9.2D-02, r^2= 5.8D+00
   Bfn.  Coefficient  Atom+Function         Bfn.  Coefficient  Atom+Function  
  ----- ------------  ---------------      ----- ------------  ---------------
   506      0.324499  30 O  px              254      0.300582  16 O  pz        
   508     -0.256006  30 O  pz              509      0.256743  30 O  px        
   257      0.234659  16 O  pz              279     -0.217907  17 N  pz        
   511     -0.200344  30 O  pz              282     -0.197154  17 N  pz        

 Vector   59  Occ=2.000000D+00  E=-4.536590D-01
              MO Center= -1.0D+00,  4.7D-01, -1.5D-01, r^2= 4.3D+00
   Bfn.  Coefficient  Atom+Function         Bfn.  Coefficient  Atom+Function  
  ----- ------------  ---------------      ----- ------------  ---------------
   253      0.467782  16 O  py              256      0.390996  16 O  py        
   275      0.188002  17 N  s               141      0.167855   9 C  px        
   506     -0.158317  30 O  px        

 Vector   60  Occ=2.000000D+00  E=-4.370067D-01
              MO Center=  8.2D-01, -2.5D+00,  5.3D-02, r^2= 5.8D+00
   Bfn.  Coefficient  Atom+Function         Bfn.  Coefficient  Atom+Function  
  ----- ------------  ---------------      ----- ------------  ---------------
   414      0.290616  25 O  py              415     -0.263378  25 O  pz        
   387     -0.254341  24 C  s               417      0.238108  25 O  py        
   508     -0.219144  30 O  pz              418     -0.202371  25 O  pz        
   413     -0.192303  25 O  px              511     -0.171313  30 O  pz        
   531      0.172050  31 N  px              437      0.155464  26 N  s         

 Vector   61  Occ=2.000000D+00  E=-4.266929D-01
              MO Center=  1.0D-01, -2.6D+00,  2.3D-01, r^2= 6.2D+00
   Bfn.  Coefficient  Atom+Function         Bfn.  Coefficient  Atom+Function  
  ----- ------------  ---------------      ----- ------------  ---------------
   415      0.357404  25 O  pz              418      0.282917  25 O  pz        
   508     -0.241750  30 O  pz              531      0.227471  31 N  px        
   533      0.226798  31 N  pz              534      0.203582  31 N  px        
   511     -0.191345  30 O  pz              536      0.185558  31 N  pz        
   439     -0.179886  26 N  py        

 Vector   62  Occ=2.000000D+00  E=-4.204074D-01
              MO Center=  7.1D-01,  3.3D+00, -1.5D-01, r^2= 8.0D+00
   Bfn.  Coefficient  Atom+Function         Bfn.  Coefficient  Atom+Function  
  ----- ------------  ---------------      ----- ------------  ---------------
    83      0.470789   6 O  py               86      0.374724   6 O  py        
   105      0.215868   7 N  s               344     -0.193534  21 C  s         
    13      0.176597   2 C  s               145     -0.161496   9 C  py        
    17     -0.159875   2 C  px               18      0.160450   2 C  py        
    14     -0.158152   2 C  px               84     -0.154284   6 O  pz        

 Vector   63  Occ=2.000000D+00  E=-4.180152D-01
              MO Center=  1.4D-01, -3.0D-01, -1.4D-01, r^2= 1.1D+01
   Bfn.  Coefficient  Atom+Function         Bfn.  Coefficient  Atom+Function  
  ----- ------------  ---------------      ----- ------------  ---------------
   279      0.272949  17 N  pz              282      0.250076  17 N  pz        
    83      0.248729   6 O  py               86      0.195513   6 O  py        
   254     -0.183183  16 O  pz              508     -0.163336  30 O  pz        
   506      0.154419  30 O  px        

 Vector   64  Occ=2.000000D+00  E=-4.133094D-01
              MO Center=  4.9D-01, -2.8D+00,  2.8D-01, r^2= 6.5D+00
   Bfn.  Coefficient  Atom+Function         Bfn.  Coefficient  Atom+Function  
  ----- ------------  ---------------      ----- ------------  ---------------
   506     -0.239496  30 O  px              442      0.233823  26 N  py        
   439      0.226096  26 N  py              440      0.208001  26 N  pz        
   415     -0.199700  25 O  pz              509     -0.198775  30 O  px        
   438     -0.190505  26 N  px              533      0.179197  31 N  pz        
   413      0.162250  25 O  px              441     -0.161506  26 N  px        

 Vector   65  Occ=2.000000D+00  E=-3.964353D-01
              MO Center=  2.9D-01,  3.0D+00,  7.2D-02, r^2= 4.3D+00
   Bfn.  Coefficient  Atom+Function         Bfn.  Coefficient  Atom+Function  
  ----- ------------  ---------------      ----- ------------  ---------------
   109      0.423213   7 N  pz              112      0.390987   7 N  pz        
    84     -0.328785   6 O  pz               87     -0.253019   6 O  pz        
    12     -0.174229   2 C  s         

 Vector   66  Occ=0.000000D+00  E= 2.795778D-02
              MO Center= -2.2D+00, -7.8D-02,  1.2D+00, r^2= 3.2D+01
   Bfn.  Coefficient  Atom+Function         Bfn.  Coefficient  Atom+Function  
  ----- ------------  ---------------      ----- ------------  ---------------
   148      3.217943   9 C  py              480      2.714605  29 C  s         
   300      2.536656  18 H  s               106     -2.331219   7 N  s         
   174      2.331059  11 C  s               310      1.857326  19 C  s         
   226      1.790319  15 C  s               554     -1.719233  32 H  s         
   530     -1.654720  31 N  s               387      1.565255  24 C  s         

 Vector   67  Occ=0.000000D+00  E= 3.546194D-02
              MO Center= -5.4D-01, -1.3D+00, -1.9D+00, r^2= 2.9D+01
   Bfn.  Coefficient  Atom+Function         Bfn.  Coefficient  Atom+Function  
  ----- ------------  ---------------      ----- ------------  ---------------
   300      3.598771  18 H  s               234     -2.940938  15 C  py        
   377     -2.631664  23 H  s               334     -2.517914  20 H  s         
   149     -2.471422   9 C  pz              164     -2.242280  10 H  s         
   148      2.200476   9 C  py              530      2.180593  31 N  s         
    56     -2.154293   5 C  s               344     -2.083597  21 C  s         

 Vector   68  Occ=0.000000D+00  E= 3.614413D-02
              MO Center= -6.6D-01,  1.0D+00,  6.0D-01, r^2= 5.0D+01
   Bfn.  Coefficient  Atom+Function         Bfn.  Coefficient  Atom+Function  
  ----- ------------  ---------------      ----- ------------  ---------------
   148      2.907510   9 C  py               64      2.742762   5 C  py        
    12      2.063496   2 C  s               437      2.034674  26 N  s         
   396     -1.981645  24 C  pz              318      1.678205  19 C  py        
    37     -1.668435   3 H  s               461      1.662094  27 H  s         
   174      1.622696  11 C  s                 3     -1.481082   1 H  s         

 Vector   69  Occ=0.000000D+00  E= 4.232536D-02
              MO Center= -7.1D-01, -9.1D-01,  1.5D+00, r^2= 4.4D+01
   Bfn.  Coefficient  Atom+Function         Bfn.  Coefficient  Atom+Function  
  ----- ------------  ---------------      ----- ------------  ---------------
   530      2.277980  31 N  s               437     -2.253350  26 N  s         
   461     -2.091985  27 H  s               334      2.057126  20 H  s         
   480     -1.989538  29 C  s               396      1.947430  24 C  pz        
   554      1.896335  32 H  s               174      1.549991  11 C  s         
    56      1.434867   5 C  s               487      1.378844  29 C  px        

 Vector   70  Occ=0.000000D+00  E= 4.993097D-02
              MO Center= -1.6D-01,  1.0D+00,  7.5D-01, r^2= 4.3D+01
   Bfn.  Coefficient  Atom+Function         Bfn.  Coefficient  Atom+Function  
  ----- ------------  ---------------      ----- ------------  ---------------
    64      3.001026   5 C  py                3     -2.483151   1 H  s         
   344      2.322142  21 C  s               173     -2.271123  11 C  s         
   437     -2.175608  26 N  s               377      2.146140  23 H  s         
   149     -2.128560   9 C  pz              198      2.035845  12 H  s         
   276      1.946438  17 N  s               216      1.866260  14 H  s         

 Vector   71  Occ=0.000000D+00  E= 5.316822D-02
              MO Center=  3.7D-01, -4.0D-01, -7.6D-01, r^2= 4.1D+01
   Bfn.  Coefficient  Atom+Function         Bfn.  Coefficient  Atom+Function  
  ----- ------------  ---------------      ----- ------------  ---------------
   368      4.315128  22 H  s               377     -2.882177  23 H  s         
    37      2.840535   3 H  s               352      2.610447  21 C  py        
   164     -1.953897  10 H  s               207     -1.962029  13 H  s         
     3     -1.693811   1 H  s               148     -1.612908   9 C  py        
   174      1.521218  11 C  s                56      1.458542   5 C  s         

 Vector   72  Occ=0.000000D+00  E= 5.695659D-02
              MO Center= -9.4D-01,  3.6D+00,  8.5D-02, r^2= 4.5D+01
   Bfn.  Coefficient  Atom+Function         Bfn.  Coefficient  Atom+Function  
  ----- ------------  ---------------      ----- ------------  ---------------
    46      4.419888   4 H  s               130     -3.273683   8 H  s         
    56      3.041309   5 C  s               106     -2.889726   7 N  s         
   234      2.704564  15 C  py              387      2.477633  24 C  s         
    64     -2.283691   5 C  py              554      2.044764  32 H  s         
   174     -1.932334  11 C  s               276      1.881792  17 N  s         

 Vector   73  Occ=0.000000D+00  E= 6.158464D-02
              MO Center=  3.6D-01, -4.4D-01, -1.2D+00, r^2= 3.5D+01
   Bfn.  Coefficient  Atom+Function         Bfn.  Coefficient  Atom+Function  
  ----- ------------  ---------------      ----- ------------  ---------------
   334      4.931808  20 H  s               377     -4.798836  23 H  s         
   387     -2.654073  24 C  s               216      2.569896  14 H  s         
   164     -2.337869  10 H  s               317      2.147937  19 C  px        
   174     -1.848189  11 C  s               147      1.811916   9 C  px        
   318     -1.704413  19 C  py              319      1.685964  19 C  pz        

 Vector   74  Occ=0.000000D+00  E= 6.707192D-02
              MO Center= -9.1D-01,  8.4D-01, -1.0D+00, r^2= 4.7D+01
   Bfn.  Coefficient  Atom+Function         Bfn.  Coefficient  Atom+Function  
  ----- ------------  ---------------      ----- ------------  ---------------
   368      3.976706  22 H  s                 3      3.871275   1 H  s         
   334     -3.803105  20 H  s                37     -2.866566   3 H  s         
   234     -2.497182  15 C  py              198      2.113082  12 H  s         
   352      1.879567  21 C  py              344      1.780507  21 C  s         
   106      1.743950   7 N  s               461     -1.618797  27 H  s         

 Vector   75  Occ=0.000000D+00  E= 7.228787D-02
              MO Center=  7.1D-01,  6.5D-01,  1.1D+00, r^2= 4.3D+01
   Bfn.  Coefficient  Atom+Function         Bfn.  Coefficient  Atom+Function  
  ----- ------------  ---------------      ----- ------------  ---------------
    64      4.897685   5 C  py               13     -4.329379   2 C  s         
   344      4.319024  21 C  s               216      4.056749  14 H  s         
   198     -3.989048  12 H  s               480     -3.397864  29 C  s         
   470      3.061994  28 H  s               164      2.983879  10 H  s         
    46     -2.758423   4 H  s                56     -2.673081   5 C  s         

 Vector   76  Occ=0.000000D+00  E= 7.359836D-02
              MO Center= -7.4D-01, -9.3D-01,  8.7D-01, r^2= 3.8D+01
   Bfn.  Coefficient  Atom+Function         Bfn.  Coefficient  Atom+Function  
  ----- ------------  ---------------      ----- ------------  ---------------
   198      5.726760  12 H  s               563     -5.505994  33 H  s         
   387      5.341315  24 C  s               344     -5.048358  21 C  s         
    13      4.631094   2 C  s               368     -4.495876  22 H  s         
   207     -3.543836  13 H  s               470      3.458921  28 H  s         
    56     -3.339689   5 C  s               334      3.255090  20 H  s         

 Vector   77  Occ=0.000000D+00  E= 7.574274D-02
              MO Center= -9.3D-01,  2.2D+00,  5.6D-01, r^2= 4.4D+01
   Bfn.  Coefficient  Atom+Function         Bfn.  Coefficient  Atom+Function  
  ----- ------------  ---------------      ----- ------------  ---------------
   207     -4.286084  13 H  s                13      4.038017   2 C  s         
    46      3.847540   4 H  s               563      3.468286  33 H  s         
    37     -3.073081   3 H  s               164      3.071992  10 H  s         
   114     -2.976776   7 N  py              387     -2.929861  24 C  s         
   234     -2.897967  15 C  py              149      2.236445   9 C  pz        

 Vector   78  Occ=0.000000D+00  E= 8.637891D-02
              MO Center=  1.6D+00,  8.6D-01,  1.6D+00, r^2= 3.3D+01
   Bfn.  Coefficient  Atom+Function         Bfn.  Coefficient  Atom+Function  
  ----- ------------  ---------------      ----- ------------  ---------------
   216      6.997415  14 H  s               164     -5.425559  10 H  s         
   207     -5.330592  13 H  s               344     -3.636147  21 C  s         
   300      3.391826  18 H  s               480      3.254056  29 C  s         
   147      2.965542   9 C  px              182     -2.772192  11 C  py        
   234      2.115885  15 C  py              489     -1.731193  29 C  pz        

 Vector   79  Occ=0.000000D+00  E= 8.928021D-02
              MO Center=  7.3D-01, -8.4D-01, -2.0D-01, r^2= 4.1D+01
   Bfn.  Coefficient  Atom+Function         Bfn.  Coefficient  Atom+Function  
  ----- ------------  ---------------      ----- ------------  ---------------
   377      5.816207  23 H  s               207      5.369799  13 H  s         
   300     -5.345691  18 H  s               387      5.192112  24 C  s         
   148     -4.802348   9 C  py              368     -4.708880  22 H  s         
   480     -4.435281  29 C  s                56      4.366094   5 C  s         
   198     -4.167047  12 H  s               470      4.070104  28 H  s         

 Vector   80  Occ=0.000000D+00  E= 9.876703D-02
              MO Center= -1.9D-01, -3.9D-02, -8.3D-01, r^2= 4.2D+01
   Bfn.  Coefficient  Atom+Function         Bfn.  Coefficient  Atom+Function  
  ----- ------------  ---------------      ----- ------------  ---------------
   387     20.874305  24 C  s               344    -10.111841  21 C  s         
    56     -6.241481   5 C  s               300     -5.400585  18 H  s         
   437     -5.423200  26 N  s                13      5.252071   2 C  s         
   394     -5.201395  24 C  px              130      3.938636   8 H  s         
   148     -3.895275   9 C  py              317     -3.826761  19 C  px        

 Vector   81  Occ=0.000000D+00  E= 1.039357D-01
              MO Center=  2.7D-01, -5.0D-01, -3.3D-01, r^2= 4.2D+01
   Bfn.  Coefficient  Atom+Function         Bfn.  Coefficient  Atom+Function  
  ----- ------------  ---------------      ----- ------------  ---------------
   387     24.827390  24 C  s                13     -7.879445   2 C  s         
   318      7.305231  19 C  py              234      6.885611  15 C  py        
   394     -6.019038  24 C  px              310     -5.931290  19 C  s         
   563      5.855637  33 H  s               437     -5.703366  26 N  s         
   300     -5.549949  18 H  s                56      5.267886   5 C  s         

 Vector   82  Occ=0.000000D+00  E= 1.091775D-01
              MO Center= -7.3D-01, -3.2D-01, -7.5D-01, r^2= 3.3D+01
   Bfn.  Coefficient  Atom+Function         Bfn.  Coefficient  Atom+Function  
  ----- ------------  ---------------      ----- ------------  ---------------
   480     15.424436  29 C  s               344     -9.917731  21 C  s         
    56     -8.474808   5 C  s                13      7.239115   2 C  s         
   317      7.214207  19 C  px              319     -5.635813  19 C  pz        
   234      4.719546  15 C  py              310      4.230024  19 C  s         
   488      4.228213  29 C  py              351      4.180583  21 C  px        

 Vector   83  Occ=0.000000D+00  E= 1.158388D-01
              MO Center= -1.5D+00, -5.7D-01, -4.4D-01, r^2= 3.3D+01
   Bfn.  Coefficient  Atom+Function         Bfn.  Coefficient  Atom+Function  
  ----- ------------  ---------------      ----- ------------  ---------------
   480     14.852785  29 C  s               174     -8.841877  11 C  s         
   234      8.538796  15 C  py              387     -7.056681  24 C  s         
   317      6.124485  19 C  px              487      6.087477  29 C  px        
    13     -5.892004   2 C  s               334      5.550274  20 H  s         
   318      4.881741  19 C  py              300     -4.756383  18 H  s         

 Vector   84  Occ=0.000000D+00  E= 1.195180D-01
              MO Center= -7.4D-02, -7.4D-01,  1.1D+00, r^2= 2.7D+01
   Bfn.  Coefficient  Atom+Function         Bfn.  Coefficient  Atom+Function  
  ----- ------------  ---------------      ----- ------------  ---------------
   344     10.144193  21 C  s               300     -7.466365  18 H  s         
   276     -7.332846  17 N  s                56      6.981237   5 C  s         
   318      5.905549  19 C  py              148     -5.830993   9 C  py        
   207      5.619103  13 H  s               489     -4.276885  29 C  pz        
   530      3.782373  31 N  s               387     -3.203014  24 C  s         

 Vector   85  Occ=0.000000D+00  E= 1.214749D-01
              MO Center=  2.8D-01,  1.4D+00, -1.3D+00, r^2= 3.1D+01
   Bfn.  Coefficient  Atom+Function         Bfn.  Coefficient  Atom+Function  
  ----- ------------  ---------------      ----- ------------  ---------------
   300     14.107862  18 H  s               148     11.253606   9 C  py        
    13     -8.956987   2 C  s               106     -8.036893   7 N  s         
    56      6.981839   5 C  s               318      6.811084  19 C  py        
   207     -6.263823  13 H  s               164     -5.878675  10 H  s         
   234      5.184767  15 C  py               64      4.911179   5 C  py        

 Vector   86  Occ=0.000000D+00  E= 1.307596D-01
              MO Center= -2.5D-01,  2.6D-01,  1.5D-01, r^2= 3.6D+01
   Bfn.  Coefficient  Atom+Function         Bfn.  Coefficient  Atom+Function  
  ----- ------------  ---------------      ----- ------------  ---------------
   344     13.986527  21 C  s                56      8.429672   5 C  s         
    13     -7.834714   2 C  s               530     -6.650868  31 N  s         
   437     -5.364886  26 N  s               352      5.074410  21 C  py        
   487     -5.022983  29 C  px              353      4.817436  21 C  pz        
   368      4.748215  22 H  s               317     -4.089339  19 C  px        

 Vector   87  Occ=0.000000D+00  E= 1.348141D-01
              MO Center=  5.5D-01,  4.5D-01, -5.3D-01, r^2= 2.8D+01
   Bfn.  Coefficient  Atom+Function         Bfn.  Coefficient  Atom+Function  
  ----- ------------  ---------------      ----- ------------  ---------------
    64      7.506345   5 C  py               56     -6.795277   5 C  s         
   300     -5.378005  18 H  s                13     -4.245207   2 C  s         
   148      4.246852   9 C  py              106      4.214449   7 N  s         
   174      3.929054  11 C  s               147     -3.814041   9 C  px        
   344      3.615794  21 C  s               234     -3.575825  15 C  py        

 Vector   88  Occ=0.000000D+00  E= 1.399718D-01
              MO Center=  3.1D-01, -7.3D-01, -1.4D-01, r^2= 3.0D+01
   Bfn.  Coefficient  Atom+Function         Bfn.  Coefficient  Atom+Function  
  ----- ------------  ---------------      ----- ------------  ---------------
   344     12.420598  21 C  s               106     -9.969496   7 N  s         
    13     -9.852653   2 C  s               234      8.950729  15 C  py        
   318      8.688507  19 C  py              148      7.481276   9 C  py        
   387     -7.409198  24 C  s                64      7.142869   5 C  py        
   437      6.436459  26 N  s               317     -5.217005  19 C  px        

 Vector   89  Occ=0.000000D+00  E= 1.453789D-01
              MO Center=  5.5D-01, -9.6D-01, -4.7D-02, r^2= 3.0D+01
   Bfn.  Coefficient  Atom+Function         Bfn.  Coefficient  Atom+Function  
  ----- ------------  ---------------      ----- ------------  ---------------
   344     11.145642  21 C  s                56     10.989528   5 C  s         
   437     -9.580022  26 N  s               300     -8.476208  18 H  s         
    13     -6.694621   2 C  s               396      6.621017  24 C  pz        
   148     -5.793980   9 C  py              480     -5.453040  29 C  s         
   233      5.305205  15 C  px              387      4.774464  24 C  s         

 Vector   90  Occ=0.000000D+00  E= 1.465999D-01
              MO Center= -8.2D-01,  4.1D-01,  7.3D-01, r^2= 3.2D+01
   Bfn.  Coefficient  Atom+Function         Bfn.  Coefficient  Atom+Function  
  ----- ------------  ---------------      ----- ------------  ---------------
   480     15.336854  29 C  s               387     11.549659  24 C  s         
   317      7.300759  19 C  px              437     -6.865758  26 N  s         
   234      6.713319  15 C  py              530     -6.406464  31 N  s         
   318      6.187872  19 C  py              106     -5.509011   7 N  s         
   148      5.344826   9 C  py              235      5.216409  15 C  pz        

 Vector   91  Occ=0.000000D+00  E= 1.479909D-01
              MO Center=  6.0D-01,  1.5D-01, -5.8D-01, r^2= 3.7D+01
   Bfn.  Coefficient  Atom+Function         Bfn.  Coefficient  Atom+Function  
  ----- ------------  ---------------      ----- ------------  ---------------
   344     12.091283  21 C  s               387     -5.129410  24 C  s         
   353      4.900988  21 C  pz              530      4.856503  31 N  s         
    13     -4.580831   2 C  s               480     -4.538706  29 C  s         
    64      4.461294   5 C  py              106      4.393111   7 N  s         
   276     -4.413634  17 N  s               437     -4.248282  26 N  s         

 Vector   92  Occ=0.000000D+00  E= 1.519170D-01
              MO Center= -1.6D-01, -5.8D-01, -5.4D-01, r^2= 2.3D+01
   Bfn.  Coefficient  Atom+Function         Bfn.  Coefficient  Atom+Function  
  ----- ------------  ---------------      ----- ------------  ---------------
   174      6.367859  11 C  s               530      5.528904  31 N  s         
   149     -4.641733   9 C  pz              488     -4.050560  29 C  py        
   284     -3.821119  17 N  py              353     -3.549849  21 C  pz        
   164     -3.423262  10 H  s                56     -2.799291   5 C  s         
   489     -2.805645  29 C  pz              368     -2.642546  22 H  s         

 Vector   93  Occ=0.000000D+00  E= 1.533860D-01
              MO Center= -5.8D-01,  1.3D+00, -1.7D-01, r^2= 3.6D+01
   Bfn.  Coefficient  Atom+Function         Bfn.  Coefficient  Atom+Function  
  ----- ------------  ---------------      ----- ------------  ---------------
[...]
  ----- ------------  ---------------      ----- ------------  ---------------
   387     15.259873  24 C  s               234    -12.246797  15 C  py        
   437    -11.178055  26 N  s               300     -8.241995  18 H  s         
   106      7.479608   7 N  s               164      7.434421  10 H  s         
   276     -6.987194  17 N  s               147     -5.711201   9 C  px        
   480     -4.456997  29 C  s               174      4.061961  11 C  s         

 Vector  162  Occ=0.000000D+00  E= 4.311765D-01
              MO Center= -1.1D-01,  3.2D-01, -1.6D-01, r^2= 2.6D+01
   Bfn.  Coefficient  Atom+Function         Bfn.  Coefficient  Atom+Function  
  ----- ------------  ---------------      ----- ------------  ---------------
   437     10.981901  26 N  s               344     -9.161549  21 C  s         
   276      9.077714  17 N  s               148     -8.920043   9 C  py        
   387     -7.926856  24 C  s               233      7.747663  15 C  px        
   234      6.951759  15 C  py              351      6.826942  21 C  px        
   530      6.609069  31 N  s               480     -6.266768  29 C  s         

 Vector  163  Occ=0.000000D+00  E= 4.366971D-01
              MO Center=  4.0D-01, -1.3D+00,  2.2D-01, r^2= 2.3D+01
   Bfn.  Coefficient  Atom+Function         Bfn.  Coefficient  Atom+Function  
  ----- ------------  ---------------      ----- ------------  ---------------
   387     23.618412  24 C  s               480     19.719323  29 C  s         
   437    -15.183971  26 N  s                56    -13.754870   5 C  s         
   344    -12.586287  21 C  s               148     12.249113   9 C  py        
   276    -10.502016  17 N  s               530     -9.622700  31 N  s         
   284      7.103057  17 N  py              234     -6.721328  15 C  py        

 Vector  164  Occ=0.000000D+00  E= 4.419034D-01
              MO Center= -3.6D-01,  2.6D+00, -3.6D-01, r^2= 2.3D+01
   Bfn.  Coefficient  Atom+Function         Bfn.  Coefficient  Atom+Function  
  ----- ------------  ---------------      ----- ------------  ---------------
   344     11.188577  21 C  s               114     10.054708   7 N  py        
   148      9.557478   9 C  py               56     -9.458453   5 C  s         
    13     -8.912010   2 C  s               480      8.034309  29 C  s         
   284      7.919037  17 N  py              174      7.668293  11 C  s         
   319      7.596201  19 C  pz              276     -7.213121  17 N  s         

 Vector  165  Occ=0.000000D+00  E= 4.454599D-01
              MO Center=  1.5D-01,  1.1D+00, -1.2D-01, r^2= 2.4D+01
   Bfn.  Coefficient  Atom+Function         Bfn.  Coefficient  Atom+Function  
  ----- ------------  ---------------      ----- ------------  ---------------
   387     20.970402  24 C  s               480    -16.565131  29 C  s         
   310    -11.234784  19 C  s               319      9.745930  19 C  pz        
   317     -9.600012  19 C  px              300      9.197574  18 H  s         
   530      8.709839  31 N  s               174      8.084159  11 C  s         
   437     -7.684638  26 N  s               353     -7.247674  21 C  pz        

 Vector  166  Occ=0.000000D+00  E= 4.465980D-01
              MO Center= -1.1D-01,  2.1D+00, -1.9D-01, r^2= 2.7D+01
   Bfn.  Coefficient  Atom+Function         Bfn.  Coefficient  Atom+Function  
  ----- ------------  ---------------      ----- ------------  ---------------
   318     12.145266  19 C  py              387     11.739636  24 C  s         
   319     10.401021  19 C  pz              344     10.156963  21 C  s         
   317     -8.731934  19 C  px               13     -7.655306   2 C  s         
   174      7.636827  11 C  s               351     -6.590165  21 C  px        
    64      6.485413   5 C  py              310     -6.421099  19 C  s         

 Vector  167  Occ=0.000000D+00  E= 4.494645D-01
              MO Center=  7.0D-02,  6.0D-01,  6.5D-01, r^2= 1.9D+01
   Bfn.  Coefficient  Atom+Function         Bfn.  Coefficient  Atom+Function  
  ----- ------------  ---------------      ----- ------------  ---------------
   387     24.092953  24 C  s               148     14.721746   9 C  py        
   197     12.869667  12 H  s               173    -12.674156  11 C  s         
   284     12.247327  17 N  py              276     10.882536  17 N  s         
   174    -10.625416  11 C  s               437    -10.299772  26 N  s         
    13     -9.765149   2 C  s               318      8.713400  19 C  py        

 Vector  168  Occ=0.000000D+00  E= 4.532458D-01
              MO Center= -3.9D-01,  6.5D-01,  1.3D-01, r^2= 2.2D+01
   Bfn.  Coefficient  Atom+Function         Bfn.  Coefficient  Atom+Function  
  ----- ------------  ---------------      ----- ------------  ---------------
   148     10.670414   9 C  py              276     10.319423  17 N  s         
   387      7.903863  24 C  s               147      7.797110   9 C  px        
   530      6.908105  31 N  s                13     -6.397811   2 C  s         
   343     -6.175151  21 C  s               113     -6.132490   7 N  px        
   318      5.977136  19 C  py              106     -5.516142   7 N  s         

 Vector  169  Occ=0.000000D+00  E= 4.587385D-01
              MO Center= -3.9D-02,  1.1D+00,  6.1D-01, r^2= 2.1D+01
   Bfn.  Coefficient  Atom+Function         Bfn.  Coefficient  Atom+Function  
  ----- ------------  ---------------      ----- ------------  ---------------
   276     12.030083  17 N  s               106    -10.174497   7 N  s         
   480     -9.797984  29 C  s               234      9.051549  15 C  py        
   300      8.797996  18 H  s               173      8.422318  11 C  s         
   174      8.452972  11 C  s               284     -7.596842  17 N  py        
   206     -7.195531  13 H  s                12     -6.867293   2 C  s         

 Vector  170  Occ=0.000000D+00  E= 4.645029D-01
              MO Center= -5.8D-02, -2.8D-01,  1.5D-01, r^2= 2.2D+01
   Bfn.  Coefficient  Atom+Function         Bfn.  Coefficient  Atom+Function  
  ----- ------------  ---------------      ----- ------------  ---------------
   148     20.328935   9 C  py              344     13.630718  21 C  s         
   106    -11.395011   7 N  s               284      9.876369  17 N  py        
   480     -9.013932  29 C  s                13     -8.624847   2 C  s         
    12     -6.983325   2 C  s               437      6.904076  26 N  s         
   351     -6.500970  21 C  px              300      5.382022  18 H  s         

 Vector  171  Occ=0.000000D+00  E= 4.699132D-01
              MO Center=  5.3D-01,  1.5D-01,  2.6D-01, r^2= 2.1D+01
   Bfn.  Coefficient  Atom+Function         Bfn.  Coefficient  Atom+Function  
  ----- ------------  ---------------      ----- ------------  ---------------
   148     23.561042   9 C  py               56    -19.772590   5 C  s         
   344    -11.877124  21 C  s               174     10.987598  11 C  s         
   276      9.883810  17 N  s               480      9.299530  29 C  s         
   114      8.217101   7 N  py              233     -7.759460  15 C  px        
   106     -7.482043   7 N  s               387      7.225030  24 C  s         

 Vector  172  Occ=0.000000D+00  E= 4.704727D-01
              MO Center=  1.7D-01, -3.0D-01,  3.6D-01, r^2= 2.2D+01
   Bfn.  Coefficient  Atom+Function         Bfn.  Coefficient  Atom+Function  
  ----- ------------  ---------------      ----- ------------  ---------------
   480     30.562054  29 C  s               344    -19.957059  21 C  s         
    13     15.520248   2 C  s               174    -14.391455  11 C  s         
    64     -9.720829   5 C  py              317      9.654161  19 C  px        
   173     -8.766300  11 C  s                56     -7.348585   5 C  s         
   215      7.336926  14 H  s               376      7.278508  23 H  s         

 Vector  173  Occ=0.000000D+00  E= 4.796894D-01
              MO Center= -5.4D-01, -1.9D-01,  8.2D-01, r^2= 1.9D+01
   Bfn.  Coefficient  Atom+Function         Bfn.  Coefficient  Atom+Function  
  ----- ------------  ---------------      ----- ------------  ---------------
    56     14.893917   5 C  s               234     10.920781  15 C  py        
   148     -8.911745   9 C  py              174     -8.919564  11 C  s         
   197      7.015409  12 H  s               344      6.636239  21 C  s         
   173     -6.558208  11 C  s               226     -6.229209  15 C  s         
   233      6.058173  15 C  px              215      5.827088  14 H  s         

 Vector  174  Occ=0.000000D+00  E= 4.808099D-01
              MO Center=  2.0D-01,  1.0D+00,  5.5D-01, r^2= 1.9D+01
   Bfn.  Coefficient  Atom+Function         Bfn.  Coefficient  Atom+Function  
  ----- ------------  ---------------      ----- ------------  ---------------
   174     16.539887  11 C  s               344    -13.757919  21 C  s         
    56    -13.225140   5 C  s               234    -12.382853  15 C  py        
    13     10.456656   2 C  s               387    -10.317410  24 C  s         
   318     -9.616412  19 C  py              149     -7.705272   9 C  pz        
   226      7.660886  15 C  s                12      7.077394   2 C  s         

 Vector  175  Occ=0.000000D+00  E= 4.869816D-01
              MO Center=  7.3D-02,  9.0D-01, -2.1D-02, r^2= 2.4D+01
   Bfn.  Coefficient  Atom+Function         Bfn.  Coefficient  Atom+Function  
  ----- ------------  ---------------      ----- ------------  ---------------
   387     12.898105  24 C  s               344    -10.947510  21 C  s         
   233     -5.918191  15 C  px              412     -5.921402  25 O  s         
    13      5.394443   2 C  s                56     -5.258511   5 C  s         
    81     -5.051515   6 O  s               234     -5.050462  15 C  py        
   148      4.906134   9 C  py              226      4.755422  15 C  s         

 Vector  176  Occ=0.000000D+00  E= 4.903763D-01
              MO Center=  1.5D-01,  4.1D-03,  5.0D-01, r^2= 2.2D+01
   Bfn.  Coefficient  Atom+Function         Bfn.  Coefficient  Atom+Function  
  ----- ------------  ---------------      ----- ------------  ---------------
   234     10.788079  15 C  py              284    -10.107047  17 N  py        
    56      8.074338   5 C  s               276      7.916248  17 N  s         
   233      6.652468  15 C  px              148     -6.593762   9 C  py        
    13     -6.281894   2 C  s               163     -5.806128  10 H  s         
    12     -5.611499   2 C  s                 2      5.502964   1 H  s         

 Vector  177  Occ=0.000000D+00  E= 4.956971D-01
              MO Center=  6.9D-02,  8.7D-01,  4.4D-02, r^2= 2.2D+01
   Bfn.  Coefficient  Atom+Function         Bfn.  Coefficient  Atom+Function  
  ----- ------------  ---------------      ----- ------------  ---------------
    13     22.741080   2 C  s               344    -15.945588  21 C  s         
   387     15.407965  24 C  s                64    -11.312417   5 C  py        
    56    -10.601467   5 C  s               234    -10.182215  15 C  py        
   318     -9.645795  19 C  py              148     -7.501765   9 C  py        
   233     -7.320945  15 C  px              437     -6.719855  26 N  s         

 Vector  178  Occ=0.000000D+00  E= 5.011581D-01
              MO Center= -3.3D-01,  1.4D-01, -3.0D-02, r^2= 2.2D+01
   Bfn.  Coefficient  Atom+Function         Bfn.  Coefficient  Atom+Function  
  ----- ------------  ---------------      ----- ------------  ---------------
    56     23.623054   5 C  s               344     18.151733  21 C  s         
   387    -16.677608  24 C  s               480    -12.402739  29 C  s         
   174    -11.872113  11 C  s               114     -8.930983   7 N  py        
   530      7.810966  31 N  s               148     -7.678932   9 C  py        
   226     -6.383034  15 C  s               149      6.248145   9 C  pz        


 center of mass
 --------------
 x =   0.01360597 y =  -0.05644322 z =  -0.01985858

 moments of inertia (a.u.)
 ------------------
        8217.996596491543           0.000000000001           0.000000000000
           0.000000000001        2021.067195278740           0.000000000001
           0.000000000000           0.000000000001        9320.501681516153

  Mulliken analysis of the total density
  --------------------------------------

    Atom       Charge   Shell Charges
 -----------   ------   -------------------------------------------------------
    1 H    1     0.84   0.76  0.10  0.00  0.03 -0.06
    2 C    6     6.38   2.01  0.66  0.26  0.20  2.06  1.04 -0.01  0.06  0.10
    3 H    1     0.86   0.76  0.12  0.00  0.03 -0.06
    4 H    1     0.98   0.76  0.23  0.01  0.03 -0.05
    5 C    6     5.08   2.01  0.68  0.09 -0.14  1.90  0.31 -0.01  0.24  0.02
    6 O    8     8.71   2.01  0.82  0.99  0.15  2.79  1.82  0.14  0.01 -0.02
    7 N    7     7.62   2.01  0.72  0.88 -0.04  2.46  1.45  0.04  0.05  0.05
    8 H    1     1.01   0.76  0.23 -0.00  0.06 -0.03
    9 C    6     6.24   2.01  0.66  0.13 -0.00  2.00  1.30 -0.13  0.14  0.14
   10 H    1     1.11   0.78  0.32 -0.01  0.03 -0.00
   11 C    6     5.60   2.01  0.67  0.18  0.18  2.04  0.44  0.01  0.07 -0.00
   12 H    1     0.89   0.77  0.16  0.00  0.03 -0.08
   13 H    1     0.89   0.77  0.14  0.02  0.03 -0.07
   14 H    1     1.02   0.77  0.29 -0.00  0.03 -0.06
   15 C    6     4.83   2.01  0.68  0.08  0.06  1.88  0.18  0.02  0.23 -0.31
   16 O    8     8.91   2.01  0.82  1.03  0.20  2.80  1.89  0.17  0.01  0.00
   17 N    7     7.52   2.01  0.72  0.86 -0.11  2.45  1.45  0.07  0.05  0.03
   18 H    1     0.94   0.74  0.24 -0.02  0.06 -0.08
   19 C    6     6.49   2.01  0.66  0.11  0.01  1.99  1.35  0.08  0.14  0.14
   20 H    1     0.96   0.78  0.16 -0.01  0.03  0.00
   21 C    6     6.35   2.01  0.66  0.68  0.05  2.06  0.73 -0.03  0.09  0.10
   22 H    1     0.95   0.77  0.21 -0.00  0.03 -0.06
   23 H    1     0.85   0.77  0.11  0.00  0.03 -0.06
   24 C    6     4.57   2.01  0.68  0.03 -0.02  1.91 -0.15 -0.01  0.24 -0.11
   25 O    8     8.83   2.01  0.82  1.02  0.19  2.80  1.84  0.14  0.02 -0.00
   26 N    7     7.20   2.01  0.72  0.76 -0.14  2.47  1.26  0.11  0.04 -0.02
   27 H    1     1.00   0.76  0.22 -0.01  0.05 -0.02
   28 H    1     0.89   0.73  0.17 -0.01  0.06 -0.06
   29 C    6     4.47   2.01  0.68  0.01  0.08  1.88 -0.13 -0.07  0.23 -0.22
   30 O    8     8.83   2.01  0.82  1.03  0.16  2.80  1.86  0.15  0.01 -0.00
   31 N    7     7.26   2.01  0.72  0.85 -0.17  2.46  1.26  0.09  0.04 -0.01
   32 H    1     1.02   0.75  0.24  0.00  0.05 -0.03
   33 H    1     0.90   0.73  0.20 -0.02  0.06 -0.06

       Multipole analysis of the density wrt the origin
       ------------------------------------------------

     L   x y z        total         open         nuclear
     -   - - -        -----         ----         -------
     0   0 0 0     -0.000000      0.000000    130.000000

     1   1 0 0     -1.548567      0.000000     -0.000000
     1   0 1 0     -0.469761      0.000000      0.000000
     1   0 0 1      0.218584      0.000000      0.000000

     2   2 0 0    -86.429993      0.000000    835.932845
     2   1 1 0    -11.632152      0.000000    -27.267735
     2   1 0 1     -2.054588      0.000000      0.957030
     2   0 2 0    -78.521411      0.000000   4209.577051
     2   0 1 1     -0.218557      0.000000      5.950228
     2   0 0 2    -69.798112      0.000000    286.486085


 Task  times  cpu:     3377.3s     wall:     3470.3s


                                NWChem Input Module
                                -------------------


 Summary of allocated global arrays
-----------------------------------
  No active global arrays


MA_summarize_allocated_blocks: starting scan ...
MA_summarize_allocated_blocks: scan completed: 0 heap blocks, 0 stack blocks
MA usage statistics:

	allocation statistics:
					      heap	     stack
					      ----	     -----
	current number of blocks	         0	         0
	maximum number of blocks	        16	        14
	current total bytes		         0	         0
	maximum total bytes		    119912	  26741448
	maximum total K-bytes		       120	     26742
	maximum total M-bytes		         1	        27


                                     CITATION
                                     --------
                Please cite the following reference when publishing
                           results obtained with NWChem:

          E. Apra, E. J. Bylaska, W. A. de Jong, N. Govind, K. Kowalski,
       T. P. Straatsma, M. Valiev, H. J. J. van Dam, Y. Alexeev, J. Anchell,
       V. Anisimov, F. W. Aquino, R. Atta-Fynn, J. Autschbach, N. P. Bauman,
     J. C. Becca, D. E. Bernholdt, K. Bhaskaran-Nair, S. Bogatko, P. Borowski,
         J. Boschen, J. Brabec, A. Bruner, E. Cauet, Y. Chen, G. N. Chuev,
      C. J. Cramer, J. Daily, M. J. O. Deegan, T. H. Dunning Jr., M. Dupuis,
   K. G. Dyall, G. I. Fann, S. A. Fischer, A. Fonari, H. Fruchtl, L. Gagliardi,
      J. Garza, N. Gawande, S. Ghosh, K. Glaesemann, A. W. Gotz, J. Hammond,
       V. Helms, E. D. Hermes, K. Hirao, S. Hirata, M. Jacquelin, L. Jensen,
   B. G. Johnson, H. Jonsson, R. A. Kendall, M. Klemm, R. Kobayashi, V. Konkov,
      S. Krishnamoorthy, M. Krishnan, Z. Lin, R. D. Lins, R. J. Littlefield,
      A. J. Logsdail, K. Lopata, W. Ma, A. V. Marenich, J. Martin del Campo,
   D. Mejia-Rodriguez, J. E. Moore, J. M. Mullin, T. Nakajima, D. R. Nascimento,
    J. A. Nichols, P. J. Nichols, J. Nieplocha, A. Otero-de-la-Roza, B. Palmer,
    A. Panyala, T. Pirojsirikul, B. Peng, R. Peverati, J. Pittner, L. Pollack,
   R. M. Richard, P. Sadayappan, G. C. Schatz, W. A. Shelton, D. W. Silverstein,
   D. M. A. Smith, T. A. Soares, D. Song, M. Swart, H. L. Taylor, G. S. Thomas,
            V. Tipparaju, D. G. Truhlar, K. Tsemekhman, T. Van Voorhis,
      A. Vazquez-Mayagoitia, P. Verma, O. Villa, A. Vishnu, K. D. Vogiatzis,
        D. Wang, J. H. Weare, M. J. Williamson, T. L. Windus, K. Wolinski,
        A. T. Wong, Q. Wu, C. Yang, Q. Yu, M. Zacharias, Z. Zhang, Y. Zhao,
                                and R. J. Harrison
                        "NWChem: Past, present, and future
                         J. Chem. Phys. 152, 184102 (2020)
                               doi:10.1063/5.0004997

                                      AUTHORS
                                      -------
  E. Apra, E. J. Bylaska, N. Govind, K. Kowalski, M. Valiev, D. Mejia-Rodriguez,
       A. Kunitsa, N. P. Bauman, A. Panyala, W. A. de Jong, T. P. Straatsma,
   H. J. J. van Dam, D. Wang, T. L. Windus, J. Hammond, J. Autschbach, A. Woods,
    K. Bhaskaran-Nair, J. Brabec, K. Lopata, S. A. Fischer, S. Krishnamoorthy,
     M. Jacquelin, W. Ma, M. Klemm, O. Villa, Y. Chen, V. Anisimov, F. Aquino,
     S. Hirata, M. T. Hackler, E. Hermes, L. Jensen, J. E. Moore, J. C. Becca,
      V. Konjkov, T. Risthaus, M. Malagoli, A. Marenich, A. Otero-de-la-Roza,
        J. Mullin, P. Nichols, R. Peverati, J. Pittner, Y. Zhao, P.-D. Fan,
        A. Fonari, M. J. Williamson, R. J. Harrison, J. R. Rehr, M. Dupuis,
     D. Silverstein, D. M. A. Smith, J. Nieplocha, V. Tipparaju, M. Krishnan,
     B. E. Van Kuiken, A. Vazquez-Mayagoitia, M. Swart, Q. Wu, T. Van Voorhis,
     A. A. Auer, M. Nooijen, L. D. Crosby, E. Brown, G. Cisneros, G. I. Fann,
   H. Fruchtl, J. Garza, K. Hirao, R. A. Kendall, J. A. Nichols, K. Tsemekhman,
    K. Wolinski, J. Anchell, D. E. Bernholdt, P. Borowski, T. Clark, D. Clerc,
   H. Dachsel, M. J. O. Deegan, K. Dyall, D. Elwood, E. Glendening, M. Gutowski,
   A. C. Hess, J. Jaffe, B. G. Johnson, J. Ju, R. Kobayashi, R. Kutteh, Z. Lin,
   R. Littlefield, X. Long, B. Meng, T. Nakajima, S. Niu, L. Pollack, M. Rosing,
   K. Glaesemann, G. Sandrone, M. Stave, H. Taylor, G. Thomas, J. H. van Lenthe,
                               A. T. Wong, Z. Zhang.

 Total times  cpu:     3377.3s     wall:     3470.6s
