export TMOUT=5400
export TMPDIR=/tmp
export PTMPDIR=/tmp/ptmp
 argument  1 = ALA_TYR_0.nw
                                         
                                         


             Northwest Computational Chemistry Package (NWChem) 7.2.0
             --------------------------------------------------------


                    Environmental Molecular Sciences Laboratory
                       Pacific Northwest National Laboratory
                                Richland, WA 99352

                              Copyright (c) 1994-2022
                       Pacific Northwest National Laboratory
                            Battelle Memorial Institute

             NWChem is an open-source computational chemistry package
                        distributed under the terms of the
                      Educational Community License (ECL) 2.0
             A copy of the license is included with this distribution
                              in the LICENSE.TXT file

                                  ACKNOWLEDGMENT
                                  --------------

            This software and its documentation were developed at the
            EMSL at Pacific Northwest National Laboratory, a multiprogram
            national laboratory, operated for the U.S. Department of Energy
            by Battelle under Contract Number DE-AC05-76RL01830. Support
            for this work was provided by the Department of Energy Office
            of Biological and Environmental Research, Office of Basic
            Energy Sciences, and the Office of Advanced Scientific Computing.


           Job information
           ---------------

    hostname        = nova18-wide-40
    program         = /opt/rit/el9/20230413/app/linux-rhel9-x86_64_v3/gcc-11.2.1/nwchem-7.2.0-oxtctbuhfuzyfaoziquq6bki22grib3g/bin/nwchem
    date            = Mon Jun 30 21:18:22 2025

    compiled        = Wed_May_17_23:46:39_2023
    source          = /tmp/root/spack-stage/spack-stage-nwchem-7.2.0-oxtctbuhfuzyfaoziquq6bki22grib3g/spack-src
    nwchem branch   = 7.2.0
    nwchem revision = d0d141fd
    ga revision     = 5.8.0
    use scalapack   = T
    input           = ALA_TYR_0.nw
    prefix          = ALA_TYR_0.
    data base       = ./ALA_TYR_0.db
    status          = startup
    nproc           =        1
    time left       =     -1s



           Memory information
           ------------------

    heap     =   26214394 doubles =    200.0 Mbytes
    stack    =   26214399 doubles =    200.0 Mbytes
    global   =   52428800 doubles =    400.0 Mbytes (distinct from heap & stack)
    total    =  104857593 doubles =    800.0 Mbytes
    verify   = yes
    hardfail = no 


           Directory information
           ---------------------

  0 permanent = .
  0 scratch   = .




                                NWChem Input Module
                                -------------------



 Scaling coordinates for geometry "geometry" by  1.889725989
 (inverse scale =  0.529177249)

 C1  symmetry detected

          ------
          auto-z
          ------
  no constraints, skipping    0.0000000000000000     
  no constraints, skipping    0.0000000000000000     


                             Geometry "geometry" -> ""
                             -------------------------

 Output coordinates in angstroms (scale by  1.889725989 to convert to a.u.)

  No.       Tag          Charge          X              Y              Z
 ---- ---------------- ---------- -------------- -------------- --------------
    1 H                    1.0000    -3.74918438    -0.99614434    -1.49201325
    2 C                    6.0000    -2.70176560    -1.13624126    -1.23082992
    3 H                    1.0000    -2.20346868    -1.70568737    -2.01631341
    4 H                    1.0000    -2.62010914    -1.67653406    -0.29086134
    5 C                    6.0000    -2.03373052     0.21136766    -1.10616510
    6 O                    8.0000    -1.17916068     0.55408676    -1.91078614
    7 N                    7.0000    -2.40015134     0.97128051    -0.07347093
    8 H                    1.0000    -3.11381850     0.62053973     0.54291864
    9 C                    6.0000    -1.90783985     2.33803308     0.16174135
   10 H                    1.0000    -2.11176969     2.93054977    -0.73150586
   11 C                    6.0000    -2.71551183     2.93215834     1.32310915
   12 H                    1.0000    -2.52731011     2.37131961     2.23914083
   13 H                    1.0000    -2.41663147     3.97088541     1.47896356
   14 H                    1.0000    -3.78025488     2.90767363     1.09015268
   15 C                    6.0000    -0.38552316     2.45144783     0.42202578
   16 O                    8.0000     0.15341141     3.55350572     0.44254290
   17 N                    7.0000     0.30911231     1.32603326     0.60913431
   18 H                    1.0000    -0.19573885     0.45599688     0.54890142
   19 C                    6.0000     1.77297640     1.22908495     0.66526764
   20 H                    1.0000     2.16293884     2.07057530     1.24038179
   21 C                    6.0000     2.13962875    -0.07135953     1.40345475
   22 H                    1.0000     3.20521307    -0.27245154     1.28174174
   23 H                    1.0000     1.96919789     0.09016422     2.46907963
   24 C                    6.0000     1.34648449    -1.29404333     0.96607216
   25 C                    6.0000     0.31558253    -1.79455007     1.78763539
   26 H                    1.0000     0.11724348    -1.33184814     2.74495589
   27 C                    6.0000    -0.45093926    -2.90064151     1.37080679
   28 H                    1.0000    -1.23350709    -3.28630661     2.00442973
   29 C                    6.0000    -0.19121731    -3.50328748     0.11997853
   30 O                    8.0000    -0.93097347    -4.56350749    -0.29474954
   31 H                    1.0000    -1.42389591    -4.96545610     0.41999921
   32 C                    6.0000     0.83687424    -2.99988183    -0.70242010
   33 H                    1.0000     1.02740229    -3.46780490    -1.65756619
   34 C                    6.0000     1.60878371    -1.90284483    -0.27648161
   35 H                    1.0000     2.40371912    -1.52660474    -0.90900361
   36 C                    6.0000     2.45227266     1.29684094    -0.72051471
   37 O                    8.0000     3.67314596     1.34081774    -0.80750575
   38 N                    7.0000     1.71324423     1.28195711    -1.82438266
   39 H                    1.0000     0.70584997     1.20320686    -1.76823817
   40 H                    1.0000     2.18085031     1.33731064    -2.71222079

      Atomic Mass 
      ----------- 

      H                  1.007825
      C                 12.000000
      O                 15.994910
      N                 14.003070


 Effective nuclear repulsion energy (a.u.)    1800.4045950227

            Nuclear Dipole moment (a.u.) 
            ----------------------------
        X                 Y               Z
 ---------------- ---------------- ----------------
     0.0000000000     0.0000000000     0.0000000000



                                Z-matrix (autoz)
                                -------- 

 Units are Angstrom for bonds and degrees for angles

      Type          Name      I     J     K     L     M      Value
      ----------- --------  ----- ----- ----- ----- ----- ----------
    1 Stretch                  1     2                       1.08854
    2 Stretch                  2     3                       1.09067
    3 Stretch                  2     4                       1.08726
    4 Stretch                  2     5                       1.50926
    5 Stretch                  5     6                       1.22277
    6 Stretch                  5     7                       1.33349
    7 Stretch                  7     8                       1.00612
    8 Stretch                  7     9                       1.47163
    9 Stretch                  9    10                       1.09113
   10 Stretch                  9    11                       1.53431
   11 Stretch                  9    15                       1.54857
   12 Stretch                 11    12                       1.09045
   13 Stretch                 11    13                       1.09205
   14 Stretch                 11    14                       1.09020
   15 Stretch                 15    16                       1.22695
   16 Stretch                 15    17                       1.33570
   17 Stretch                 17    18                       1.00770
   18 Stretch                 17    19                       1.46814
   19 Stretch                 19    20                       1.09130
   20 Stretch                 19    21                       1.53965
   21 Stretch                 19    36                       1.54481
   22 Stretch                 21    22                       1.09120
   23 Stretch                 21    23                       1.09119
   24 Stretch                 21    24                       1.52162
   25 Stretch                 24    25                       1.41005
   26 Stretch                 24    34                       1.40833
   27 Stretch                 25    26                       1.08162
   28 Stretch                 25    27                       1.40881
   29 Stretch                 27    28                       1.07825
   30 Stretch                 27    29                       1.41252
   31 Stretch                 29    30                       1.35768
   32 Stretch                 29    32                       1.40951
   33 Stretch                 30    31                       0.95677
   34 Stretch                 32    33                       1.08054
   35 Stretch                 32    34                       1.40739
   36 Stretch                 34    35                       1.08331
   37 Stretch                 36    37                       1.22476
   38 Stretch                 36    38                       1.32850
   39 Stretch                 38    39                       1.01203
   40 Stretch                 38    40                       1.00498
   41 Bend                     1     2     3               109.51226
   42 Bend                     1     2     4               110.09977
   43 Bend                     1     2     5               109.31760
   44 Bend                     2     5     6               120.34798
   45 Bend                     2     5     7               116.81907
   46 Bend                     3     2     4               109.19959
   47 Bend                     3     2     5               108.87179
   48 Bend                     4     2     5               109.81933
   49 Bend                     5     7     8               118.07967
   50 Bend                     5     7     9               124.13246
   51 Bend                     6     5     7               122.81434
   52 Bend                     7     9    10               108.11724
   53 Bend                     7     9    11               107.72867
   54 Bend                     7     9    15               115.07134
   55 Bend                     8     7     9               117.58976
   56 Bend                     9    11    12               110.23376
   57 Bend                     9    11    13               109.40696
   58 Bend                     9    11    14               110.10095
   59 Bend                     9    15    16               120.02623
   60 Bend                     9    15    17               118.23416
   61 Bend                    10     9    11               108.11950
   62 Bend                    10     9    15               106.35325
   63 Bend                    11     9    15               111.21689
   64 Bend                    12    11    13               108.78880
   65 Bend                    12    11    14               109.66457
   66 Bend                    13    11    14               108.61175
   67 Bend                    15    17    18               117.29320
   68 Bend                    15    17    19               125.41771
   69 Bend                    16    15    17               121.73742
   70 Bend                    17    19    20               108.99750
   71 Bend                    17    19    21               108.15286
   72 Bend                    17    19    36               113.65649
   73 Bend                    18    17    19               116.41075
   74 Bend                    19    21    22               109.55586
   75 Bend                    19    21    23               107.81817
   76 Bend                    19    21    24               114.62979
   77 Bend                    19    36    37               120.24009
   78 Bend                    19    36    38               120.01793
   79 Bend                    20    19    21               108.27179
   80 Bend                    20    19    36               106.36751
   81 Bend                    21    19    36               111.24926
   82 Bend                    21    24    25               119.92288
   83 Bend                    21    24    34               120.25757
   84 Bend                    22    21    23               106.78179
   85 Bend                    22    21    24               109.20020
   86 Bend                    23    21    24               108.55664
   87 Bend                    24    25    26               119.86202
   88 Bend                    24    25    27               120.27085
   89 Bend                    24    34    32               120.12103
   90 Bend                    24    34    35               120.11154
   91 Bend                    25    24    34               119.78799
   92 Bend                    25    27    28               120.12197
   93 Bend                    25    27    29               119.79728
   94 Bend                    26    25    27               119.86563
   95 Bend                    27    29    30               120.23083
   96 Bend                    27    29    32               119.89504
   97 Bend                    28    27    29               120.08075
   98 Bend                    29    30    31               112.36971
   99 Bend                    29    32    33               119.32123
  100 Bend                    29    32    34               120.12302
  101 Bend                    30    29    32               119.87386
  102 Bend                    32    34    35               119.76721
  103 Bend                    33    32    34               120.55505
  104 Bend                    36    38    39               120.56511
  105 Bend                    36    38    40               118.33406
  106 Bend                    37    36    38               119.72969
  107 Bend                    39    38    40               121.09498
  108 Torsion                  1     2     5     6        -112.47916
  109 Torsion                  1     2     5     7          69.04621
  110 Torsion                  2     5     7     8          -1.80832
  111 Torsion                  2     5     7     9        -176.56011
  112 Torsion                  3     2     5     6           7.11583
  113 Torsion                  3     2     5     7        -171.35880
  114 Torsion                  4     2     5     6         126.62876
  115 Torsion                  4     2     5     7         -51.84587
  116 Torsion                  5     7     9    10          55.31765
  117 Torsion                  5     7     9    11         171.94179
  118 Torsion                  5     7     9    15         -63.37596
  119 Torsion                  6     5     7     8         179.75798
  120 Torsion                  6     5     7     9           5.00619
  121 Torsion                  7     9    11    12          64.05767
  122 Torsion                  7     9    11    13        -176.35194
  123 Torsion                  7     9    11    14         -57.06032
  124 Torsion                  7     9    15    16         169.77644
  125 Torsion                  7     9    15    17          -9.69419
  126 Torsion                  8     7     9    10        -119.45785
  127 Torsion                  8     7     9    11          -2.83371
  128 Torsion                  8     7     9    15         121.84854
  129 Torsion                  9    15    17    18           1.39942
  130 Torsion                  9    15    17    19         170.24663
  131 Torsion                 10     9    11    12        -179.31966
  132 Torsion                 10     9    11    13         -59.72927
  133 Torsion                 10     9    11    14          59.56235
  134 Torsion                 10     9    15    16          50.10295
  135 Torsion                 10     9    15    17        -129.36768
  136 Torsion                 11     9    15    16         -67.38695
  137 Torsion                 11     9    15    17         113.14242
  138 Torsion                 12    11     9    15         -62.90756
  139 Torsion                 13    11     9    15          56.68283
  140 Torsion                 14    11     9    15         175.97445
  141 Torsion                 15    17    19    20          41.32300
  142 Torsion                 15    17    19    21         158.82843
  143 Torsion                 15    17    19    36         -77.11375
  144 Torsion                 16    15    17    18        -178.06167
  145 Torsion                 16    15    17    19          -9.21446
  146 Torsion                 17    19    21    22         168.45399
  147 Torsion                 17    19    21    23         -75.69632
  148 Torsion                 17    19    21    24          45.30717
  149 Torsion                 17    19    36    37         173.83888
  150 Torsion                 17    19    36    38          -7.43977
  151 Torsion                 18    17    19    20        -149.74207
  152 Torsion                 18    17    19    21         -32.23664
  153 Torsion                 18    17    19    36          91.82118
  154 Torsion                 19    21    24    25        -104.49284
  155 Torsion                 19    21    24    34          73.45967
  156 Torsion                 19    36    38    39          -1.52955
  157 Torsion                 19    36    38    40         179.34035
  158 Torsion                 20    19    21    22         -73.57521
  159 Torsion                 20    19    21    23          42.27448
  160 Torsion                 20    19    21    24         163.27797
  161 Torsion                 20    19    36    37          53.90094
  162 Torsion                 20    19    36    38        -127.37771
  163 Torsion                 21    19    36    37         -63.79722
  164 Torsion                 21    19    36    38         114.92413
  165 Torsion                 21    24    25    26          -2.42655
  166 Torsion                 21    24    25    27         178.01864
  167 Torsion                 21    24    34    32        -177.39433
  168 Torsion                 21    24    34    35           2.43820
  169 Torsion                 22    21    19    36          42.96335
  170 Torsion                 22    21    24    25         132.16948
  171 Torsion                 22    21    24    34         -49.87801
  172 Torsion                 23    21    19    36         158.81304
  173 Torsion                 23    21    24    25          16.10365
  174 Torsion                 23    21    24    34        -165.94384
  175 Torsion                 24    21    19    36         -80.18347
  176 Torsion                 24    25    27    28         179.51277
  177 Torsion                 24    25    27    29          -0.48301
  178 Torsion                 24    34    32    29          -0.75055
  179 Torsion                 24    34    32    33         179.55761
  180 Torsion                 25    24    34    32           0.56094
  181 Torsion                 25    24    34    35        -179.60652
  182 Torsion                 25    27    29    30        -179.51730
  183 Torsion                 25    27    29    32           0.29396
  184 Torsion                 26    25    24    34         179.61126
  185 Torsion                 26    25    27    28          -0.04202
  186 Torsion                 26    25    27    29         179.96220
  187 Torsion                 27    25    24    34           0.05645
  188 Torsion                 27    29    30    31         -15.84148
  189 Torsion                 27    29    32    33        -179.98310
  190 Torsion                 27    29    32    34           0.32126
  191 Torsion                 28    27    29    30           0.48692
  192 Torsion                 28    27    29    32        -179.70181
  193 Torsion                 29    32    34    35         179.41634
  194 Torsion                 30    29    32    33          -0.17116
  195 Torsion                 30    29    32    34        -179.86680
  196 Torsion                 31    30    29    32         164.34721
  197 Torsion                 33    32    34    35          -0.27550
  198 Torsion                 37    36    38    39         177.19835
  199 Torsion                 37    36    38    40          -1.93175


            XYZ format geometry
            -------------------
    40
 geometry
 H                    -3.74918438    -0.99614434    -1.49201325
 C                    -2.70176560    -1.13624126    -1.23082992
 H                    -2.20346868    -1.70568737    -2.01631341
 H                    -2.62010914    -1.67653406    -0.29086134
 C                    -2.03373052     0.21136766    -1.10616510
 O                    -1.17916068     0.55408676    -1.91078614
 N                    -2.40015134     0.97128051    -0.07347093
 H                    -3.11381850     0.62053973     0.54291864
 C                    -1.90783985     2.33803308     0.16174135
 H                    -2.11176969     2.93054977    -0.73150586
 C                    -2.71551183     2.93215834     1.32310915
 H                    -2.52731011     2.37131961     2.23914083
 H                    -2.41663147     3.97088541     1.47896356
 H                    -3.78025488     2.90767363     1.09015268
 C                    -0.38552316     2.45144783     0.42202578
 O                     0.15341141     3.55350572     0.44254290
 N                     0.30911231     1.32603326     0.60913431
 H                    -0.19573885     0.45599688     0.54890142
 C                     1.77297640     1.22908495     0.66526764
 H                     2.16293884     2.07057530     1.24038179
 C                     2.13962875    -0.07135953     1.40345475
 H                     3.20521307    -0.27245154     1.28174174
 H                     1.96919789     0.09016422     2.46907963
 C                     1.34648449    -1.29404333     0.96607216
 C                     0.31558253    -1.79455007     1.78763539
 H                     0.11724348    -1.33184814     2.74495589
 C                    -0.45093926    -2.90064151     1.37080679
 H                    -1.23350709    -3.28630661     2.00442973
 C                    -0.19121731    -3.50328748     0.11997853
 O                    -0.93097347    -4.56350749    -0.29474954
 H                    -1.42389591    -4.96545610     0.41999921
 C                     0.83687424    -2.99988183    -0.70242010
 H                     1.02740229    -3.46780490    -1.65756619
 C                     1.60878371    -1.90284483    -0.27648161
 H                     2.40371912    -1.52660474    -0.90900361
 C                     2.45227266     1.29684094    -0.72051471
 O                     3.67314596     1.34081774    -0.80750575
 N                     1.71324423     1.28195711    -1.82438266
 H                     0.70584997     1.20320686    -1.76823817
 H                     2.18085031     1.33731064    -2.71222079

 ==============================================================================
                                internuclear distances
 ------------------------------------------------------------------------------
       center one      |      center two      | atomic units |  angstroms
 ------------------------------------------------------------------------------
    2 C                |   1 H                |     2.05705  |     1.08854
    3 H                |   2 C                |     2.06106  |     1.09067
    4 H                |   2 C                |     2.05462  |     1.08726
    5 C                |   2 C                |     2.85209  |     1.50926
    6 O                |   5 C                |     2.31070  |     1.22277
    7 N                |   5 C                |     2.51993  |     1.33349
    8 H                |   7 N                |     1.90129  |     1.00612
    9 C                |   7 N                |     2.78099  |     1.47163
   10 H                |   9 C                |     2.06193  |     1.09113
   11 C                |   9 C                |     2.89942  |     1.53431
   12 H                |  11 C                |     2.06065  |     1.09045
   13 H                |  11 C                |     2.06368  |     1.09205
   14 H                |  11 C                |     2.06019  |     1.09020
   15 C                |   9 C                |     2.92637  |     1.54857
   16 O                |  15 C                |     2.31860  |     1.22695
   17 N                |  15 C                |     2.52410  |     1.33570
   18 H                |  17 N                |     1.90428  |     1.00770
   19 C                |  17 N                |     2.77439  |     1.46814
   20 H                |  19 C                |     2.06226  |     1.09130
   21 C                |  19 C                |     2.90951  |     1.53965
   22 H                |  21 C                |     2.06207  |     1.09120
   23 H                |  21 C                |     2.06205  |     1.09119
   24 C                |  21 C                |     2.87545  |     1.52162
   25 C                |  24 C                |     2.66460  |     1.41005
   26 H                |  25 C                |     2.04396  |     1.08162
   27 C                |  25 C                |     2.66226  |     1.40881
   28 H                |  27 C                |     2.03760  |     1.07825
   29 C                |  27 C                |     2.66927  |     1.41252
   30 O                |  29 C                |     2.56565  |     1.35768
   31 H                |  30 O                |     1.80803  |     0.95677
   32 C                |  29 C                |     2.66359  |     1.40951
   33 H                |  32 C                |     2.04192  |     1.08054
   34 C                |  24 C                |     2.66135  |     1.40833
   34 C                |  32 C                |     2.65959  |     1.40739
   35 H                |  34 C                |     2.04716  |     1.08331
   36 C                |  19 C                |     2.91926  |     1.54481
   37 O                |  36 C                |     2.31446  |     1.22476
   38 N                |  36 C                |     2.51050  |     1.32850
   39 H                |  38 N                |     1.91245  |     1.01203
   40 H                |  38 N                |     1.89913  |     1.00498
 ------------------------------------------------------------------------------
                         number of included internuclear distances:         40
 ==============================================================================



 ==============================================================================
                                 internuclear angles
 ------------------------------------------------------------------------------
        center 1       |       center 2       |       center 3       |  degrees
 ------------------------------------------------------------------------------
    1 H                |   2 C                |   3 H                |   109.51
    1 H                |   2 C                |   4 H                |   110.10
    1 H                |   2 C                |   5 C                |   109.32
    3 H                |   2 C                |   4 H                |   109.20
    3 H                |   2 C                |   5 C                |   108.87
    4 H                |   2 C                |   5 C                |   109.82
    2 C                |   5 C                |   6 O                |   120.35
    2 C                |   5 C                |   7 N                |   116.82
    6 O                |   5 C                |   7 N                |   122.81
    5 C                |   7 N                |   8 H                |   118.08
    5 C                |   7 N                |   9 C                |   124.13
    8 H                |   7 N                |   9 C                |   117.59
    7 N                |   9 C                |  10 H                |   108.12
    7 N                |   9 C                |  11 C                |   107.73
    7 N                |   9 C                |  15 C                |   115.07
   10 H                |   9 C                |  11 C                |   108.12
   10 H                |   9 C                |  15 C                |   106.35
   11 C                |   9 C                |  15 C                |   111.22
    9 C                |  11 C                |  12 H                |   110.23
    9 C                |  11 C                |  13 H                |   109.41
    9 C                |  11 C                |  14 H                |   110.10
   12 H                |  11 C                |  13 H                |   108.79
   12 H                |  11 C                |  14 H                |   109.66
   13 H                |  11 C                |  14 H                |   108.61
    9 C                |  15 C                |  16 O                |   120.03
    9 C                |  15 C                |  17 N                |   118.23
   16 O                |  15 C                |  17 N                |   121.74
   15 C                |  17 N                |  18 H                |   117.29
   15 C                |  17 N                |  19 C                |   125.42
   18 H                |  17 N                |  19 C                |   116.41
   17 N                |  19 C                |  20 H                |   109.00
   17 N                |  19 C                |  21 C                |   108.15
   17 N                |  19 C                |  36 C                |   113.66
   20 H                |  19 C                |  21 C                |   108.27
   20 H                |  19 C                |  36 C                |   106.37
   21 C                |  19 C                |  36 C                |   111.25
   19 C                |  21 C                |  22 H                |   109.56
   19 C                |  21 C                |  23 H                |   107.82
   19 C                |  21 C                |  24 C                |   114.63
   22 H                |  21 C                |  23 H                |   106.78
   22 H                |  21 C                |  24 C                |   109.20
   23 H                |  21 C                |  24 C                |   108.56
   21 C                |  24 C                |  25 C                |   119.92
   21 C                |  24 C                |  34 C                |   120.26
   25 C                |  24 C                |  34 C                |   119.79
   24 C                |  25 C                |  26 H                |   119.86
   24 C                |  25 C                |  27 C                |   120.27
   26 H                |  25 C                |  27 C                |   119.87
   25 C                |  27 C                |  28 H                |   120.12
   25 C                |  27 C                |  29 C                |   119.80
   28 H                |  27 C                |  29 C                |   120.08
   27 C                |  29 C                |  30 O                |   120.23
   27 C                |  29 C                |  32 C                |   119.90
   30 O                |  29 C                |  32 C                |   119.87
   29 C                |  30 O                |  31 H                |   112.37
   29 C                |  32 C                |  33 H                |   119.32
   29 C                |  32 C                |  34 C                |   120.12
   33 H                |  32 C                |  34 C                |   120.56
   24 C                |  34 C                |  32 C                |   120.12
   24 C                |  34 C                |  35 H                |   120.11
   32 C                |  34 C                |  35 H                |   119.77
   19 C                |  36 C                |  37 O                |   120.24
   19 C                |  36 C                |  38 N                |   120.02
   37 O                |  36 C                |  38 N                |   119.73
   36 C                |  38 N                |  39 H                |   120.57
   36 C                |  38 N                |  40 H                |   118.33
   39 H                |  38 N                |  40 H                |   121.09
 ------------------------------------------------------------------------------
                            number of included internuclear angles:         67
 ==============================================================================



  library name resolved from: environment
  library file name is: </opt/rit/el9/20230413/app/linux-rhel9-x86_64_v3/gcc-11.2.1/nwchem-7.2.0-oxtctbuhfuzyfaoziquq6bki22grib3g/share/nwchem/libraries/>
  


 Summary of "ao basis" -> "" (cartesian)
 ------------------------------------------------------------------------------
       Tag                 Description            Shells   Functions and Types
 ---------------- ------------------------------  ------  ---------------------
 *                        aug-cc-pvdz                 on all atoms 


                      Basis "ao basis" -> "ao basis" (cartesian)
                      -----
  H (Hydrogen)
  ------------
            Exponent  Coefficients 
       -------------- ---------------------------------------------------------
  1 S  1.30100000E+01  0.019685
  1 S  1.96200000E+00  0.137977
  1 S  4.44600000E-01  0.478148

  2 S  1.22000000E-01  1.000000

  3 S  2.97400000E-02  1.000000

  4 P  7.27000000E-01  1.000000

  5 P  1.41000000E-01  1.000000

  C (Carbon)
  ----------
            Exponent  Coefficients 
       -------------- ---------------------------------------------------------
  1 S  6.66500000E+03  0.000692
  1 S  1.00000000E+03  0.005329
  1 S  2.28000000E+02  0.027077
  1 S  6.47100000E+01  0.101718
  1 S  2.10600000E+01  0.274740
  1 S  7.49500000E+00  0.448564
  1 S  2.79700000E+00  0.285074
  1 S  5.21500000E-01  0.015204

  2 S  6.66500000E+03 -0.000146
  2 S  1.00000000E+03 -0.001154
  2 S  2.28000000E+02 -0.005725
  2 S  6.47100000E+01 -0.023312
  2 S  2.10600000E+01 -0.063955
  2 S  7.49500000E+00 -0.149981
  2 S  2.79700000E+00 -0.127262
  2 S  5.21500000E-01  0.544529

  3 S  1.59600000E-01  1.000000

  4 S  4.69000000E-02  1.000000

  5 P  9.43900000E+00  0.038109
  5 P  2.00200000E+00  0.209480
  5 P  5.45600000E-01  0.508557

  6 P  1.51700000E-01  1.000000

  7 P  4.04100000E-02  1.000000

  8 D  5.50000000E-01  1.000000

  9 D  1.51000000E-01  1.000000

  O (Oxygen)
  ----------
            Exponent  Coefficients 
       -------------- ---------------------------------------------------------
  1 S  1.17200000E+04  0.000710
  1 S  1.75900000E+03  0.005470
  1 S  4.00800000E+02  0.027837
  1 S  1.13700000E+02  0.104800
  1 S  3.70300000E+01  0.283062
  1 S  1.32700000E+01  0.448719
  1 S  5.02500000E+00  0.270952
  1 S  1.01300000E+00  0.015458

  2 S  1.17200000E+04 -0.000160
  2 S  1.75900000E+03 -0.001263
  2 S  4.00800000E+02 -0.006267
  2 S  1.13700000E+02 -0.025716
  2 S  3.70300000E+01 -0.070924
  2 S  1.32700000E+01 -0.165411
  2 S  5.02500000E+00 -0.116955
  2 S  1.01300000E+00  0.557368

  3 S  3.02300000E-01  1.000000

  4 S  7.89600000E-02  1.000000

  5 P  1.77000000E+01  0.043018
  5 P  3.85400000E+00  0.228913
  5 P  1.04600000E+00  0.508728

  6 P  2.75300000E-01  1.000000

  7 P  6.85600000E-02  1.000000

  8 D  1.18500000E+00  1.000000

  9 D  3.32000000E-01  1.000000

  N (Nitrogen)
  ------------
            Exponent  Coefficients 
       -------------- ---------------------------------------------------------
  1 S  9.04600000E+03  0.000700
  1 S  1.35700000E+03  0.005389
  1 S  3.09300000E+02  0.027406
  1 S  8.77300000E+01  0.103207
  1 S  2.85600000E+01  0.278723
  1 S  1.02100000E+01  0.448540
  1 S  3.83800000E+00  0.278238
  1 S  7.46600000E-01  0.015440

  2 S  9.04600000E+03 -0.000153
  2 S  1.35700000E+03 -0.001208
  2 S  3.09300000E+02 -0.005992
  2 S  8.77300000E+01 -0.024544
  2 S  2.85600000E+01 -0.067459
  2 S  1.02100000E+01 -0.158078
  2 S  3.83800000E+00 -0.121831
  2 S  7.46600000E-01  0.549003

  3 S  2.24800000E-01  1.000000

  4 S  6.12400000E-02  1.000000

  5 P  1.35500000E+01  0.039919
  5 P  2.91700000E+00  0.217169
  5 P  7.97300000E-01  0.510319

  6 P  2.18500000E-01  1.000000

  7 P  5.61100000E-02  1.000000

  8 D  8.17000000E-01  1.000000

  9 D  2.30000000E-01  1.000000



 Summary of "ao basis" -> "ao basis" (cartesian)
 ------------------------------------------------------------------------------
       Tag                 Description            Shells   Functions and Types
 ---------------- ------------------------------  ------  ---------------------
 H                        aug-cc-pvdz                5        9   3s2p
 C                        aug-cc-pvdz                9       25   4s3p2d
 O                        aug-cc-pvdz                9       25   4s3p2d
 N                        aug-cc-pvdz                9       25   4s3p2d


                                 NWChem SCF Module
                                 -----------------



  ao basis        = "ao basis"
  functions       =   696
  atoms           =    40
  closed shells   =    78
  open shells     =     0
  charge          =   0.00
  wavefunction    = RHF 
  input vectors   = atomic
  output vectors  = ./ALA_TYR_0.movecs
  use symmetry    = F
  symmetry adapt  = F


 Summary of "ao basis" -> "ao basis" (cartesian)
 ------------------------------------------------------------------------------
       Tag                 Description            Shells   Functions and Types
 ---------------- ------------------------------  ------  ---------------------
 H                        aug-cc-pvdz                5        9   3s2p
 C                        aug-cc-pvdz                9       25   4s3p2d
 O                        aug-cc-pvdz                9       25   4s3p2d
 N                        aug-cc-pvdz                9       25   4s3p2d



 Forming initial guess at       0.8s


 !! The overlap matrix has  13 vectors deemed linearly dependent with
    eigenvalues:
 8.57D-07 1.37D-06 1.67D-06 2.41D-06 3.02D-06 4.24D-06 4.61D-06 5.15D-06
 6.15D-06 6.30D-06 6.54D-06 7.94D-06 8.92D-06


      Superposition of Atomic Density Guess
      -------------------------------------

 Sum of atomic energies:        -998.80105847

      Non-variational initial energy
      ------------------------------

 Total energy =   -1012.689652
 1-e energy   =   -4936.088838
 2-e energy   =    2122.994591
 HOMO         =      -0.256749
 LUMO         =      -0.026321


 Starting SCF solution at    1328.7s



 ----------------------------------------------
         Quadratically convergent ROHF

 Convergence threshold     :          1.000E-04
 Maximum no. of iterations :           30
 Final Fock-matrix accuracy:          1.000E-10
 ----------------------------------------------


              iter       energy          gnorm     gmax       time
             ----- ------------------- --------- --------- --------
                 1    -1003.7743729420  2.60D+00  1.44D-01   2712.9
                 2    -1004.1433228211  9.35D-01  4.60D-02   5535.3
                 3    -1004.2185912836  6.97D-02  3.77D-03   9471.8
                 4    -1004.2192701877  4.64D-03  5.21D-04  13519.4
                 5    -1004.2192744187  1.22D-05  2.54D-06  21540.9


       Final RHF  results 
       ------------------ 

         Total SCF energy =  -1004.219274418697
      One-electron energy =  -4950.508627028937
      Two-electron energy =   2145.884757587538
 Nuclear repulsion energy =   1800.404595022701

        Time for solution =  20220.5s


             Final eigenvalues
             -----------------

              1      
    1  -20.6148
    2  -20.5487
    3  -20.5277
    4  -20.5054
    5  -15.6231
    6  -15.5973
    7  -15.5683
    8  -11.3774
    9  -11.3621
   10  -11.3406
   11  -11.3293
   12  -11.3116
   13  -11.2935
   14  -11.2674
   15  -11.2621
   16  -11.2608
   17  -11.2585
   18  -11.2566
   19  -11.2561
   20  -11.2554
   21  -11.2501
   22   -1.4284
   23   -1.4140
   24   -1.3874
   25   -1.3680
   26   -1.2720
   27   -1.2464
   28   -1.1935
   29   -1.1627
   30   -1.0824
   31   -1.0658
   32   -1.0335
   33   -1.0090
   34   -1.0031
   35   -0.9160
   36   -0.8918
   37   -0.8609
   38   -0.8321
   39   -0.8233
   40   -0.8067
   41   -0.7783
   42   -0.7540
   43   -0.7400
   44   -0.7241
   45   -0.7033
   46   -0.6903
   47   -0.6832
   48   -0.6645
   49   -0.6611
   50   -0.6395
   51   -0.6325
   52   -0.6251
   53   -0.6086
   54   -0.6063
   55   -0.6024
   56   -0.5953
   57   -0.5925
   58   -0.5906
   59   -0.5847
   60   -0.5773
   61   -0.5679
   62   -0.5559
   63   -0.5507
   64   -0.5413
   65   -0.5378
   66   -0.5270
   67   -0.5120
   68   -0.5007
   69   -0.4895
   70   -0.4833
   71   -0.4513
   72   -0.4480
   73   -0.4312
   74   -0.4071
   75   -0.3897
   76   -0.3816
   77   -0.3546
   78   -0.3225
   79    0.0141
   80    0.0281
   81    0.0308
   82    0.0414
   83    0.0456
   84    0.0490
   85    0.0519
   86    0.0563
   87    0.0612
   88    0.0675

                       ROHF Final Molecular Orbital Analysis
                       -------------------------------------

 Vector   22  Occ=2.000000D+00  E=-1.428424D+00
              MO Center= -8.6D-01, -4.4D+00, -1.3D-01, r^2= 6.0D-01
   Bfn.  Coefficient  Atom+Function         Bfn.  Coefficient  Atom+Function  
  ----- ------------  ---------------      ----- ------------  ---------------
   504      0.461248  30 O  s               503      0.409442  30 O  s         
   480     -0.279170  29 C  s               527      0.194015  31 H  s         

 Vector   23  Occ=2.000000D+00  E=-1.413993D+00
              MO Center= -1.5D+00,  5.8D-01, -1.4D+00, r^2= 1.2D+00
   Bfn.  Coefficient  Atom+Function         Bfn.  Coefficient  Atom+Function  
  ----- ------------  ---------------      ----- ------------  ---------------
    80      0.345922   6 O  s                79      0.343067   6 O  s         
    54      0.242304   5 C  s               225      0.157762  15 C  s         
    12      0.153622   2 C  s         

 Vector   24  Occ=2.000000D+00  E=-1.387416D+00
              MO Center=  5.6D-02,  2.8D+00,  3.4D-01, r^2= 1.7D+00
   Bfn.  Coefficient  Atom+Function         Bfn.  Coefficient  Atom+Function  
  ----- ------------  ---------------      ----- ------------  ---------------
   250      0.358427  16 O  s               249      0.335991  16 O  s         
   224      0.240146  15 C  s         

 Vector   25  Occ=2.000000D+00  E=-1.368010D+00
              MO Center=  3.0D+00,  1.4D+00, -8.2D-01, r^2= 1.4D+00
   Bfn.  Coefficient  Atom+Function         Bfn.  Coefficient  Atom+Function  
  ----- ------------  ---------------      ----- ------------  ---------------
   631      0.381124  37 O  s               630      0.347689  37 O  s         
   605      0.243317  36 C  s         

 Vector   26  Occ=2.000000D+00  E=-1.272043D+00
              MO Center= -1.9D+00,  1.1D+00, -2.8D-01, r^2= 2.3D+00
   Bfn.  Coefficient  Atom+Function         Bfn.  Coefficient  Atom+Function  
  ----- ------------  ---------------      ----- ------------  ---------------
   105      0.387034   7 N  s               104      0.328753   7 N  s         
    80     -0.219724   6 O  s               139     -0.198719   9 C  s         
    79     -0.178409   6 O  s               225      0.165715  15 C  s         
    59      0.154699   5 C  pz              128      0.152000   8 H  s         

 Vector   27  Occ=2.000000D+00  E=-1.246401D+00
              MO Center=  3.1D-01,  1.5D+00,  3.8D-01, r^2= 2.9D+00
   Bfn.  Coefficient  Atom+Function         Bfn.  Coefficient  Atom+Function  
  ----- ------------  ---------------      ----- ------------  ---------------
   275      0.360437  17 N  s               274      0.318618  17 N  s         
   250     -0.195026  16 O  s               309     -0.189796  19 C  s         
   228     -0.171932  15 C  py              249     -0.158179  16 O  s         

 Vector   28  Occ=2.000000D+00  E=-1.193515D+00
              MO Center=  1.9D+00,  1.3D+00, -1.4D+00, r^2= 1.7D+00
   Bfn.  Coefficient  Atom+Function         Bfn.  Coefficient  Atom+Function  
  ----- ------------  ---------------      ----- ------------  ---------------
   656      0.389681  38 N  s               655      0.367548  38 N  s         
   309     -0.226856  19 C  s               631     -0.201623  37 O  s         
   608     -0.175077  36 C  px              630     -0.169335  37 O  s         
   679      0.160405  39 H  s               688      0.159590  40 H  s         
   613      0.155037  36 C  pz        

 Vector   29  Occ=2.000000D+00  E=-1.162726D+00
              MO Center=  6.9D-01, -2.1D+00,  6.5D-01, r^2= 2.9D+00
   Bfn.  Coefficient  Atom+Function         Bfn.  Coefficient  Atom+Function  
  ----- ------------  ---------------      ----- ------------  ---------------
   385      0.202995  24 C  s               410      0.182632  25 C  s         
   571      0.176195  34 C  s               444      0.158551  27 C  s         
   537      0.153440  32 C  s         

 Vector   30  Occ=2.000000D+00  E=-1.082442D+00
              MO Center= -8.2D-01,  9.0D-01,  3.7D-01, r^2= 8.3D+00
   Bfn.  Coefficient  Atom+Function         Bfn.  Coefficient  Atom+Function  
  ----- ------------  ---------------      ----- ------------  ---------------
   138      0.194427   9 C  s               172      0.156845  11 C  s         

 Vector   31  Occ=2.000000D+00  E=-1.065752D+00
              MO Center= -2.1D-01, -3.1D-02,  5.5D-01, r^2= 9.6D+00
   Bfn.  Coefficient  Atom+Function         Bfn.  Coefficient  Atom+Function  
  ----- ------------  ---------------      ----- ------------  ---------------
   342     -0.187388  21 C  s                12      0.181287   2 C  s         
   387      0.158112  24 C  s         

 Vector   32  Occ=2.000000D+00  E=-1.033549D+00
              MO Center=  5.4D-01, -2.4D+00,  5.3D-01, r^2= 2.9D+00
   Bfn.  Coefficient  Atom+Function         Bfn.  Coefficient  Atom+Function  
  ----- ------------  ---------------      ----- ------------  ---------------
   412      0.282435  25 C  s               539     -0.256849  32 C  s         
   573     -0.253840  34 C  s               537      0.223957  32 C  s         
   446      0.216211  27 C  s               410     -0.214047  25 C  s         
   444     -0.207963  27 C  s               571      0.202882  34 C  s         
   469     -0.164708  28 H  s               562      0.165379  33 H  s         

 Vector   33  Occ=2.000000D+00  E=-1.009022D+00
              MO Center= -2.5D+00, -1.2D-01, -6.7D-01, r^2= 5.0D+00
   Bfn.  Coefficient  Atom+Function         Bfn.  Coefficient  Atom+Function  
  ----- ------------  ---------------      ----- ------------  ---------------
    11      0.319118   2 C  s                58     -0.159807   5 C  py        
    12      0.155741   2 C  s               172      0.155073  11 C  s         

 Vector   34  Occ=2.000000D+00  E=-1.003089D+00
              MO Center=  6.9D-01, -6.5D-01,  5.4D-01, r^2= 8.0D+00
   Bfn.  Coefficient  Atom+Function         Bfn.  Coefficient  Atom+Function  
  ----- ------------  ---------------      ----- ------------  ---------------
   308      0.211287  19 C  s               478      0.171625  29 C  s         
   385     -0.164290  24 C  s               480     -0.150250  29 C  s         

 Vector   35  Occ=2.000000D+00  E=-9.160084D-01
              MO Center= -2.9D-01,  7.1D-01,  7.2D-01, r^2= 1.0D+01
   Bfn.  Coefficient  Atom+Function         Bfn.  Coefficient  Atom+Function  
  ----- ------------  ---------------      ----- ------------  ---------------
   139      0.236402   9 C  s               144      0.189053   9 C  px        
   342      0.189748  21 C  s               172     -0.180137  11 C  s         
   349     -0.170901  21 C  py              316      0.168957  19 C  pz        
   480     -0.163789  29 C  s               173     -0.155011  11 C  s         

 Vector   36  Occ=2.000000D+00  E=-8.918439D-01
              MO Center= -2.7D-01,  7.8D-01,  3.9D-01, r^2= 1.1D+01
   Bfn.  Coefficient  Atom+Function         Bfn.  Coefficient  Atom+Function  
  ----- ------------  ---------------      ----- ------------  ---------------
   174      0.194429  11 C  s               309     -0.186195  19 C  s         
   316      0.170233  19 C  pz              172      0.165971  11 C  s         
   138     -0.156640   9 C  s               139     -0.153862   9 C  s         

 Vector   37  Occ=2.000000D+00  E=-8.609044D-01
              MO Center=  3.6D-01, -2.3D+00,  6.9D-01, r^2= 5.0D+00
   Bfn.  Coefficient  Atom+Function         Bfn.  Coefficient  Atom+Function  
  ----- ------------  ---------------      ----- ------------  ---------------
   412      0.399244  25 C  s               446     -0.352958  27 C  s         
   343      0.319800  21 C  s               411     -0.308966  25 C  s         
   539      0.307846  32 C  s               538     -0.299055  32 C  s         
   445      0.296674  27 C  s               573     -0.296533  34 C  s         
   435     -0.224990  26 H  s               483      0.197811  29 C  pz        

 Vector   38  Occ=2.000000D+00  E=-8.321314D-01
              MO Center= -1.9D+00,  9.1D-01, -2.9D-01, r^2= 4.3D+00
   Bfn.  Coefficient  Atom+Function         Bfn.  Coefficient  Atom+Function  
  ----- ------------  ---------------      ----- ------------  ---------------
   109      0.271018   7 N  pz              128      0.229386   8 H  s         
    54     -0.210392   5 C  s               139     -0.207792   9 C  s         
   105      0.204224   7 N  s                80      0.163495   6 O  s         
    61     -0.154678   5 C  py              107     -0.151389   7 N  px        

 Vector   39  Occ=2.000000D+00  E=-8.233050D-01
              MO Center=  7.3D-01, -2.0D+00,  1.8D-01, r^2= 7.5D+00
   Bfn.  Coefficient  Atom+Function         Bfn.  Coefficient  Atom+Function  
  ----- ------------  ---------------      ----- ------------  ---------------
   387      0.327949  24 C  s               539     -0.267183  32 C  s         
   480      0.233459  29 C  s               316      0.181586  19 C  pz        
   507     -0.176621  30 O  py              385     -0.159505  24 C  s         
   527      0.159074  31 H  s         

 Vector   40  Occ=2.000000D+00  E=-8.066636D-01
              MO Center= -1.5D-01,  1.4D+00,  3.1D-01, r^2= 4.4D+00
   Bfn.  Coefficient  Atom+Function         Bfn.  Coefficient  Atom+Function  
  ----- ------------  ---------------      ----- ------------  ---------------
   278      0.309028  17 N  py              309      0.259656  19 C  s         
   225      0.232488  15 C  s               298     -0.217861  18 H  s         
   299     -0.207601  18 H  s               224      0.179021  15 C  s         
   250     -0.172557  16 O  s               231     -0.161590  15 C  py        
   230      0.159868  15 C  px              275     -0.160423  17 N  s         

 Vector   41  Occ=2.000000D+00  E=-7.783292D-01
              MO Center=  1.3D+00,  9.3D-01, -5.2D-01, r^2= 5.6D+00
   Bfn.  Coefficient  Atom+Function         Bfn.  Coefficient  Atom+Function  
  ----- ------------  ---------------      ----- ------------  ---------------
   613      0.259055  36 C  pz              660     -0.246303  38 N  pz        
   225      0.239923  15 C  s               314     -0.239157  19 C  px        
   607      0.217927  36 C  s               605     -0.187297  36 C  s         
   298     -0.176975  18 H  s               275     -0.175390  17 N  s         
   688      0.164210  40 H  s               278      0.159233  17 N  py        

 Vector   42  Occ=2.000000D+00  E=-7.539878D-01
              MO Center=  2.1D-02, -3.1D+00,  3.1D-01, r^2= 4.9D+00
   Bfn.  Coefficient  Atom+Function         Bfn.  Coefficient  Atom+Function  
  ----- ------------  ---------------      ----- ------------  ---------------
   446      0.320374  27 C  s               527      0.244082  31 H  s         
   507     -0.222261  30 O  py              480     -0.202272  29 C  s         
   506     -0.203017  30 O  px              573      0.190786  34 C  s         
   387     -0.185466  24 C  s               482      0.183867  29 C  py        
   596     -0.182240  35 H  s               595     -0.174632  35 H  s         

 Vector   43  Occ=2.000000D+00  E=-7.399668D-01
              MO Center=  3.9D-01,  1.2D+00, -7.0D-01, r^2= 5.8D+00
   Bfn.  Coefficient  Atom+Function         Bfn.  Coefficient  Atom+Function  
  ----- ------------  ---------------      ----- ------------  ---------------
   658      0.270040  38 N  px              225      0.255773  15 C  s         
   679     -0.232424  39 H  s               144     -0.206245   9 C  px        
   314     -0.199011  19 C  px              606      0.190496  36 C  s         
   610     -0.185851  36 C  pz        

 Vector   44  Occ=2.000000D+00  E=-7.240622D-01
              MO Center= -9.0D-01,  1.1D+00, -3.5D-01, r^2= 7.2D+00
   Bfn.  Coefficient  Atom+Function         Bfn.  Coefficient  Atom+Function  
  ----- ------------  ---------------      ----- ------------  ---------------
   144      0.355791   9 C  px              225     -0.289610  15 C  s         
   139      0.184715   9 C  s               145      0.179443   9 C  py        
   128      0.174641   8 H  s               230      0.166771  15 C  px        
    55     -0.165302   5 C  s               227     -0.165991  15 C  px        
   658      0.151721  38 N  px              108     -0.150303   7 N  py        

 Vector   45  Occ=2.000000D+00  E=-7.033411D-01
              MO Center= -4.9D-01,  1.0D+00, -8.8D-02, r^2= 8.7D+00
   Bfn.  Coefficient  Atom+Function         Bfn.  Coefficient  Atom+Function  
  ----- ------------  ---------------      ----- ------------  ---------------
   349      0.195274  21 C  py              142     -0.184391   9 C  py        
   107      0.177222   7 N  px              174      0.173209  11 C  s         
   139     -0.166981   9 C  s               162     -0.164128  10 H  s         
   314      0.153021  19 C  px              173      0.151695  11 C  s         

 Vector   46  Occ=2.000000D+00  E=-6.903146D-01
              MO Center= -9.0D-01,  3.6D-01, -1.0D+00, r^2= 6.8D+00
   Bfn.  Coefficient  Atom+Function         Bfn.  Coefficient  Atom+Function  
  ----- ------------  ---------------      ----- ------------  ---------------
    80      0.231303   6 O  s                13      0.218505   2 C  s         
    83      0.195918   6 O  py               82      0.189993   6 O  px        
    59      0.182844   5 C  pz               18     -0.181840   2 C  py        
   106     -0.167581   7 N  s               658      0.158362  38 N  px        

 Vector   47  Occ=2.000000D+00  E=-6.831643D-01
              MO Center= -1.2D-01, -1.9D+00,  3.9D-01, r^2= 8.5D+00
   Bfn.  Coefficient  Atom+Function         Bfn.  Coefficient  Atom+Function  
  ----- ------------  ---------------      ----- ------------  ---------------
   508      0.237306  30 O  pz              414      0.186207  25 C  py        
   607     -0.178081  36 C  s               511      0.167496  30 O  pz        
   448     -0.156799  27 C  py        

 Vector   48  Occ=2.000000D+00  E=-6.645123D-01
              MO Center=  1.7D-01, -8.9D-01,  4.6D-01, r^2= 1.0D+01
   Bfn.  Coefficient  Atom+Function         Bfn.  Coefficient  Atom+Function  
  ----- ------------  ---------------      ----- ------------  ---------------
   343      0.218291  21 C  s               446     -0.194330  27 C  s         
   469      0.194838  28 H  s               468      0.190136  28 H  s         
   411     -0.171104  25 C  s               407     -0.166691  24 C  dyz       
   561      0.165888  33 H  s         

 Vector   49  Occ=2.000000D+00  E=-6.611174D-01
              MO Center=  1.1D+00,  5.8D-01, -4.5D-01, r^2= 9.6D+00
   Bfn.  Coefficient  Atom+Function         Bfn.  Coefficient  Atom+Function  
  ----- ------------  ---------------      ----- ------------  ---------------
   660      0.233488  38 N  pz              688     -0.207965  40 H  s         
   610     -0.178322  36 C  pz              633      0.163168  37 O  px        
   631      0.159457  37 O  s         

 Vector   50  Occ=2.000000D+00  E=-6.395237D-01
              MO Center= -3.5D-02, -4.4D-02,  2.5D-01, r^2= 1.1D+01
   Bfn.  Coefficient  Atom+Function         Bfn.  Coefficient  Atom+Function  
  ----- ------------  ---------------      ----- ------------  ---------------
   343      0.187375  21 C  s               253     -0.169756  16 O  py        
   435      0.159717  26 H  s               596      0.152126  35 H  s         
   469     -0.150092  28 H  s         

 Vector   51  Occ=2.000000D+00  E=-6.324959D-01
              MO Center= -1.7D+00, -1.8D-01, -5.6D-01, r^2= 7.6D+00
   Bfn.  Coefficient  Atom+Function         Bfn.  Coefficient  Atom+Function  
  ----- ------------  ---------------      ----- ------------  ---------------
   139      0.240851   9 C  s                 1     -0.211869   1 H  s         
    14      0.195815   2 C  px               44      0.179653   4 H  s         
    16      0.154314   2 C  pz        

 Vector   52  Occ=2.000000D+00  E=-6.251290D-01
              MO Center= -1.0D-01, -5.0D-01,  2.5D-01, r^2= 1.2D+01
   Bfn.  Coefficient  Atom+Function         Bfn.  Coefficient  Atom+Function  
  ----- ------------  ---------------      ----- ------------  ---------------
   253      0.195023  16 O  py              435      0.184294  26 H  s         
   343      0.173889  21 C  s               507     -0.159713  30 O  py        
   250      0.155688  16 O  s               415      0.153890  25 C  pz        
   481      0.153785  29 C  px        

 Vector   53  Occ=2.000000D+00  E=-6.086179D-01
              MO Center= -2.7D-01, -1.6D+00,  6.1D-02, r^2= 1.1D+01
   Bfn.  Coefficient  Atom+Function         Bfn.  Coefficient  Atom+Function  
  ----- ------------  ---------------      ----- ------------  ---------------
    56      0.254430   5 C  s               506      0.228739  30 O  px        
   509      0.175748  30 O  px              469      0.168434  28 H  s         
   412     -0.162578  25 C  s                12      0.158246   2 C  s         
   508      0.155456  30 O  pz              446     -0.150396  27 C  s         

 Vector   54  Occ=2.000000D+00  E=-6.062576D-01
              MO Center=  1.5D-01, -2.7D+00,  4.0D-01, r^2= 5.9D+00
   Bfn.  Coefficient  Atom+Function         Bfn.  Coefficient  Atom+Function  
  ----- ------------  ---------------      ----- ------------  ---------------
   539     -0.231454  32 C  s               435     -0.228537  26 H  s         
   562      0.226366  33 H  s               506      0.224602  30 O  px        
   573     -0.218479  34 C  s                56      0.216526   5 C  s         
   415     -0.196985  25 C  pz              434     -0.192232  26 H  s         
   561      0.183131  33 H  s               542     -0.178429  32 C  pz        

 Vector   55  Occ=2.000000D+00  E=-6.024041D-01
              MO Center= -5.0D-01,  6.1D-01, -4.7D-01, r^2= 1.1D+01
   Bfn.  Coefficient  Atom+Function         Bfn.  Coefficient  Atom+Function  
  ----- ------------  ---------------      ----- ------------  ---------------
   633      0.197837  37 O  px               84      0.185133   6 O  pz        
    82     -0.171695   6 O  px              253      0.172493  16 O  py        
    58      0.154355   5 C  py        

 Vector   56  Occ=2.000000D+00  E=-5.952840D-01
              MO Center=  2.9D-01,  1.1D+00, -2.0D-01, r^2= 9.2D+00
   Bfn.  Coefficient  Atom+Function         Bfn.  Coefficient  Atom+Function  
  ----- ------------  ---------------      ----- ------------  ---------------
   633      0.190472  37 O  px              279     -0.177071  17 N  pz        
   229     -0.168063  15 C  pz               56     -0.152777   5 C  s         
   254     -0.151840  16 O  pz        

 Vector   57  Occ=2.000000D+00  E=-5.924594D-01
              MO Center=  8.4D-01,  1.8D-01,  2.7D-01, r^2= 1.1D+01
   Bfn.  Coefficient  Atom+Function         Bfn.  Coefficient  Atom+Function  
  ----- ------------  ---------------      ----- ------------  ---------------
   349      0.197676  21 C  py              633      0.177636  37 O  px        
   508      0.152118  30 O  pz              573      0.152796  34 C  s         

 Vector   58  Occ=2.000000D+00  E=-5.905978D-01
              MO Center= -3.2D-01, -3.8D-02, -6.5D-02, r^2= 1.2D+01
   Bfn.  Coefficient  Atom+Function         Bfn.  Coefficient  Atom+Function  
  ----- ------------  ---------------      ----- ------------  ---------------
    36      0.208700   3 H  s                16     -0.181442   2 C  pz        
    13     -0.166370   2 C  s               596      0.167094  35 H  s         
   539     -0.155314  32 C  s         

 Vector   59  Occ=2.000000D+00  E=-5.846893D-01
              MO Center= -1.9D+00,  5.5D-01, -2.1D-01, r^2= 1.1D+01
   Bfn.  Coefficient  Atom+Function         Bfn.  Coefficient  Atom+Function  
  ----- ------------  ---------------      ----- ------------  ---------------
    35      0.263953   3 H  s                36      0.263936   3 H  s         
    16     -0.224562   2 C  pz              205      0.218583  13 H  s         
   176      0.211920  11 C  py              206      0.206498  13 H  s         
    13     -0.157184   2 C  s                14      0.152175   2 C  px        

 Vector   60  Occ=2.000000D+00  E=-5.772934D-01
              MO Center=  8.9D-01, -5.2D-01,  3.2D-01, r^2= 1.1D+01
   Bfn.  Coefficient  Atom+Function         Bfn.  Coefficient  Atom+Function  
  ----- ------------  ---------------      ----- ------------  ---------------
   345      0.202636  21 C  px              366      0.184956  22 H  s         
    12     -0.174094   2 C  s               315      0.167325  19 C  py        
   507      0.166120  30 O  py              312      0.158960  19 C  py        
    13     -0.153564   2 C  s         

 Vector   61  Occ=2.000000D+00  E=-5.679181D-01
              MO Center=  8.5D-01,  2.0D-01, -7.2D-02, r^2= 1.2D+01
   Bfn.  Coefficient  Atom+Function         Bfn.  Coefficient  Atom+Function  
  ----- ------------  ---------------      ----- ------------  ---------------
   633      0.253400  37 O  px              608     -0.204993  36 C  px        
   508     -0.174744  30 O  pz        

 Vector   62  Occ=2.000000D+00  E=-5.558817D-01
              MO Center= -2.3D+00,  7.8D-01, -9.8D-02, r^2= 7.1D+00
   Bfn.  Coefficient  Atom+Function         Bfn.  Coefficient  Atom+Function  
  ----- ------------  ---------------      ----- ------------  ---------------
   196     -0.225447  12 H  s                 1      0.213311   1 H  s         
    45     -0.204736   4 H  s                14     -0.198130   2 C  px        
   197     -0.194468  12 H  s               206      0.182140  13 H  s         
     2      0.177895   1 H  s               107      0.172870   7 N  px        
   177     -0.170338  11 C  pz              176      0.167778  11 C  py        

 Vector   63  Occ=2.000000D+00  E=-5.507089D-01
              MO Center= -2.2D+00,  1.6D+00,  2.8D-01, r^2= 7.5D+00
   Bfn.  Coefficient  Atom+Function         Bfn.  Coefficient  Atom+Function  
  ----- ------------  ---------------      ----- ------------  ---------------
   205      0.258225  13 H  s               176      0.231039  11 C  py        
   206      0.232093  13 H  s               215     -0.217391  14 H  s         
    12      0.210598   2 C  s                16      0.196395   2 C  pz        
   108      0.187934   7 N  py               35     -0.181491   3 H  s         
    36     -0.178639   3 H  s                55     -0.170860   5 C  s         

 Vector   64  Occ=2.000000D+00  E=-5.413434D-01
              MO Center=  8.3D-01,  4.2D-01, -1.0D-03, r^2= 1.0D+01
   Bfn.  Coefficient  Atom+Function         Bfn.  Coefficient  Atom+Function  
  ----- ------------  ---------------      ----- ------------  ---------------
   634      0.209832  37 O  py              659      0.184926  38 N  py        
   609      0.177421  36 C  py              538      0.167666  32 C  s         
   345     -0.157549  21 C  px              637      0.157836  37 O  py        

 Vector   65  Occ=2.000000D+00  E=-5.378178D-01
              MO Center= -4.6D-01,  1.3D+00,  3.8D-01, r^2= 9.5D+00
   Bfn.  Coefficient  Atom+Function         Bfn.  Coefficient  Atom+Function  
  ----- ------------  ---------------      ----- ------------  ---------------
   175     -0.186661  11 C  px               56      0.178375   5 C  s         
   227     -0.169951  15 C  px              367      0.165240  22 H  s         
   252     -0.164179  16 O  px              214      0.162769  14 H  s         

 Vector   66  Occ=2.000000D+00  E=-5.269687D-01
              MO Center=  9.8D-01, -5.8D-01,  5.9D-01, r^2= 9.4D+00
   Bfn.  Coefficient  Atom+Function         Bfn.  Coefficient  Atom+Function  
  ----- ------------  ---------------      ----- ------------  ---------------
   347      0.259436  21 C  pz              376      0.259454  23 H  s         
   375      0.252082  23 H  s               486     -0.221538  29 C  pz        
   538     -0.213166  32 C  s               367     -0.202237  22 H  s         
   435     -0.177230  26 H  s               593      0.174093  34 C  dyz       
   483     -0.170399  29 C  pz              445      0.155319  27 C  s         

 Vector   67  Occ=2.000000D+00  E=-5.120205D-01
              MO Center= -7.3D-01,  1.3D+00,  1.8D-01, r^2= 9.0D+00
   Bfn.  Coefficient  Atom+Function         Bfn.  Coefficient  Atom+Function  
  ----- ------------  ---------------      ----- ------------  ---------------
   143      0.241754   9 C  pz              162     -0.195892  10 H  s         
   254     -0.195640  16 O  pz              177     -0.186378  11 C  pz        
   309      0.162748  19 C  s               276      0.156808  17 N  s         
   180     -0.154902  11 C  pz              257     -0.152129  16 O  pz        

 Vector   68  Occ=2.000000D+00  E=-5.006660D-01
              MO Center=  1.1D+00, -1.7D+00,  5.5D-01, r^2= 6.3D+00
   Bfn.  Coefficient  Atom+Function         Bfn.  Coefficient  Atom+Function  
  ----- ------------  ---------------      ----- ------------  ---------------
   446      0.268869  27 C  s               539     -0.265169  32 C  s         
   435      0.260661  26 H  s               562      0.261155  33 H  s         
   596     -0.253989  35 H  s               412     -0.236364  25 C  s         
   486      0.236391  29 C  pz              469     -0.217490  28 H  s         
   576      0.214618  34 C  pz              445     -0.205120  27 C  s         

 Vector   69  Occ=2.000000D+00  E=-4.895215D-01
              MO Center=  1.4D+00, -7.4D-02,  5.5D-01, r^2= 6.5D+00
   Bfn.  Coefficient  Atom+Function         Bfn.  Coefficient  Atom+Function  
  ----- ------------  ---------------      ----- ------------  ---------------
   349      0.295649  21 C  py              346      0.235800  21 C  py        
   312     -0.207193  19 C  py              332     -0.205126  20 H  s         
   607      0.205020  36 C  s               388     -0.185020  24 C  px        
   389     -0.183568  24 C  py        

 Vector   70  Occ=2.000000D+00  E=-4.832732D-01
              MO Center=  6.2D-01, -2.0D+00,  5.3D-01, r^2= 6.0D+00
   Bfn.  Coefficient  Atom+Function         Bfn.  Coefficient  Atom+Function  
  ----- ------------  ---------------      ----- ------------  ---------------
    12      0.273493   2 C  s               506      0.198213  30 O  px        
   226     -0.189328  15 C  s               509      0.161486  30 O  px        
   312      0.155686  19 C  py              507     -0.151442  30 O  py        
   607     -0.151684  36 C  s         

 Vector   71  Occ=2.000000D+00  E=-4.512747D-01
              MO Center= -9.4D-01,  1.7D+00, -3.4D-01, r^2= 5.4D+00
   Bfn.  Coefficient  Atom+Function         Bfn.  Coefficient  Atom+Function  
  ----- ------------  ---------------      ----- ------------  ---------------
   252      0.297610  16 O  px              139      0.293926   9 C  s         
   255      0.238662  16 O  px               82     -0.215669   6 O  px        
   107      0.216278   7 N  px              110      0.203279   7 N  px        
    84     -0.191985   6 O  pz              108     -0.188093   7 N  py        
   109      0.172711   7 N  pz               85     -0.168902   6 O  px        

 Vector   72  Occ=2.000000D+00  E=-4.480440D-01
              MO Center= -1.3D+00,  7.0D-01, -1.3D+00, r^2= 4.1D+00
   Bfn.  Coefficient  Atom+Function         Bfn.  Coefficient  Atom+Function  
  ----- ------------  ---------------      ----- ------------  ---------------
    83      0.459294   6 O  py               86      0.364255   6 O  py        
    13     -0.241079   2 C  s                84      0.189676   6 O  pz        
    18      0.178608   2 C  py               15      0.166065   2 C  py        
   607      0.166643  36 C  s               254      0.164501  16 O  pz        
    87      0.161792   6 O  pz        

 Vector   73  Occ=2.000000D+00  E=-4.311581D-01
              MO Center=  1.2D+00,  1.8D+00, -2.6D-01, r^2= 6.7D+00
   Bfn.  Coefficient  Atom+Function         Bfn.  Coefficient  Atom+Function  
  ----- ------------  ---------------      ----- ------------  ---------------
   635      0.361539  37 O  pz              638      0.286567  37 O  pz        
   254     -0.282225  16 O  pz              333      0.272615  20 H  s         
   279      0.234488  17 N  pz              282      0.224427  17 N  pz        
   257     -0.219088  16 O  pz              309     -0.171173  19 C  s         
    83      0.167621   6 O  py        

 Vector   74  Occ=2.000000D+00  E=-4.070730D-01
              MO Center= -5.9D-01,  2.0D+00, -8.6D-02, r^2= 5.7D+00
   Bfn.  Coefficient  Atom+Function         Bfn.  Coefficient  Atom+Function  
  ----- ------------  ---------------      ----- ------------  ---------------
   252      0.348639  16 O  px              255      0.272222  16 O  px        
   107     -0.229902   7 N  px              139      0.224104   9 C  s         
   144      0.224920   9 C  px              110     -0.209375   7 N  px        
   163     -0.191607  10 H  s               141      0.179966   9 C  px        
   635      0.177787  37 O  pz              309     -0.175261  19 C  s         

 Vector   75  Occ=2.000000D+00  E=-3.897168D-01
              MO Center=  2.5D+00,  1.2D+00, -1.3D+00, r^2= 2.7D+00
   Bfn.  Coefficient  Atom+Function         Bfn.  Coefficient  Atom+Function  
  ----- ------------  ---------------      ----- ------------  ---------------
   659     -0.430272  38 N  py              634      0.391200  37 O  py        
   662     -0.376287  38 N  py              637      0.314437  37 O  py        
   276     -0.245080  17 N  s               333      0.152101  20 H  s         

 Vector   76  Occ=2.000000D+00  E=-3.816014D-01
              MO Center=  1.5D+00,  1.7D+00, -8.8D-03, r^2= 4.9D+00
   Bfn.  Coefficient  Atom+Function         Bfn.  Coefficient  Atom+Function  
  ----- ------------  ---------------      ----- ------------  ---------------
   279      0.341081  17 N  pz              635     -0.339050  37 O  pz        
   282      0.323480  17 N  pz              638     -0.268053  37 O  pz        
   254     -0.243263  16 O  pz              257     -0.193115  16 O  pz        
   313     -0.175578  19 C  pz        

 Vector   77  Occ=2.000000D+00  E=-3.545984D-01
              MO Center=  6.0D-01, -2.4D+00,  4.5D-01, r^2= 3.6D+00
   Bfn.  Coefficient  Atom+Function         Bfn.  Coefficient  Atom+Function  
  ----- ------------  ---------------      ----- ------------  ---------------
   300      0.223463  18 H  s                56      0.203400   5 C  s         
   540      0.187770  32 C  px              541     -0.181946  32 C  py        
   447     -0.179082  27 C  px              574      0.175446  34 C  px        
   413     -0.170925  25 C  px              575     -0.170927  34 C  py        
   448      0.168140  27 C  py              414      0.160099  25 C  py        

 Vector   78  Occ=2.000000D+00  E=-3.225440D-01
              MO Center=  5.1D-01, -2.4D+00,  5.3D-01, r^2= 4.1D+00
   Bfn.  Coefficient  Atom+Function         Bfn.  Coefficient  Atom+Function  
  ----- ------------  ---------------      ----- ------------  ---------------
    12      0.244103   2 C  s               391      0.211987  24 C  px        
   388      0.206665  24 C  px              481     -0.191438  29 C  px        
   389     -0.180979  24 C  py               45     -0.179035   4 H  s         
   482      0.174357  29 C  py              485      0.164218  29 C  py        
   506      0.158327  30 O  px        

 Vector   79  Occ=0.000000D+00  E= 1.408984D-02
              MO Center= -3.8D+00, -1.7D+00,  2.0D+00, r^2= 2.0D+01
   Bfn.  Coefficient  Atom+Function         Bfn.  Coefficient  Atom+Function  
  ----- ------------  ---------------      ----- ------------  ---------------
   300      7.005102  18 H  s               226      3.624898  15 C  s         
   446     -3.324415  27 C  s               387      2.768390  24 C  s         
   470     -2.705783  28 H  s               147     -2.316429   9 C  px        
   453     -2.124417  27 C  px              233     -1.973927  15 C  px        
   174     -1.717213  11 C  s               394     -1.561004  24 C  px        

 Vector   80  Occ=0.000000D+00  E= 2.810700D-02
              MO Center= -3.9D+00, -1.4D+00,  1.1D+00, r^2= 3.2D+01
   Bfn.  Coefficient  Atom+Function         Bfn.  Coefficient  Atom+Function  
  ----- ------------  ---------------      ----- ------------  ---------------
   233      3.582245  15 C  px              539      3.045641  32 C  s         
   216      2.688305  14 H  s               300     -2.676724  18 H  s         
   470     -2.457970  28 H  s               234     -2.151842  15 C  py        
   147      1.869319   9 C  px              395     -1.848926  24 C  py        
   446     -1.817613  27 C  s               318     -1.804949  19 C  py        

 Vector   81  Occ=0.000000D+00  E= 3.077879D-02
              MO Center= -2.3D+00, -1.3D+00,  1.8D+00, r^2= 3.2D+01
   Bfn.  Coefficient  Atom+Function         Bfn.  Coefficient  Atom+Function  
  ----- ------------  ---------------      ----- ------------  ---------------
   412     -3.454095  25 C  s               480      3.433039  29 C  s         
   300      3.410623  18 H  s               436     -2.955769  26 H  s         
   607     -2.869797  36 C  s                 3      2.500391   1 H  s         
   198     -2.251514  12 H  s                64      2.215544   5 C  py        
   421      2.203352  25 C  pz              420      2.107460  25 C  py        

 Vector   82  Occ=0.000000D+00  E= 4.136808D-02
              MO Center=  4.2D-01, -1.5D+00, -4.9D-01, r^2= 3.8D+01
   Bfn.  Coefficient  Atom+Function         Bfn.  Coefficient  Atom+Function  
  ----- ------------  ---------------      ----- ------------  ---------------
   446      5.682395  27 C  s               539     -4.748531  32 C  s         
   480      3.572934  29 C  s               563     -3.545015  33 H  s         
   396     -3.387375  24 C  pz              548     -3.152073  32 C  pz        
   300      2.978411  18 H  s               489     -2.375884  29 C  pz        
   420      2.295613  25 C  py              470      2.261070  28 H  s         

 Vector   83  Occ=0.000000D+00  E= 4.557501D-02
              MO Center= -3.6D+00,  7.4D-01,  6.2D-01, r^2= 3.9D+01
   Bfn.  Coefficient  Atom+Function         Bfn.  Coefficient  Atom+Function  
  ----- ------------  ---------------      ----- ------------  ---------------
   233      2.878789  15 C  px              216      2.745138  14 H  s         
   300      2.734878  18 H  s               234     -2.439900  15 C  py        
   539     -2.350260  32 C  s                 3     -2.133663   1 H  s         
   207      2.122007  13 H  s                64     -1.985156   5 C  py        
   446      1.795117  27 C  s               487      1.796737  29 C  px        

 Vector   84  Occ=0.000000D+00  E= 4.901803D-02
              MO Center= -3.3D-02, -1.1D+00, -4.1D-01, r^2= 4.1D+01
   Bfn.  Coefficient  Atom+Function         Bfn.  Coefficient  Atom+Function  
  ----- ------------  ---------------      ----- ------------  ---------------
   387      4.159768  24 C  s               539     -3.824936  32 C  s         
   563     -3.663402  33 H  s                 3      2.796398   1 H  s         
   377      2.454472  23 H  s               548     -2.413593  32 C  pz        
   616     -2.039320  36 C  pz              198     -1.990693  12 H  s         
   226      1.987424  15 C  s               581     -1.896728  34 C  py        

 Vector   85  Occ=0.000000D+00  E= 5.190403D-02
              MO Center= -1.8D+00, -4.0D-01,  1.1D+00, r^2= 4.1D+01
   Bfn.  Coefficient  Atom+Function         Bfn.  Coefficient  Atom+Function  
  ----- ------------  ---------------      ----- ------------  ---------------
   470      5.167282  28 H  s                46     -4.380972   4 H  s         
   387     -3.887320  24 C  s               106      3.222204   7 N  s         
   480     -3.040394  29 C  s                64     -2.910795   5 C  py        
    56     -2.840773   5 C  s               164      2.762316  10 H  s         
   198     -2.708374  12 H  s               657      2.434369  38 N  s         

 Vector   86  Occ=0.000000D+00  E= 5.625337D-02
              MO Center=  4.1D-02,  1.8D-01, -2.0D-01, r^2= 4.3D+01
   Bfn.  Coefficient  Atom+Function         Bfn.  Coefficient  Atom+Function  
  ----- ------------  ---------------      ----- ------------  ---------------
   480      6.238931  29 C  s               300     -3.008709  18 H  s         
   368     -3.016545  22 H  s               317     -2.937261  19 C  px        
   351      2.883528  21 C  px              216     -2.852699  14 H  s         
   581      2.834946  34 C  py              446      2.766186  27 C  s         
   616      2.640884  36 C  pz               37      2.522287   3 H  s         

 Vector   87  Occ=0.000000D+00  E= 6.116444D-02
              MO Center=  5.8D-01,  5.1D-02,  7.0D-02, r^2= 4.1D+01
   Bfn.  Coefficient  Atom+Function         Bfn.  Coefficient  Atom+Function  
  ----- ------------  ---------------      ----- ------------  ---------------
    46      5.294192   4 H  s               539     -4.938755  32 C  s         
   387      4.846254  24 C  s               436     -4.661630  26 H  s         
   421      3.358613  25 C  pz              607     -3.093032  36 C  s         
   377      2.618443  23 H  s                37     -2.390682   3 H  s         
   395     -2.117394  24 C  py              419     -2.076037  25 C  px        

 Vector   88  Occ=0.000000D+00  E= 6.745980D-02
[...]

 Vector  196  Occ=0.000000D+00  E= 4.407590D-01
              MO Center= -5.4D-01, -5.2D-01,  1.9D-01, r^2= 2.0D+01
   Bfn.  Coefficient  Atom+Function         Bfn.  Coefficient  Atom+Function  
  ----- ------------  ---------------      ----- ------------  ---------------
   446     12.121208  27 C  s                56     -9.431554   5 C  s         
   174      7.790668  11 C  s               419      7.542573  25 C  px        
   318      7.379101  19 C  py              106      7.066003   7 N  s         
   319     -6.760630  19 C  pz              412      6.449418  25 C  s         
   547      6.246210  32 C  py               64     -6.191528   5 C  py        

 Vector  197  Occ=0.000000D+00  E= 4.427633D-01
              MO Center=  3.8D-01,  1.4D-01, -2.3D-01, r^2= 2.3D+01
   Bfn.  Coefficient  Atom+Function         Bfn.  Coefficient  Atom+Function  
  ----- ------------  ---------------      ----- ------------  ---------------
   106      9.866640   7 N  s               412     -9.733817  25 C  s         
   573      9.347765  34 C  s               352      7.533376  21 C  py        
    63      7.184048   5 C  px              396      7.161120  24 C  pz        
   387     -6.634480  24 C  s               445     -6.639858  27 C  s         
   446      6.582735  27 C  s               114     -6.436147   7 N  py        

 Vector  198  Occ=0.000000D+00  E= 4.437310D-01
              MO Center= -1.7D-01, -5.2D-03, -3.5D-04, r^2= 2.2D+01
   Bfn.  Coefficient  Atom+Function         Bfn.  Coefficient  Atom+Function  
  ----- ------------  ---------------      ----- ------------  ---------------
   480     13.885611  29 C  s               573     -8.838697  34 C  s         
   607      8.755137  36 C  s                12      7.937637   2 C  s         
   233     -7.265756  15 C  px               65     -7.162735   5 C  pz        
   344     -6.766893  21 C  s                46     -6.420064   4 H  s         
    45     -6.329511   4 H  s               285      5.996486  17 N  pz        

 Vector  199  Occ=0.000000D+00  E= 4.523448D-01
              MO Center= -7.6D-01,  1.0D+00,  2.7D-01, r^2= 2.2D+01
   Bfn.  Coefficient  Atom+Function         Bfn.  Coefficient  Atom+Function  
  ----- ------------  ---------------      ----- ------------  ---------------
   480    -12.660439  29 C  s                12     12.390984   2 C  s         
   233     -8.457121  15 C  px              300     -8.205226  18 H  s         
   226     -8.120133  15 C  s               284      7.834609  17 N  py        
   276      7.422149  17 N  s               412      7.432368  25 C  s         
     2     -7.233001   1 H  s                36     -7.102234   3 H  s         

 Vector  200  Occ=0.000000D+00  E= 4.551019D-01
              MO Center= -9.9D-01,  6.9D-01,  5.2D-02, r^2= 2.0D+01
   Bfn.  Coefficient  Atom+Function         Bfn.  Coefficient  Atom+Function  
  ----- ------------  ---------------      ----- ------------  ---------------
   394     12.721551  24 C  px              300     11.128781  18 H  s         
   344     10.575994  21 C  s               226     -9.946231  15 C  s         
   234      9.576476  15 C  py              446      9.553668  27 C  s         
    56     -9.473055   5 C  s               106     -7.997838   7 N  s         
   148     -7.745914   9 C  py              317     -7.764259  19 C  px        

 Vector  201  Occ=0.000000D+00  E= 4.606218D-01
              MO Center= -8.0D-02,  4.5D-01,  7.5D-02, r^2= 2.1D+01
   Bfn.  Coefficient  Atom+Function         Bfn.  Coefficient  Atom+Function  
  ----- ------------  ---------------      ----- ------------  ---------------
   174     23.941178  11 C  s               300    -18.779694  18 H  s         
   233     15.174727  15 C  px              480    -13.678673  29 C  s         
   412     10.003985  25 C  s                13      9.402715   2 C  s         
   226     -8.488105  15 C  s               607      7.919373  36 C  s         
   387     -7.723191  24 C  s                12      6.990099   2 C  s         

 Vector  202  Occ=0.000000D+00  E= 4.636721D-01
              MO Center=  4.6D-01,  1.5D-01, -1.7D-01, r^2= 1.9D+01
   Bfn.  Coefficient  Atom+Function         Bfn.  Coefficient  Atom+Function  
  ----- ------------  ---------------      ----- ------------  ---------------
   174     11.633099  11 C  s               147      9.200096   9 C  px        
   607     -8.447295  36 C  s               616      8.307317  36 C  pz        
   480     -8.180559  29 C  s               657      7.887310  38 N  s         
    13      6.840968   2 C  s               573      6.556302  34 C  s         
   283      6.039530  17 N  px              234     -5.844521  15 C  py        

 Vector  203  Occ=0.000000D+00  E= 4.680135D-01
              MO Center=  9.8D-02,  4.5D-01, -4.7D-01, r^2= 2.3D+01
   Bfn.  Coefficient  Atom+Function         Bfn.  Coefficient  Atom+Function  
  ----- ------------  ---------------      ----- ------------  ---------------
    13     21.029428   2 C  s               226    -17.038473  15 C  s         
   276     16.991979  17 N  s               607    -16.221673  36 C  s         
   446     15.991998  27 C  s               573     14.737773  34 C  s         
   480    -13.812487  29 C  s                12     11.130201   2 C  s         
   317    -10.804624  19 C  px              300    -10.565474  18 H  s         

 Vector  204  Occ=0.000000D+00  E= 4.706315D-01
              MO Center= -4.7D-01,  4.5D-02,  2.4D-01, r^2= 2.1D+01
   Bfn.  Coefficient  Atom+Function         Bfn.  Coefficient  Atom+Function  
  ----- ------------  ---------------      ----- ------------  ---------------
   480     20.502724  29 C  s               387     16.260256  24 C  s         
   539    -11.557939  32 C  s                56     11.095609   5 C  s         
   412     -8.125937  25 C  s                63      7.404475   5 C  px        
    12      7.193993   2 C  s               300     -7.109416  18 H  s         
   573     -7.018151  34 C  s               343     -6.420319  21 C  s         

 Vector  205  Occ=0.000000D+00  E= 4.742072D-01
              MO Center= -6.9D-01, -8.3D-01, -1.9D-01, r^2= 2.1D+01
   Bfn.  Coefficient  Atom+Function         Bfn.  Coefficient  Atom+Function  
  ----- ------------  ---------------      ----- ------------  ---------------
   412     13.296214  25 C  s               480    -11.224809  29 C  s         
   446     -9.224591  27 C  s               505      7.128186  30 O  s         
   420     -6.771661  25 C  py              174      6.688252  11 C  s         
   538     -6.239484  32 C  s               487      6.025608  29 C  px        
   197     -5.694271  12 H  s               657     -5.578558  38 N  s         

 Vector  206  Occ=0.000000D+00  E= 4.772591D-01
              MO Center=  7.2D-03,  2.8D-01, -3.2D-01, r^2= 2.0D+01
   Bfn.  Coefficient  Atom+Function         Bfn.  Coefficient  Atom+Function  
  ----- ------------  ---------------      ----- ------------  ---------------
   657     20.198348  38 N  s               300    -11.471279  18 H  s         
   174     10.434439  11 C  s               319      9.628993  19 C  pz        
   233     -9.296392  15 C  px              226      9.199538  15 C  s         
    56     -8.572010   5 C  s               114     -7.751868   7 N  py        
   148     -7.632348   9 C  py              446     -7.132513  27 C  s         

 Vector  207  Occ=0.000000D+00  E= 4.805124D-01
              MO Center=  5.3D-02,  5.1D-01,  4.2D-01, r^2= 2.1D+01
   Bfn.  Coefficient  Atom+Function         Bfn.  Coefficient  Atom+Function  
  ----- ------------  ---------------      ----- ------------  ---------------
   387     10.491893  24 C  s               539    -10.058118  32 C  s         
   300     -7.706484  18 H  s               233      6.941066  15 C  px        
   317      5.411539  19 C  px              343     -5.361495  21 C  s         
   435     -4.674400  26 H  s                56      4.190908   5 C  s         
   276     -4.184941  17 N  s               394     -4.079424  24 C  px        

 Vector  208  Occ=0.000000D+00  E= 4.827723D-01
              MO Center=  5.1D-02, -2.0D-01,  7.1D-01, r^2= 2.2D+01
   Bfn.  Coefficient  Atom+Function         Bfn.  Coefficient  Atom+Function  
  ----- ------------  ---------------      ----- ------------  ---------------
   387     21.741234  24 C  s               344     14.291632  21 C  s         
   607    -13.540113  36 C  s               582    -12.248618  34 C  pz        
   319    -10.312891  19 C  pz              539     -9.920498  32 C  s         
   546     -9.254906  32 C  px              376     -7.985982  23 H  s         
   488      7.849819  29 C  py              547     -7.677133  32 C  py        

 Vector  209  Occ=0.000000D+00  E= 4.854407D-01
              MO Center= -6.6D-01, -7.8D-01,  2.2D-02, r^2= 1.9D+01
   Bfn.  Coefficient  Atom+Function         Bfn.  Coefficient  Atom+Function  
  ----- ------------  ---------------      ----- ------------  ---------------
   480     22.118820  29 C  s               539    -19.588562  32 C  s         
   387     13.248027  24 C  s               446     12.055319  27 C  s         
   412    -11.186201  25 C  s               276     -8.255585  17 N  s         
    56      8.126076   5 C  s               420      7.657534  25 C  py        
    12      7.353198   2 C  s               283      6.745936  17 N  px        

 Vector  210  Occ=0.000000D+00  E= 4.895649D-01
              MO Center= -7.0D-01, -7.6D-02,  2.5D-01, r^2= 2.1D+01
   Bfn.  Coefficient  Atom+Function         Bfn.  Coefficient  Atom+Function  
  ----- ------------  ---------------      ----- ------------  ---------------
   607     19.341704  36 C  s               233    -13.144781  15 C  px        
    13    -12.650890   2 C  s               446    -11.586794  27 C  s         
   573    -11.404506  34 C  s                56     11.201723   5 C  s         
   174    -10.990692  11 C  s               387     10.468351  24 C  s         
   234      9.199063  15 C  py              147     -7.712563   9 C  px        

 Vector  211  Occ=0.000000D+00  E= 4.968853D-01
              MO Center= -8.8D-01,  5.2D-01,  2.7D-01, r^2= 2.1D+01
   Bfn.  Coefficient  Atom+Function         Bfn.  Coefficient  Atom+Function  
  ----- ------------  ---------------      ----- ------------  ---------------
   480     13.181866  29 C  s               573    -10.036317  34 C  s         
    56      9.172487   5 C  s               446      8.512152  27 C  s         
   148      8.207306   9 C  py               13      7.115225   2 C  s         
   276     -7.035049  17 N  s               114      6.786535   7 N  py        
   233      6.551776  15 C  px              300     -5.699503  18 H  s         

 Vector  212  Occ=0.000000D+00  E= 5.004075D-01
              MO Center= -4.1D-01,  1.9D-01,  1.3D-01, r^2= 2.1D+01
   Bfn.  Coefficient  Atom+Function         Bfn.  Coefficient  Atom+Function  
  ----- ------------  ---------------      ----- ------------  ---------------
   573    -12.733135  34 C  s               412     12.217633  25 C  s         
   445     10.207638  27 C  s               174     -9.989132  11 C  s         
   538     -9.639457  32 C  s               148      8.298642   9 C  py        
   396     -8.196079  24 C  pz              300      7.976653  18 H  s         
   317      7.958789  19 C  px              657     -7.301595  38 N  s         


 center of mass
 --------------
 x =   0.07415198 y =   0.00816879 z =  -0.02861454

 moments of inertia (a.u.)
 ------------------
        6557.066643844658           0.000000000008          -0.000000000000
           0.000000000008        4732.069790930715          -0.000000000004
          -0.000000000000          -0.000000000004        8809.912213808188

  Mulliken analysis of the total density
  --------------------------------------

    Atom       Charge   Shell Charges
 -----------   ------   -------------------------------------------------------
    1 H    1     0.79   0.77  0.06  0.02  0.03 -0.09
    2 C    6     6.49   2.01  0.66  0.45  0.19  2.07  0.97 -0.06  0.06  0.14
    3 H    1     0.91   0.76  0.21 -0.01  0.03 -0.08
    4 H    1     0.79   0.76  0.06  0.01  0.03 -0.08
    5 C    6     5.14   2.01  0.68  0.09  0.01  1.90  0.36 -0.10  0.24 -0.05
    6 O    8     8.82   2.01  0.82  1.00  0.18  2.80  1.86  0.15  0.02 -0.01
    7 N    7     7.56   2.01  0.72  0.81 -0.13  2.45  1.44  0.17  0.05  0.04
    8 H    1     0.93   0.77  0.19 -0.04  0.05 -0.04
    9 C    6     6.32   2.01  0.66  0.09 -0.00  1.99  1.32 -0.03  0.14  0.14
   10 H    1     1.12   0.78  0.27  0.01  0.03  0.02
   11 C    6     5.83   2.01  0.66  0.30  0.21  2.04  0.59 -0.06  0.07  0.01
   12 H    1     0.91   0.77  0.15  0.04  0.03 -0.08
   13 H    1     0.93   0.76  0.22 -0.01  0.03 -0.08
   14 H    1     0.97   0.77  0.25  0.01  0.03 -0.09
   15 C    6     4.67   2.01  0.68  0.07 -0.05  1.89  0.12  0.02  0.24 -0.30
   16 O    8     8.86   2.01  0.82  1.05  0.21  2.78  1.85  0.14  0.01 -0.01
   17 N    7     7.39   2.01  0.72  0.78 -0.11  2.45  1.41  0.06  0.06  0.02
   18 H    1     0.87   0.76  0.31 -0.04  0.06 -0.21
   19 C    6     6.35   2.01  0.66  0.06 -0.00  1.99  1.28  0.12  0.14  0.09
   20 H    1     1.07   0.77  0.27 -0.01  0.03  0.00
   21 C    6     5.70   2.01  0.66  0.28 -0.08  2.04  0.85 -0.07  0.09 -0.08
   22 H    1     1.01   0.77  0.29 -0.02  0.03 -0.06
   23 H    1     1.14   0.79  0.39 -0.01  0.03 -0.05
   24 C    6     6.08   2.01  0.66  0.22  0.04  2.01  0.74 -0.06  0.12  0.36
   25 C    6     5.42   2.01  0.67  0.41 -0.42  1.99  0.75  0.16  0.09 -0.24
   26 H    1     1.66   0.78  0.86 -0.02  0.03  0.01
   27 C    6     5.37   2.01  0.66  0.32 -0.42  2.02  0.61  0.26  0.09 -0.16
   28 H    1     1.62   0.78  0.79 -0.00  0.03  0.01
   29 C    6     5.27   2.01  0.66  0.12 -0.18  1.93  0.33  0.27  0.17 -0.04
   30 O    8     8.75   2.01  0.80  0.97  0.18  2.84  1.85  0.12  0.01 -0.03
   31 H    1     0.87   0.73  0.04 -0.01  0.08  0.03
   32 C    6     5.38   2.01  0.66  0.22 -0.50  2.02  0.82  0.24  0.09 -0.17
   33 H    1     1.55   0.77  0.73 -0.00  0.03  0.02
   34 C    6     5.25   2.01  0.67  0.20 -0.39  1.99  0.75  0.18  0.09 -0.25
   35 H    1     1.60   0.78  0.78 -0.02  0.03  0.03
   36 C    6     4.60   2.01  0.68  0.08 -0.02  1.89 -0.15  0.02  0.24 -0.14
   37 O    8     8.89   2.01  0.82  1.05  0.20  2.79  1.85  0.16  0.01 -0.00
   38 N    7     7.21   2.01  0.72  0.81 -0.15  2.46  1.23  0.12  0.04 -0.02
   39 H    1     0.86   0.73  0.22 -0.00  0.06 -0.14
   40 H    1     1.03   0.76  0.25 -0.01  0.05 -0.02

       Multipole analysis of the density wrt the origin
       ------------------------------------------------

     L   x y z        total         open         nuclear
     -   - - -        -----         ----         -------
     0   0 0 0     -0.000000      0.000000    156.000000

     1   1 0 0     -3.382008      0.000000      0.000000
     1   0 1 0     -1.952717      0.000000      0.000000
     1   0 0 1      1.349034      0.000000      0.000000

     2   2 0 0    -94.761065      0.000000   1926.000931
     2   1 1 0     -5.199676      0.000000    -20.418045
     2   1 0 1     -2.601101      0.000000     -9.077436
     2   0 2 0   -102.157039      0.000000   2844.927183
     2   0 1 1     -2.130826      0.000000     17.171499
     2   0 0 2    -89.327020      0.000000    710.226506


 Task  times  cpu:    21542.1s     wall:    21646.0s


                                NWChem Input Module
                                -------------------


 Summary of allocated global arrays
-----------------------------------
  No active global arrays


MA_summarize_allocated_blocks: starting scan ...
MA_summarize_allocated_blocks: scan completed: 0 heap blocks, 0 stack blocks
MA usage statistics:

	allocation statistics:
					      heap	     stack
					      ----	     -----
	current number of blocks	         0	         0
	maximum number of blocks	        16	        14
	current total bytes		         0	         0
	maximum total bytes		    148504	  31456216
	maximum total K-bytes		       149	     31457
	maximum total M-bytes		         1	        32


                                     CITATION
                                     --------
                Please cite the following reference when publishing
                           results obtained with NWChem:

          E. Apra, E. J. Bylaska, W. A. de Jong, N. Govind, K. Kowalski,
       T. P. Straatsma, M. Valiev, H. J. J. van Dam, Y. Alexeev, J. Anchell,
       V. Anisimov, F. W. Aquino, R. Atta-Fynn, J. Autschbach, N. P. Bauman,
     J. C. Becca, D. E. Bernholdt, K. Bhaskaran-Nair, S. Bogatko, P. Borowski,
         J. Boschen, J. Brabec, A. Bruner, E. Cauet, Y. Chen, G. N. Chuev,
      C. J. Cramer, J. Daily, M. J. O. Deegan, T. H. Dunning Jr., M. Dupuis,
   K. G. Dyall, G. I. Fann, S. A. Fischer, A. Fonari, H. Fruchtl, L. Gagliardi,
      J. Garza, N. Gawande, S. Ghosh, K. Glaesemann, A. W. Gotz, J. Hammond,
       V. Helms, E. D. Hermes, K. Hirao, S. Hirata, M. Jacquelin, L. Jensen,
   B. G. Johnson, H. Jonsson, R. A. Kendall, M. Klemm, R. Kobayashi, V. Konkov,
      S. Krishnamoorthy, M. Krishnan, Z. Lin, R. D. Lins, R. J. Littlefield,
      A. J. Logsdail, K. Lopata, W. Ma, A. V. Marenich, J. Martin del Campo,
   D. Mejia-Rodriguez, J. E. Moore, J. M. Mullin, T. Nakajima, D. R. Nascimento,
    J. A. Nichols, P. J. Nichols, J. Nieplocha, A. Otero-de-la-Roza, B. Palmer,
    A. Panyala, T. Pirojsirikul, B. Peng, R. Peverati, J. Pittner, L. Pollack,
   R. M. Richard, P. Sadayappan, G. C. Schatz, W. A. Shelton, D. W. Silverstein,
   D. M. A. Smith, T. A. Soares, D. Song, M. Swart, H. L. Taylor, G. S. Thomas,
            V. Tipparaju, D. G. Truhlar, K. Tsemekhman, T. Van Voorhis,
      A. Vazquez-Mayagoitia, P. Verma, O. Villa, A. Vishnu, K. D. Vogiatzis,
        D. Wang, J. H. Weare, M. J. Williamson, T. L. Windus, K. Wolinski,
        A. T. Wong, Q. Wu, C. Yang, Q. Yu, M. Zacharias, Z. Zhang, Y. Zhao,
                                and R. J. Harrison
                        "NWChem: Past, present, and future
                         J. Chem. Phys. 152, 184102 (2020)
                               doi:10.1063/5.0004997

                                      AUTHORS
                                      -------
  E. Apra, E. J. Bylaska, N. Govind, K. Kowalski, M. Valiev, D. Mejia-Rodriguez,
       A. Kunitsa, N. P. Bauman, A. Panyala, W. A. de Jong, T. P. Straatsma,
   H. J. J. van Dam, D. Wang, T. L. Windus, J. Hammond, J. Autschbach, A. Woods,
    K. Bhaskaran-Nair, J. Brabec, K. Lopata, S. A. Fischer, S. Krishnamoorthy,
     M. Jacquelin, W. Ma, M. Klemm, O. Villa, Y. Chen, V. Anisimov, F. Aquino,
     S. Hirata, M. T. Hackler, E. Hermes, L. Jensen, J. E. Moore, J. C. Becca,
      V. Konjkov, T. Risthaus, M. Malagoli, A. Marenich, A. Otero-de-la-Roza,
        J. Mullin, P. Nichols, R. Peverati, J. Pittner, Y. Zhao, P.-D. Fan,
        A. Fonari, M. J. Williamson, R. J. Harrison, J. R. Rehr, M. Dupuis,
     D. Silverstein, D. M. A. Smith, J. Nieplocha, V. Tipparaju, M. Krishnan,
     B. E. Van Kuiken, A. Vazquez-Mayagoitia, M. Swart, Q. Wu, T. Van Voorhis,
     A. A. Auer, M. Nooijen, L. D. Crosby, E. Brown, G. Cisneros, G. I. Fann,
   H. Fruchtl, J. Garza, K. Hirao, R. A. Kendall, J. A. Nichols, K. Tsemekhman,
    K. Wolinski, J. Anchell, D. E. Bernholdt, P. Borowski, T. Clark, D. Clerc,
   H. Dachsel, M. J. O. Deegan, K. Dyall, D. Elwood, E. Glendening, M. Gutowski,
   A. C. Hess, J. Jaffe, B. G. Johnson, J. Ju, R. Kobayashi, R. Kutteh, Z. Lin,
   R. Littlefield, X. Long, B. Meng, T. Nakajima, S. Niu, L. Pollack, M. Rosing,
   K. Glaesemann, G. Sandrone, M. Stave, H. Taylor, G. Thomas, J. H. van Lenthe,
                               A. T. Wong, Z. Zhang.

 Total times  cpu:    21542.1s     wall:    21646.5s
