export TMOUT=5400
export TMPDIR=/tmp
export PTMPDIR=/tmp/ptmp
 argument  1 = ALA_ILE_2.nw
                                         
                                         


             Northwest Computational Chemistry Package (NWChem) 7.2.0
             --------------------------------------------------------


                    Environmental Molecular Sciences Laboratory
                       Pacific Northwest National Laboratory
                                Richland, WA 99352

                              Copyright (c) 1994-2022
                       Pacific Northwest National Laboratory
                            Battelle Memorial Institute

             NWChem is an open-source computational chemistry package
                        distributed under the terms of the
                      Educational Community License (ECL) 2.0
             A copy of the license is included with this distribution
                              in the LICENSE.TXT file

                                  ACKNOWLEDGMENT
                                  --------------

            This software and its documentation were developed at the
            EMSL at Pacific Northwest National Laboratory, a multiprogram
            national laboratory, operated for the U.S. Department of Energy
            by Battelle under Contract Number DE-AC05-76RL01830. Support
            for this work was provided by the Department of Energy Office
            of Biological and Environmental Research, Office of Basic
            Energy Sciences, and the Office of Advanced Scientific Computing.


           Job information
           ---------------

    hostname        = nova18-33
    program         = /opt/rit/el9/20230413/app/linux-rhel9-x86_64_v3/gcc-11.2.1/nwchem-7.2.0-oxtctbuhfuzyfaoziquq6bki22grib3g/bin/nwchem
    date            = Fri Jun 27 12:27:41 2025

    compiled        = Wed_May_17_23:46:39_2023
    source          = /tmp/root/spack-stage/spack-stage-nwchem-7.2.0-oxtctbuhfuzyfaoziquq6bki22grib3g/spack-src
    nwchem branch   = 7.2.0
    nwchem revision = d0d141fd
    ga revision     = 5.8.0
    use scalapack   = T
    input           = ALA_ILE_2.nw
    prefix          = ALA_ILE_2.
    data base       = ./ALA_ILE_2.db
    status          = startup
    nproc           =        8
    time left       =     -1s



           Memory information
           ------------------

    heap     =   26214398 doubles =    200.0 Mbytes
    stack    =   26214395 doubles =    200.0 Mbytes
    global   =   52428800 doubles =    400.0 Mbytes (distinct from heap & stack)
    total    =  104857593 doubles =    800.0 Mbytes
    verify   = yes
    hardfail = no 


           Directory information
           ---------------------

  0 permanent = .
  0 scratch   = .




                                NWChem Input Module
                                -------------------



 Scaling coordinates for geometry "geometry" by  1.889725989
 (inverse scale =  0.529177249)

 C1  symmetry detected

          ------
          auto-z
          ------
  no constraints, skipping    0.0000000000000000     
  no constraints, skipping    0.0000000000000000     


                             Geometry "geometry" -> ""
                             -------------------------

 Output coordinates in angstroms (scale by  1.889725989 to convert to a.u.)

  No.       Tag          Charge          X              Y              Z
 ---- ---------------- ---------- -------------- -------------- --------------
    1 H                    1.0000    -3.14398623     3.28678346    -0.41506775
    2 C                    6.0000    -2.23323942     3.56309809     0.11556629
    3 H                    1.0000    -2.36151666     3.37543317     1.18032392
    4 H                    1.0000    -2.01870655     4.61629105    -0.05507438
    5 C                    6.0000    -1.09027579     2.72620195    -0.40689329
    6 O                    8.0000    -1.28713325     1.89693705    -1.28577147
    7 N                    7.0000     0.10410722     2.93601739     0.14369975
    8 H                    1.0000     0.17340075     3.63051924     0.86876843
    9 C                    6.0000     1.33558564     2.22559664    -0.22156215
   10 H                    1.0000     1.37948645     2.16284361    -1.31028790
   11 C                    6.0000     2.53028262     3.07244126     0.24425039
   12 H                    1.0000     2.52687133     3.15977150     1.33172719
   13 H                    1.0000     3.45902270     2.59313213    -0.06708647
   14 H                    1.0000     2.48124299     4.06619709    -0.20319845
   15 C                    6.0000     1.37209887     0.77076519     0.30664162
   16 O                    8.0000     2.22445330     0.40259475     1.11516834
   17 N                    7.0000     0.41380261    -0.05544145    -0.11835706
   18 H                    1.0000    -0.26385387     0.31605287    -0.77625650
   19 C                    6.0000     0.31446918    -1.47286017     0.25382436
   20 H                    1.0000     0.46601130    -1.55763358     1.33022088
   21 C                    6.0000    -1.09589049    -2.02234767    -0.07416818
   22 H                    1.0000    -1.28653286    -1.86396142    -1.13691476
   23 C                    6.0000    -1.17948541    -3.53666448     0.20814634
   24 H                    1.0000    -0.45365156    -4.07896147    -0.39754846
   25 H                    1.0000    -0.99230995    -3.73552639     1.26356487
   26 H                    1.0000    -2.16227912    -3.91881134    -0.06083377
   27 C                    6.0000    -2.17492185    -1.26156751     0.73802752
   28 H                    1.0000    -2.03707723    -1.46149051     1.80108427
   29 H                    1.0000    -2.05584728    -0.18928335     0.58351882
   30 C                    6.0000    -3.61889760    -1.60325781     0.34996597
   31 H                    1.0000    -3.75453530    -1.47925229    -0.72548698
   32 H                    1.0000    -3.86254200    -2.62600340     0.63558262
   33 H                    1.0000    -4.29960744    -0.92935816     0.87117072
   34 C                    6.0000     1.43047501    -2.26558595    -0.44472115
   35 O                    8.0000     1.48153184    -2.35604580    -1.66572738
   36 N                    7.0000     2.32953742    -2.87489338     0.31553225
   37 H                    1.0000     3.06819581    -3.38283556    -0.14155474
   38 H                    1.0000     2.31406423    -2.74648995     1.31340155

      Atomic Mass 
      ----------- 

      H                  1.007825
      C                 12.000000
      O                 15.994910
      N                 14.003070


 Effective nuclear repulsion energy (a.u.)    1326.6313795278

            Nuclear Dipole moment (a.u.) 
            ----------------------------
        X                 Y               Z
 ---------------- ---------------- ----------------
    -0.0000000000     0.0000000000    -0.0000000000



                                Z-matrix (autoz)
                                -------- 

 Units are Angstrom for bonds and degrees for angles

      Type          Name      I     J     K     L     M      Value
      ----------- --------  ----- ----- ----- ----- ----- ----------
    1 Stretch                  1     2                       1.08967
    2 Stretch                  2     3                       1.08875
    3 Stretch                  2     4                       1.08828
    4 Stretch                  2     5                       1.50988
    5 Stretch                  5     6                       1.22428
    6 Stretch                  5     7                       1.33181
    7 Stretch                  7     8                       1.00641
    8 Stretch                  7     9                       1.46787
    9 Stretch                  9    10                       1.09142
   10 Stretch                  9    11                       1.53669
   11 Stretch                  9    15                       1.54818
   12 Stretch                 11    12                       1.09098
   13 Stretch                 11    13                       1.09052
   14 Stretch                 11    14                       1.09095
   15 Stretch                 15    16                       1.23117
   16 Stretch                 15    17                       1.33476
   17 Stretch                 17    18                       1.01492
   18 Stretch                 17    19                       1.46883
   19 Stretch                 19    20                       1.09031
   20 Stretch                 19    21                       1.54875
   21 Stretch                 19    34                       1.53683
   22 Stretch                 21    22                       1.09127
   23 Stretch                 21    23                       1.54267
   24 Stretch                 21    27                       1.55008
   25 Stretch                 23    24                       1.08986
   26 Stretch                 23    25                       1.09018
   27 Stretch                 23    26                       1.08824
   28 Stretch                 27    28                       1.09044
   29 Stretch                 27    29                       1.08988
   30 Stretch                 27    30                       1.53376
   31 Stretch                 30    31                       1.09104
   32 Stretch                 30    32                       1.08947
   33 Stretch                 30    33                       1.09049
   34 Stretch                 34    35                       1.22542
   35 Stretch                 34    36                       1.32573
   36 Stretch                 36    37                       1.00626
   37 Stretch                 36    38                       1.00622
   38 Bend                     1     2     3               109.51494
   39 Bend                     1     2     4               109.49994
   40 Bend                     1     2     5               108.88300
   41 Bend                     2     5     6               120.14080
   42 Bend                     2     5     7               116.64761
   43 Bend                     3     2     4               110.08280
   44 Bend                     3     2     5               109.39333
   45 Bend                     4     2     5               109.44657
   46 Bend                     5     7     8               117.92462
   47 Bend                     5     7     9               124.97801
   48 Bend                     6     5     7               123.20890
   49 Bend                     7     9    10               108.04701
   50 Bend                     7     9    11               108.06526
   51 Bend                     7     9    15               112.93496
   52 Bend                     8     7     9               117.09682
   53 Bend                     9    11    12               110.11063
   54 Bend                     9    11    13               109.47272
   55 Bend                     9    11    14               110.04225
   56 Bend                     9    15    16               121.42584
   57 Bend                     9    15    17               117.13603
   58 Bend                    10     9    11               107.62543
   59 Bend                    10     9    15               106.58020
   60 Bend                    11     9    15               113.33449
   61 Bend                    12    11    13               108.80953
   62 Bend                    12    11    14               109.61951
   63 Bend                    13    11    14               108.75706
   64 Bend                    15    17    18               117.33587
   65 Bend                    15    17    19               124.41631
   66 Bend                    16    15    17               121.40273
   67 Bend                    17    19    20               108.40808
   68 Bend                    17    19    21               110.50556
   69 Bend                    17    19    34               109.48022
   70 Bend                    18    17    19               118.18499
   71 Bend                    19    21    22               108.29063
   72 Bend                    19    21    23               111.03033
   73 Bend                    19    21    27               110.41463
   74 Bend                    19    34    35               121.41506
   75 Bend                    19    34    36               117.96149
   76 Bend                    20    19    21               107.94235
   77 Bend                    20    19    34               107.92060
   78 Bend                    21    19    34               112.45852
   79 Bend                    21    23    24               110.52676
   80 Bend                    21    23    25               110.29927
   81 Bend                    21    23    26               110.39007
   82 Bend                    21    27    28               109.44065
   83 Bend                    21    27    29               109.42301
   84 Bend                    21    27    30               114.42188
   85 Bend                    22    21    23               108.13313
   86 Bend                    22    21    27               108.50766
   87 Bend                    23    21    27               110.37533
   88 Bend                    24    23    25               109.44642
   89 Bend                    24    23    26               106.81960
   90 Bend                    25    23    26               109.28629
   91 Bend                    27    30    31               109.94512
   92 Bend                    27    30    32               110.69234
   93 Bend                    27    30    33               109.21309
   94 Bend                    28    27    29               107.74470
   95 Bend                    28    27    30               108.95511
   96 Bend                    29    27    30               106.62897
   97 Bend                    31    30    32               109.71303
   98 Bend                    31    30    33               108.86171
   99 Bend                    32    30    33               108.37479
  100 Bend                    34    36    37               117.99057
  101 Bend                    34    36    38               119.97525
  102 Bend                    35    34    36               120.61148
  103 Bend                    37    36    38               121.74781
  104 Torsion                  1     2     5     6          -0.31597
  105 Torsion                  1     2     5     7        -179.73787
  106 Torsion                  2     5     7     8           0.13874
  107 Torsion                  2     5     7     9         179.86137
  108 Torsion                  3     2     5     6         119.33392
  109 Torsion                  3     2     5     7         -60.08798
  110 Torsion                  4     2     5     6        -119.97925
  111 Torsion                  4     2     5     7          60.59885
  112 Torsion                  5     7     9    10          43.72750
  113 Torsion                  5     7     9    11         159.91125
  114 Torsion                  5     7     9    15         -73.90207
  115 Torsion                  6     5     7     8        -179.26374
  116 Torsion                  6     5     7     9           0.45890
  117 Torsion                  7     9    11    12          63.66579
  118 Torsion                  7     9    11    13        -176.75302
  119 Torsion                  7     9    11    14         -57.27825
  120 Torsion                  7     9    15    16        -117.17865
  121 Torsion                  7     9    15    17          60.68629
  122 Torsion                  8     7     9    10        -136.54778
  123 Torsion                  8     7     9    11         -20.36404
  124 Torsion                  8     7     9    15         105.82265
  125 Torsion                  9    15    17    18           1.38445
  126 Torsion                  9    15    17    19         178.44185
  127 Torsion                 10     9    11    12        -179.87625
  128 Torsion                 10     9    11    13         -60.29507
  129 Torsion                 10     9    11    14          59.17971
  130 Torsion                 10     9    15    16         124.33391
  131 Torsion                 10     9    15    17         -57.80115
  132 Torsion                 11     9    15    16           6.13661
  133 Torsion                 11     9    15    17        -175.99845
  134 Torsion                 12    11     9    15         -62.28654
  135 Torsion                 13    11     9    15          57.29464
  136 Torsion                 14    11     9    15         176.76941
  137 Torsion                 15    17    19    20          45.92368
  138 Torsion                 15    17    19    21         164.02984
  139 Torsion                 15    17    19    34         -71.57375
  140 Torsion                 16    15    17    18         179.24991
  141 Torsion                 16    15    17    19          -3.69269
  142 Torsion                 17    19    21    22          56.95467
  143 Torsion                 17    19    21    23         175.52653
  144 Torsion                 17    19    21    27         -61.71436
  145 Torsion                 17    19    34    35         -63.58874
  146 Torsion                 17    19    34    36         117.66293
  147 Torsion                 18    17    19    20        -137.04199
  148 Torsion                 18    17    19    21         -18.93582
  149 Torsion                 18    17    19    34         105.46058
  150 Torsion                 19    21    23    24         -59.92347
  151 Torsion                 19    21    23    25          61.24341
  152 Torsion                 19    21    23    26        -177.87997
  153 Torsion                 19    21    27    28         -65.06223
  154 Torsion                 19    21    27    29          52.78791
  155 Torsion                 19    21    27    30         172.35039
  156 Torsion                 19    34    36    37        -179.12026
  157 Torsion                 19    34    36    38          -5.15828
  158 Torsion                 20    19    21    22         175.34541
  159 Torsion                 20    19    21    23         -66.08273
  160 Torsion                 20    19    21    27          56.67638
  161 Torsion                 20    19    34    35         178.60854
  162 Torsion                 20    19    34    36          -0.13978
  163 Torsion                 21    19    34    35          59.66048
  164 Torsion                 21    19    34    36        -119.08784
  165 Torsion                 21    27    30    31         -52.99205
  166 Torsion                 21    27    30    32          68.38340
  167 Torsion                 21    27    30    33        -172.37613
  168 Torsion                 22    21    19    34         -65.71925
  169 Torsion                 22    21    23    24          58.74336
  170 Torsion                 22    21    23    25         179.91025
  171 Torsion                 22    21    23    26         -59.21314
  172 Torsion                 22    21    27    28         176.40114
  173 Torsion                 22    21    27    29         -65.74872
  174 Torsion                 22    21    27    30          53.81375
  175 Torsion                 23    21    19    34          52.85261
  176 Torsion                 23    21    27    28          58.07878
  177 Torsion                 23    21    27    29         175.92893
  178 Torsion                 23    21    27    30         -64.50860
  179 Torsion                 24    23    21    27         177.29472
  180 Torsion                 25    23    21    27         -61.53840
  181 Torsion                 26    23    21    27          59.33822
  182 Torsion                 27    21    19    34         175.61172
  183 Torsion                 28    27    30    31        -175.84259
  184 Torsion                 28    27    30    32         -54.46714
  185 Torsion                 28    27    30    33          64.77333
  186 Torsion                 29    27    30    31          68.12416
  187 Torsion                 29    27    30    32        -170.50039
  188 Torsion                 29    27    30    33         -51.25992
  189 Torsion                 35    34    36    37           2.12091
  190 Torsion                 35    34    36    38         176.08289


            XYZ format geometry
            -------------------
    38
 geometry
 H                    -3.14398623     3.28678346    -0.41506775
 C                    -2.23323942     3.56309809     0.11556629
 H                    -2.36151666     3.37543317     1.18032392
 H                    -2.01870655     4.61629105    -0.05507438
 C                    -1.09027579     2.72620195    -0.40689329
 O                    -1.28713325     1.89693705    -1.28577147
 N                     0.10410722     2.93601739     0.14369975
 H                     0.17340075     3.63051924     0.86876843
 C                     1.33558564     2.22559664    -0.22156215
 H                     1.37948645     2.16284361    -1.31028790
 C                     2.53028262     3.07244126     0.24425039
 H                     2.52687133     3.15977150     1.33172719
 H                     3.45902270     2.59313213    -0.06708647
 H                     2.48124299     4.06619709    -0.20319845
 C                     1.37209887     0.77076519     0.30664162
 O                     2.22445330     0.40259475     1.11516834
 N                     0.41380261    -0.05544145    -0.11835706
 H                    -0.26385387     0.31605287    -0.77625650
 C                     0.31446918    -1.47286017     0.25382436
 H                     0.46601130    -1.55763358     1.33022088
 C                    -1.09589049    -2.02234767    -0.07416818
 H                    -1.28653286    -1.86396142    -1.13691476
 C                    -1.17948541    -3.53666448     0.20814634
 H                    -0.45365156    -4.07896147    -0.39754846
 H                    -0.99230995    -3.73552639     1.26356487
 H                    -2.16227912    -3.91881134    -0.06083377
 C                    -2.17492185    -1.26156751     0.73802752
 H                    -2.03707723    -1.46149051     1.80108427
 H                    -2.05584728    -0.18928335     0.58351882
 C                    -3.61889760    -1.60325781     0.34996597
 H                    -3.75453530    -1.47925229    -0.72548698
 H                    -3.86254200    -2.62600340     0.63558262
 H                    -4.29960744    -0.92935816     0.87117072
 C                     1.43047501    -2.26558595    -0.44472115
 O                     1.48153184    -2.35604580    -1.66572738
 N                     2.32953742    -2.87489338     0.31553225
 H                     3.06819581    -3.38283556    -0.14155474
 H                     2.31406423    -2.74648995     1.31340155

 ==============================================================================
                                internuclear distances
 ------------------------------------------------------------------------------
       center one      |      center two      | atomic units |  angstroms
 ------------------------------------------------------------------------------
    2 C                |   1 H                |     2.05918  |     1.08967
    3 H                |   2 C                |     2.05744  |     1.08875
    4 H                |   2 C                |     2.05656  |     1.08828
    5 C                |   2 C                |     2.85325  |     1.50988
    6 O                |   5 C                |     2.31355  |     1.22428
    7 N                |   5 C                |     2.51676  |     1.33181
    8 H                |   7 N                |     1.90184  |     1.00641
    9 C                |   7 N                |     2.77388  |     1.46787
   10 H                |   9 C                |     2.06248  |     1.09142
   11 C                |   9 C                |     2.90393  |     1.53669
   12 H                |  11 C                |     2.06166  |     1.09098
   13 H                |  11 C                |     2.06078  |     1.09052
   14 H                |  11 C                |     2.06159  |     1.09095
   15 C                |   9 C                |     2.92564  |     1.54818
   16 O                |  15 C                |     2.32657  |     1.23117
   17 N                |  15 C                |     2.52232  |     1.33476
   18 H                |  17 N                |     1.91792  |     1.01492
   19 C                |  17 N                |     2.77569  |     1.46883
   20 H                |  19 C                |     2.06039  |     1.09031
   21 C                |  19 C                |     2.92672  |     1.54875
   22 H                |  21 C                |     2.06219  |     1.09127
   23 C                |  21 C                |     2.91523  |     1.54267
   24 H                |  23 C                |     2.05953  |     1.08986
   25 H                |  23 C                |     2.06014  |     1.09018
   26 H                |  23 C                |     2.05648  |     1.08824
   27 C                |  21 C                |     2.92923  |     1.55008
   28 H                |  27 C                |     2.06063  |     1.09044
   29 H                |  27 C                |     2.05958  |     1.08988
   30 C                |  27 C                |     2.89838  |     1.53376
   31 H                |  30 C                |     2.06177  |     1.09104
   32 H                |  30 C                |     2.05880  |     1.08947
   33 H                |  30 C                |     2.06072  |     1.09049
   34 C                |  19 C                |     2.90419  |     1.53683
   35 O                |  34 C                |     2.31570  |     1.22542
   36 N                |  34 C                |     2.50526  |     1.32573
   37 H                |  36 N                |     1.90155  |     1.00626
   38 H                |  36 N                |     1.90147  |     1.00622
 ------------------------------------------------------------------------------
                         number of included internuclear distances:         37
 ==============================================================================



 ==============================================================================
                                 internuclear angles
 ------------------------------------------------------------------------------
        center 1       |       center 2       |       center 3       |  degrees
 ------------------------------------------------------------------------------
    1 H                |   2 C                |   3 H                |   109.51
    1 H                |   2 C                |   4 H                |   109.50
    1 H                |   2 C                |   5 C                |   108.88
    3 H                |   2 C                |   4 H                |   110.08
    3 H                |   2 C                |   5 C                |   109.39
    4 H                |   2 C                |   5 C                |   109.45
    2 C                |   5 C                |   6 O                |   120.14
    2 C                |   5 C                |   7 N                |   116.65
    6 O                |   5 C                |   7 N                |   123.21
    5 C                |   7 N                |   8 H                |   117.92
    5 C                |   7 N                |   9 C                |   124.98
    8 H                |   7 N                |   9 C                |   117.10
    7 N                |   9 C                |  10 H                |   108.05
    7 N                |   9 C                |  11 C                |   108.07
    7 N                |   9 C                |  15 C                |   112.93
   10 H                |   9 C                |  11 C                |   107.63
   10 H                |   9 C                |  15 C                |   106.58
   11 C                |   9 C                |  15 C                |   113.33
    9 C                |  11 C                |  12 H                |   110.11
    9 C                |  11 C                |  13 H                |   109.47
    9 C                |  11 C                |  14 H                |   110.04
   12 H                |  11 C                |  13 H                |   108.81
   12 H                |  11 C                |  14 H                |   109.62
   13 H                |  11 C                |  14 H                |   108.76
    9 C                |  15 C                |  16 O                |   121.43
    9 C                |  15 C                |  17 N                |   117.14
   16 O                |  15 C                |  17 N                |   121.40
   15 C                |  17 N                |  18 H                |   117.34
   15 C                |  17 N                |  19 C                |   124.42
   18 H                |  17 N                |  19 C                |   118.18
   17 N                |  19 C                |  20 H                |   108.41
   17 N                |  19 C                |  21 C                |   110.51
   17 N                |  19 C                |  34 C                |   109.48
   20 H                |  19 C                |  21 C                |   107.94
   20 H                |  19 C                |  34 C                |   107.92
   21 C                |  19 C                |  34 C                |   112.46
   19 C                |  21 C                |  22 H                |   108.29
   19 C                |  21 C                |  23 C                |   111.03
   19 C                |  21 C                |  27 C                |   110.41
   22 H                |  21 C                |  23 C                |   108.13
   22 H                |  21 C                |  27 C                |   108.51
   23 C                |  21 C                |  27 C                |   110.38
   21 C                |  23 C                |  24 H                |   110.53
   21 C                |  23 C                |  25 H                |   110.30
   21 C                |  23 C                |  26 H                |   110.39
   24 H                |  23 C                |  25 H                |   109.45
   24 H                |  23 C                |  26 H                |   106.82
   25 H                |  23 C                |  26 H                |   109.29
   21 C                |  27 C                |  28 H                |   109.44
   21 C                |  27 C                |  29 H                |   109.42
   21 C                |  27 C                |  30 C                |   114.42
   28 H                |  27 C                |  29 H                |   107.74
   28 H                |  27 C                |  30 C                |   108.96
   29 H                |  27 C                |  30 C                |   106.63
   27 C                |  30 C                |  31 H                |   109.95
   27 C                |  30 C                |  32 H                |   110.69
   27 C                |  30 C                |  33 H                |   109.21
   31 H                |  30 C                |  32 H                |   109.71
   31 H                |  30 C                |  33 H                |   108.86
   32 H                |  30 C                |  33 H                |   108.37
   19 C                |  34 C                |  35 O                |   121.42
   19 C                |  34 C                |  36 N                |   117.96
   35 O                |  34 C                |  36 N                |   120.61
   34 C                |  36 N                |  37 H                |   117.99
   34 C                |  36 N                |  38 H                |   119.98
   37 H                |  36 N                |  38 H                |   121.75
 ------------------------------------------------------------------------------
                            number of included internuclear angles:         66
 ==============================================================================



  library name resolved from: environment
  library file name is: </opt/rit/el9/20230413/app/linux-rhel9-x86_64_v3/gcc-11.2.1/nwchem-7.2.0-oxtctbuhfuzyfaoziquq6bki22grib3g/share/nwchem/libraries/>
  


 Summary of "ao basis" -> "" (cartesian)
 ------------------------------------------------------------------------------
       Tag                 Description            Shells   Functions and Types
 ---------------- ------------------------------  ------  ---------------------
 *                        aug-cc-pvdz                 on all atoms 


                      Basis "ao basis" -> "ao basis" (cartesian)
                      -----
  H (Hydrogen)
  ------------
            Exponent  Coefficients 
       -------------- ---------------------------------------------------------
  1 S  1.30100000E+01  0.019685
  1 S  1.96200000E+00  0.137977
  1 S  4.44600000E-01  0.478148

  2 S  1.22000000E-01  1.000000

  3 S  2.97400000E-02  1.000000

  4 P  7.27000000E-01  1.000000

  5 P  1.41000000E-01  1.000000

  C (Carbon)
  ----------
            Exponent  Coefficients 
       -------------- ---------------------------------------------------------
  1 S  6.66500000E+03  0.000692
  1 S  1.00000000E+03  0.005329
  1 S  2.28000000E+02  0.027077
  1 S  6.47100000E+01  0.101718
  1 S  2.10600000E+01  0.274740
  1 S  7.49500000E+00  0.448564
  1 S  2.79700000E+00  0.285074
  1 S  5.21500000E-01  0.015204

  2 S  6.66500000E+03 -0.000146
  2 S  1.00000000E+03 -0.001154
  2 S  2.28000000E+02 -0.005725
  2 S  6.47100000E+01 -0.023312
  2 S  2.10600000E+01 -0.063955
  2 S  7.49500000E+00 -0.149981
  2 S  2.79700000E+00 -0.127262
  2 S  5.21500000E-01  0.544529

  3 S  1.59600000E-01  1.000000

  4 S  4.69000000E-02  1.000000

  5 P  9.43900000E+00  0.038109
  5 P  2.00200000E+00  0.209480
  5 P  5.45600000E-01  0.508557

  6 P  1.51700000E-01  1.000000

  7 P  4.04100000E-02  1.000000

  8 D  5.50000000E-01  1.000000

  9 D  1.51000000E-01  1.000000

  O (Oxygen)
  ----------
            Exponent  Coefficients 
       -------------- ---------------------------------------------------------
  1 S  1.17200000E+04  0.000710
  1 S  1.75900000E+03  0.005470
  1 S  4.00800000E+02  0.027837
  1 S  1.13700000E+02  0.104800
  1 S  3.70300000E+01  0.283062
  1 S  1.32700000E+01  0.448719
  1 S  5.02500000E+00  0.270952
  1 S  1.01300000E+00  0.015458

  2 S  1.17200000E+04 -0.000160
  2 S  1.75900000E+03 -0.001263
  2 S  4.00800000E+02 -0.006267
  2 S  1.13700000E+02 -0.025716
  2 S  3.70300000E+01 -0.070924
  2 S  1.32700000E+01 -0.165411
  2 S  5.02500000E+00 -0.116955
  2 S  1.01300000E+00  0.557368

  3 S  3.02300000E-01  1.000000

  4 S  7.89600000E-02  1.000000

  5 P  1.77000000E+01  0.043018
  5 P  3.85400000E+00  0.228913
  5 P  1.04600000E+00  0.508728

  6 P  2.75300000E-01  1.000000

  7 P  6.85600000E-02  1.000000

  8 D  1.18500000E+00  1.000000

  9 D  3.32000000E-01  1.000000

  N (Nitrogen)
  ------------
            Exponent  Coefficients 
       -------------- ---------------------------------------------------------
  1 S  9.04600000E+03  0.000700
  1 S  1.35700000E+03  0.005389
  1 S  3.09300000E+02  0.027406
  1 S  8.77300000E+01  0.103207
  1 S  2.85600000E+01  0.278723
  1 S  1.02100000E+01  0.448540
  1 S  3.83800000E+00  0.278238
  1 S  7.46600000E-01  0.015440

  2 S  9.04600000E+03 -0.000153
  2 S  1.35700000E+03 -0.001208
  2 S  3.09300000E+02 -0.005992
  2 S  8.77300000E+01 -0.024544
  2 S  2.85600000E+01 -0.067459
  2 S  1.02100000E+01 -0.158078
  2 S  3.83800000E+00 -0.121831
  2 S  7.46600000E-01  0.549003

  3 S  2.24800000E-01  1.000000

  4 S  6.12400000E-02  1.000000

  5 P  1.35500000E+01  0.039919
  5 P  2.91700000E+00  0.217169
  5 P  7.97300000E-01  0.510319

  6 P  2.18500000E-01  1.000000

  7 P  5.61100000E-02  1.000000

  8 D  8.17000000E-01  1.000000

  9 D  2.30000000E-01  1.000000



 Summary of "ao basis" -> "ao basis" (cartesian)
 ------------------------------------------------------------------------------
       Tag                 Description            Shells   Functions and Types
 ---------------- ------------------------------  ------  ---------------------
 H                        aug-cc-pvdz                5        9   3s2p
 C                        aug-cc-pvdz                9       25   4s3p2d
 O                        aug-cc-pvdz                9       25   4s3p2d
 N                        aug-cc-pvdz                9       25   4s3p2d


                                 NWChem SCF Module
                                 -----------------



  ao basis        = "ao basis"
  functions       =   614
  atoms           =    38
  closed shells   =    66
  open shells     =     0
  charge          =   0.00
  wavefunction    = RHF 
  input vectors   = atomic
  output vectors  = ./ALA_ILE_2.movecs
  use symmetry    = F
  symmetry adapt  = F


 Summary of "ao basis" -> "ao basis" (cartesian)
 ------------------------------------------------------------------------------
       Tag                 Description            Shells   Functions and Types
 ---------------- ------------------------------  ------  ---------------------
 H                        aug-cc-pvdz                5        9   3s2p
 C                        aug-cc-pvdz                9       25   4s3p2d
 O                        aug-cc-pvdz                9       25   4s3p2d
 N                        aug-cc-pvdz                9       25   4s3p2d



 Forming initial guess at       1.3s


 !! The overlap matrix has   6 vectors deemed linearly dependent with
    eigenvalues:
 1.89D-06 3.76D-06 4.29D-06 6.47D-06 8.38D-06 9.32D-06


      Superposition of Atomic Density Guess
      -------------------------------------

 Sum of atomic energies:        -812.03184720

      Non-variational initial energy
      ------------------------------

 Total energy =    -823.451252
 1-e energy   =   -3737.142738
 2-e energy   =    1587.060107
 HOMO         =      -0.306425
 LUMO         =       0.008461


 Starting SCF solution at     283.1s



 ----------------------------------------------
         Quadratically convergent ROHF

 Convergence threshold     :          1.000E-04
 Maximum no. of iterations :           30
 Final Fock-matrix accuracy:          1.000E-10
 ----------------------------------------------


              iter       energy          gnorm     gmax       time
             ----- ------------------- --------- --------- --------
                 1     -816.5108685217  2.43D+00  1.49D-01    572.6
                 2     -816.8297354261  8.50D-01  5.32D-02   1235.5
                 3     -816.8924125459  6.32D-02  5.20D-03   2075.0
                 4     -816.8930169103  3.87D-03  3.84D-04   3227.0
                 5     -816.8930198828  9.66D-06  6.82D-07   5173.2


       Final RHF  results 
       ------------------ 

         Total SCF energy =   -816.893019882812
      One-electron energy =  -3751.049188735881
      Two-electron energy =   1607.524789325277
 Nuclear repulsion energy =   1326.631379527792

        Time for solution =   4896.2s


             Final eigenvalues
             -----------------

              1      
    1  -20.5419
    2  -20.5244
    3  -20.5110
    4  -15.6157
    5  -15.5867
    6  -15.5836
    7  -11.3718
    8  -11.3539
    9  -11.3443
   10  -11.3027
   11  -11.2861
   12  -11.2557
   13  -11.2430
   14  -11.2418
   15  -11.2262
   16  -11.2213
   17  -11.2195
   18   -1.4069
   19   -1.3825
   20   -1.3713
   21   -1.2626
   22   -1.2320
   23   -1.2122
   24   -1.0954
   25   -1.0650
   26   -1.0069
   27   -1.0020
   28   -0.9570
   29   -0.8898
   30   -0.8760
   31   -0.8248
   32   -0.8059
   33   -0.7762
   34   -0.7735
   35   -0.7309
   36   -0.7177
   37   -0.6963
   38   -0.6845
   39   -0.6744
   40   -0.6540
   41   -0.6324
   42   -0.6289
   43   -0.6112
   44   -0.5992
   45   -0.5917
   46   -0.5850
   47   -0.5801
   48   -0.5725
   49   -0.5582
   50   -0.5515
   51   -0.5439
   52   -0.5360
   53   -0.5340
   54   -0.5281
   55   -0.5231
   56   -0.5138
   57   -0.5038
   58   -0.4699
   59   -0.4668
   60   -0.4590
   61   -0.4477
   62   -0.4365
   63   -0.4213
   64   -0.4033
   65   -0.3967
   66   -0.3781
   67    0.0238
   68    0.0351
   69    0.0380
   70    0.0433
   71    0.0477
   72    0.0515
   73    0.0543
   74    0.0612
   75    0.0635
   76    0.0668

                       ROHF Final Molecular Orbital Analysis
                       -------------------------------------

 Vector   18  Occ=2.000000D+00  E=-1.406864D+00
              MO Center= -9.8D-01,  2.2D+00, -8.2D-01, r^2= 1.3D+00
   Bfn.  Coefficient  Atom+Function         Bfn.  Coefficient  Atom+Function  
  ----- ------------  ---------------      ----- ------------  ---------------
    80      0.347466   6 O  s                79      0.343989   6 O  s         
    54      0.241070   5 C  s                12      0.203640   2 C  s         

 Vector   19  Occ=2.000000D+00  E=-1.382504D+00
              MO Center=  1.6D+00, -1.2D-02,  3.6D-01, r^2= 3.0D+00
   Bfn.  Coefficient  Atom+Function         Bfn.  Coefficient  Atom+Function  
  ----- ------------  ---------------      ----- ------------  ---------------
   250      0.328511  16 O  s               249      0.308975  16 O  s         
   224      0.215740  15 C  s               549      0.161593  35 O  s         

 Vector   20  Occ=2.000000D+00  E=-1.371281D+00
              MO Center=  1.6D+00, -1.8D+00, -7.4D-01, r^2= 2.7D+00
   Bfn.  Coefficient  Atom+Function         Bfn.  Coefficient  Atom+Function  
  ----- ------------  ---------------      ----- ------------  ---------------
   549      0.354459  35 O  s               548      0.317838  35 O  s         
   523      0.225963  34 C  s               250     -0.168079  16 O  s         
   249     -0.161031  16 O  s               574      0.153558  36 N  s         

 Vector   21  Occ=2.000000D+00  E=-1.262614D+00
              MO Center= -1.9D-02,  2.7D+00, -7.9D-02, r^2= 1.8D+00
   Bfn.  Coefficient  Atom+Function         Bfn.  Coefficient  Atom+Function  
  ----- ------------  ---------------      ----- ------------  ---------------
   105      0.413851   7 N  s               104      0.343740   7 N  s         
    80     -0.217697   6 O  s                79     -0.181860   6 O  s         
   128      0.158753   8 H  s         

 Vector   22  Occ=2.000000D+00  E=-1.231977D+00
              MO Center=  6.8D-01, -1.5D-01,  4.9D-02, r^2= 2.2D+00
   Bfn.  Coefficient  Atom+Function         Bfn.  Coefficient  Atom+Function  
  ----- ------------  ---------------      ----- ------------  ---------------
   275      0.453719  17 N  s               274      0.335079  17 N  s         
   309     -0.241406  19 C  s               250     -0.203710  16 O  s         
   249     -0.168509  16 O  s               308      0.152130  19 C  s         
   227     -0.150762  15 C  px        

 Vector   23  Occ=2.000000D+00  E=-1.212162D+00
              MO Center=  2.0D+00, -2.6D+00,  3.5D-03, r^2= 1.6D+00
   Bfn.  Coefficient  Atom+Function         Bfn.  Coefficient  Atom+Function  
  ----- ------------  ---------------      ----- ------------  ---------------
   574      0.371949  36 N  s               573      0.365824  36 N  s         
   309     -0.221041  19 C  s               549     -0.212890  35 O  s         
   528      0.184026  34 C  pz              548     -0.179776  35 O  s         
   606      0.169206  38 H  s               597      0.156508  37 H  s         

 Vector   24  Occ=2.000000D+00  E=-1.095374D+00
              MO Center= -1.0D+00, -1.5D+00,  2.1D-01, r^2= 4.4D+00
   Bfn.  Coefficient  Atom+Function         Bfn.  Coefficient  Atom+Function  
  ----- ------------  ---------------      ----- ------------  ---------------
   309      0.246724  19 C  s               342      0.239948  21 C  s         
   428      0.185769  27 C  s               429      0.153781  27 C  s         

 Vector   25  Occ=2.000000D+00  E=-1.065023D+00
              MO Center=  3.6D-01,  2.3D+00,  1.3D-02, r^2= 6.2D+00
   Bfn.  Coefficient  Atom+Function         Bfn.  Coefficient  Atom+Function  
  ----- ------------  ---------------      ----- ------------  ---------------
   138      0.233167   9 C  s               172      0.192807  11 C  s         
    12     -0.168369   2 C  s               144      0.168066   9 C  px        
   225      0.165937  15 C  s                11     -0.162042   2 C  s         

 Vector   26  Occ=2.000000D+00  E=-1.006858D+00
              MO Center= -1.6D+00,  5.9D-02,  2.6D-01, r^2= 9.3D+00
   Bfn.  Coefficient  Atom+Function         Bfn.  Coefficient  Atom+Function  
  ----- ------------  ---------------      ----- ------------  ---------------
   434     -0.209011  27 C  px              471      0.200329  30 C  s         
    11      0.194513   2 C  s               348     -0.164325  21 C  px        
   428      0.161966  27 C  s               308     -0.159900  19 C  s         
   343      0.160341  21 C  s         

 Vector   27  Occ=2.000000D+00  E=-1.002027D+00
              MO Center= -8.6D-01,  1.8D+00,  1.5D-01, r^2= 1.1D+01
   Bfn.  Coefficient  Atom+Function         Bfn.  Coefficient  Atom+Function  
  ----- ------------  ---------------      ----- ------------  ---------------
    11      0.245134   2 C  s               172      0.177651  11 C  s         
   144      0.167710   9 C  px        

 Vector   28  Occ=2.000000D+00  E=-9.569725D-01
              MO Center= -4.1D-01, -1.9D+00,  1.8D-01, r^2= 7.2D+00
   Bfn.  Coefficient  Atom+Function         Bfn.  Coefficient  Atom+Function  
  ----- ------------  ---------------      ----- ------------  ---------------
   349      0.296226  21 C  py              376     -0.268976  23 C  s         
   314      0.266998  19 C  px              308      0.181429  19 C  s         
   139     -0.175932   9 C  s               343      0.173453  21 C  s         
   145      0.159374   9 C  py        

 Vector   29  Occ=2.000000D+00  E=-8.897556D-01
              MO Center=  1.4D+00,  1.7D+00,  9.3D-02, r^2= 7.4D+00
   Bfn.  Coefficient  Atom+Function         Bfn.  Coefficient  Atom+Function  
  ----- ------------  ---------------      ----- ------------  ---------------
   139      0.316284   9 C  s               145     -0.261447   9 C  py        
   172     -0.237996  11 C  s               225     -0.234354  15 C  s         
   309      0.224815  19 C  s               174     -0.214922  11 C  s         
   138      0.190202   9 C  s               173     -0.186085  11 C  s         

 Vector   30  Occ=2.000000D+00  E=-8.759827D-01
              MO Center= -1.6D+00, -2.0D+00,  2.5D-01, r^2= 5.7D+00
   Bfn.  Coefficient  Atom+Function         Bfn.  Coefficient  Atom+Function  
  ----- ------------  ---------------      ----- ------------  ---------------
   309      0.284020  19 C  s               471      0.214780  30 C  s         
   314      0.193199  19 C  px              472      0.178715  30 C  s         
   376      0.152969  23 C  s         

 Vector   31  Occ=2.000000D+00  E=-8.248234D-01
              MO Center= -2.2D-02,  2.2D+00,  1.3D-02, r^2= 5.8D+00
   Bfn.  Coefficient  Atom+Function         Bfn.  Coefficient  Atom+Function  
  ----- ------------  ---------------      ----- ------------  ---------------
   107      0.262146   7 N  px              139     -0.232285   9 C  s         
   128      0.219321   8 H  s                54     -0.207587   5 C  s         
   309     -0.182172  19 C  s               109      0.170630   7 N  pz        
   105      0.165432   7 N  s                80      0.163308   6 O  s         
    60     -0.157453   5 C  px        

 Vector   32  Occ=2.000000D+00  E=-8.059048D-01
              MO Center=  3.1D-02, -7.4D-01,  1.8D-01, r^2= 9.7D+00
   Bfn.  Coefficient  Atom+Function         Bfn.  Coefficient  Atom+Function  
  ----- ------------  ---------------      ----- ------------  ---------------
   309      0.401884  19 C  s               343     -0.263830  21 C  s         
   429      0.251289  27 C  s               472     -0.196091  30 C  s         
   576     -0.159689  36 N  px              428      0.152330  27 C  s         
   128      0.150463   8 H  s         

 Vector   33  Occ=2.000000D+00  E=-7.761608D-01
              MO Center=  1.1D+00, -9.2D-01,  5.2D-02, r^2= 5.2D+00
   Bfn.  Coefficient  Atom+Function         Bfn.  Coefficient  Atom+Function  
  ----- ------------  ---------------      ----- ------------  ---------------
   225      0.260717  15 C  s               298     -0.240107  18 H  s         
   277      0.204761  17 N  px              333      0.192030  20 H  s         
   578      0.191536  36 N  pz              275     -0.186443  17 N  s         
   279      0.176802  17 N  pz              606      0.170949  38 H  s         
   250     -0.162001  16 O  s         

 Vector   34  Occ=2.000000D+00  E=-7.735136D-01
              MO Center= -6.5D-01, -1.0D+00,  1.7D-01, r^2= 7.8D+00
   Bfn.  Coefficient  Atom+Function         Bfn.  Coefficient  Atom+Function  
  ----- ------------  ---------------      ----- ------------  ---------------
   343      0.486124  21 C  s               377     -0.316273  23 C  s         
   429     -0.299632  27 C  s               342      0.196366  21 C  s         
   366      0.181275  22 H  s               524      0.161253  34 C  s         
   276      0.156421  17 N  s               309     -0.150822  19 C  s         

 Vector   35  Occ=2.000000D+00  E=-7.309435D-01
              MO Center=  1.5D+00, -1.3D+00,  1.3D-01, r^2= 6.6D+00
   Bfn.  Coefficient  Atom+Function         Bfn.  Coefficient  Atom+Function  
  ----- ------------  ---------------      ----- ------------  ---------------
   578      0.310729  36 N  pz              225     -0.277438  15 C  s         
   606      0.268193  38 H  s               145     -0.203556   9 C  py        
   597     -0.197898  37 H  s               315     -0.178632  19 C  py        
   317      0.164771  19 C  px              139      0.154747   9 C  s         
   298      0.153811  18 H  s               607      0.152350  38 H  s         

 Vector   36  Occ=2.000000D+00  E=-7.177427D-01
              MO Center=  7.6D-01,  4.6D-01,  1.7D-01, r^2= 9.0D+00
   Bfn.  Coefficient  Atom+Function         Bfn.  Coefficient  Atom+Function  
  ----- ------------  ---------------      ----- ------------  ---------------
   145      0.343393   9 C  py              139     -0.296288   9 C  s         
   225      0.287961  15 C  s               343      0.269592  21 C  s         
   228     -0.210170  15 C  py              309     -0.173094  19 C  s         
   142      0.156247   9 C  py              109     -0.154657   7 N  pz        
   163      0.153404  10 H  s         

 Vector   37  Occ=2.000000D+00  E=-6.962698D-01
              MO Center= -6.4D-01,  1.7D+00, -2.1D-01, r^2= 7.5D+00
   Bfn.  Coefficient  Atom+Function         Bfn.  Coefficient  Atom+Function  
  ----- ------------  ---------------      ----- ------------  ---------------
    57      0.217871   5 C  px               83     -0.194139   6 O  py        
   309      0.194095  19 C  s                80      0.160386   6 O  s         

 Vector   38  Occ=2.000000D+00  E=-6.845229D-01
              MO Center=  3.0D-01,  1.3D+00, -4.0D-01, r^2= 7.5D+00
   Bfn.  Coefficient  Atom+Function         Bfn.  Coefficient  Atom+Function  
  ----- ------------  ---------------      ----- ------------  ---------------
    84     -0.198780   6 O  pz               80      0.190073   6 O  s         
   144      0.177551   9 C  px              143     -0.176192   9 C  pz        
   162      0.158597  10 H  s               108      0.156174   7 N  py        

 Vector   39  Occ=2.000000D+00  E=-6.743732D-01
              MO Center=  7.3D-01, -5.2D-01, -2.3D-01, r^2= 8.9D+00
   Bfn.  Coefficient  Atom+Function         Bfn.  Coefficient  Atom+Function  
  ----- ------------  ---------------      ----- ------------  ---------------
   313      0.187041  19 C  pz              529      0.165775  34 C  px        
   526      0.161417  34 C  px              576     -0.152991  36 N  px        

 Vector   40  Occ=2.000000D+00  E=-6.539575D-01
              MO Center=  5.4D-01, -7.6D-01,  1.8D-01, r^2= 7.1D+00
   Bfn.  Coefficient  Atom+Function         Bfn.  Coefficient  Atom+Function  
  ----- ------------  ---------------      ----- ------------  ---------------
   309      0.322922  19 C  s               315     -0.285969  19 C  py        
   278      0.231264  17 N  py              312     -0.216112  19 C  py        
   524     -0.187678  34 C  s               250      0.183022  16 O  s         
   333     -0.154391  20 H  s         

 Vector   41  Occ=2.000000D+00  E=-6.323638D-01
              MO Center= -1.1D+00,  2.5D+00,  4.0D-02, r^2= 6.5D+00
   Bfn.  Coefficient  Atom+Function         Bfn.  Coefficient  Atom+Function  
  ----- ------------  ---------------      ----- ------------  ---------------
   139      0.324256   9 C  s                15     -0.211287   2 C  py        
    44     -0.212116   4 H  s               225     -0.199758  15 C  s         
    35      0.196918   3 H  s                16      0.195801   2 C  pz        
    59      0.182015   5 C  pz               83     -0.158154   6 O  py        

 Vector   42  Occ=2.000000D+00  E=-6.288922D-01
              MO Center= -1.6D+00, -1.7D+00,  2.8D-01, r^2= 6.1D+00
   Bfn.  Coefficient  Atom+Function         Bfn.  Coefficient  Atom+Function  
  ----- ------------  ---------------      ----- ------------  ---------------
   432     -0.242749  27 C  py              333      0.223487  20 H  s         
   461     -0.211635  29 H  s               475     -0.190214  30 C  py        
   400     -0.173662  24 H  s               504      0.158621  32 H  s         
   377      0.151264  23 C  s         

 Vector   43  Occ=2.000000D+00  E=-6.111887D-01
              MO Center=  3.7D-01,  5.8D-01,  5.1D-01, r^2= 1.0D+01
   Bfn.  Coefficient  Atom+Function         Bfn.  Coefficient  Atom+Function  
  ----- ------------  ---------------      ----- ------------  ---------------
   254      0.225886  16 O  pz              252      0.209767  16 O  px        
   227     -0.174820  15 C  px              250      0.170330  16 O  s         

 Vector   44  Occ=2.000000D+00  E=-5.992436D-01
              MO Center= -2.8D-03,  1.0D+00, -5.4D-01, r^2= 9.4D+00
   Bfn.  Coefficient  Atom+Function         Bfn.  Coefficient  Atom+Function  
  ----- ------------  ---------------      ----- ------------  ---------------
   553      0.231863  35 O  pz               58      0.197182   5 C  py        
    84     -0.189479   6 O  pz               59      0.172870   5 C  pz        
   528     -0.165433  34 C  pz              549     -0.166016  35 O  s         
    14      0.162919   2 C  px               83     -0.159164   6 O  py        

 Vector   45  Occ=2.000000D+00  E=-5.916740D-01
              MO Center= -3.4D-01, -7.8D-01, -4.8D-01, r^2= 1.1D+01
   Bfn.  Coefficient  Atom+Function         Bfn.  Coefficient  Atom+Function  
  ----- ------------  ---------------      ----- ------------  ---------------
   553      0.295018  35 O  pz              528     -0.218355  34 C  pz        
   549     -0.202376  35 O  s               531     -0.165453  34 C  pz        
   333      0.155622  20 H  s               476     -0.153158  30 C  pz        

 Vector   46  Occ=2.000000D+00  E=-5.849549D-01
              MO Center= -1.4D+00,  1.9D+00,  2.5D-02, r^2= 1.0D+01
   Bfn.  Coefficient  Atom+Function         Bfn.  Coefficient  Atom+Function  
  ----- ------------  ---------------      ----- ------------  ---------------
     2      0.288561   1 H  s                 1      0.275538   1 H  s         
    16     -0.222496   2 C  pz              524     -0.217905  34 C  s         
    14     -0.184901   2 C  px               13     -0.164198   2 C  s         
    35     -0.158246   3 H  s               314      0.155740  19 C  px        

 Vector   47  Occ=2.000000D+00  E=-5.800596D-01
              MO Center= -2.0D-01,  4.2D-01, -2.1D-02, r^2= 1.3D+01
   Bfn.  Coefficient  Atom+Function         Bfn.  Coefficient  Atom+Function  
  ----- ------------  ---------------      ----- ------------  ---------------
   524     -0.275115  34 C  s               314      0.252359  19 C  px        
   315     -0.200670  19 C  py              139     -0.174294   9 C  s         
     1     -0.171193   1 H  s               205     -0.161466  13 H  s         
   553     -0.155485  35 O  pz              206     -0.152558  13 H  s         
     2     -0.150992   1 H  s         

 Vector   48  Occ=2.000000D+00  E=-5.724570D-01
              MO Center= -3.9D-01, -1.4D+00,  2.4D-01, r^2= 1.1D+01
   Bfn.  Coefficient  Atom+Function         Bfn.  Coefficient  Atom+Function  
  ----- ------------  ---------------      ----- ------------  ---------------
   381     -0.207237  23 C  pz              343      0.204113  21 C  s         
   409     -0.197780  25 H  s               410     -0.187070  25 H  s         
   419      0.160275  26 H  s               418      0.157425  26 H  s         

 Vector   49  Occ=2.000000D+00  E=-5.581960D-01
              MO Center=  3.1D-01, -3.3D-01, -1.1D-01, r^2= 1.4D+01
   Bfn.  Coefficient  Atom+Function         Bfn.  Coefficient  Atom+Function  
  ----- ------------  ---------------      ----- ------------  ---------------
   276      0.198914  17 N  s               333     -0.190287  20 H  s         
   214     -0.179749  14 H  s               577     -0.175110  36 N  py        
   176     -0.164815  11 C  py              552     -0.161405  35 O  py        
   513     -0.155434  33 H  s               527     -0.154430  34 C  py        

 Vector   50  Occ=2.000000D+00  E=-5.514990D-01
              MO Center=  5.6D-01,  1.6D+00,  1.4D-01, r^2= 1.2D+01
   Bfn.  Coefficient  Atom+Function         Bfn.  Coefficient  Atom+Function  
  ----- ------------  ---------------      ----- ------------  ---------------
   206      0.283317  13 H  s               205      0.221457  13 H  s         
   177     -0.189797  11 C  pz              139      0.186783   9 C  s         
   196     -0.181480  12 H  s               175      0.177090  11 C  px        
   174     -0.163871  11 C  s                44      0.152041   4 H  s         

 Vector   51  Occ=2.000000D+00  E=-5.439440D-01
              MO Center=  7.7D-01,  8.9D-01,  8.2D-02, r^2= 1.1D+01
   Bfn.  Coefficient  Atom+Function         Bfn.  Coefficient  Atom+Function  
  ----- ------------  ---------------      ----- ------------  ---------------
   176      0.265461  11 C  py              214      0.204031  14 H  s         
   142     -0.179023   9 C  py              174      0.164172  11 C  s         
   314     -0.160244  19 C  px              141     -0.156962   9 C  px        

 Vector   52  Occ=2.000000D+00  E=-5.359815D-01
              MO Center=  2.0D-01,  2.3D+00, -5.6D-02, r^2= 8.6D+00
   Bfn.  Coefficient  Atom+Function         Bfn.  Coefficient  Atom+Function  
  ----- ------------  ---------------      ----- ------------  ---------------
   175      0.237524  11 C  px              205      0.220042  13 H  s         
    55     -0.181986   5 C  s               206      0.175267  13 H  s         
   107      0.167001   7 N  px               12      0.165625   2 C  s         
    35      0.165979   3 H  s                16      0.162698   2 C  pz        
    83      0.161139   6 O  py              141     -0.161523   9 C  px        

 Vector   53  Occ=2.000000D+00  E=-5.339618D-01
              MO Center=  4.3D-01,  3.1D-01,  2.7D-01, r^2= 1.0D+01
   Bfn.  Coefficient  Atom+Function         Bfn.  Coefficient  Atom+Function  
  ----- ------------  ---------------      ----- ------------  ---------------
   254      0.242348  16 O  pz              309     -0.189903  19 C  s         
   257      0.164434  16 O  pz              227     -0.152609  15 C  px        
   430      0.150149  27 C  s         

 Vector   54  Occ=2.000000D+00  E=-5.281178D-01
              MO Center= -1.0D+00, -2.2D+00,  7.2D-02, r^2= 9.3D+00
   Bfn.  Coefficient  Atom+Function         Bfn.  Coefficient  Atom+Function  
  ----- ------------  ---------------      ----- ------------  ---------------
   379      0.289913  23 C  px              401      0.272058  24 H  s         
   419     -0.270700  26 H  s               315      0.240581  19 C  py        
   400      0.228190  24 H  s               418     -0.229018  26 H  s         
   309     -0.205312  19 C  s               351     -0.182519  21 C  px        
   348      0.176919  21 C  px              226      0.173692  15 C  s         

 Vector   55  Occ=2.000000D+00  E=-5.231276D-01
              MO Center= -9.1D-01, -1.4D+00,  1.9D-01, r^2= 9.6D+00
   Bfn.  Coefficient  Atom+Function         Bfn.  Coefficient  Atom+Function  
  ----- ------------  ---------------      ----- ------------  ---------------
   430      0.230620  27 C  s               475      0.230848  30 C  py        
   504     -0.220326  32 H  s               343     -0.200747  21 C  s         
   377      0.188454  23 C  s               514      0.182264  33 H  s         
   317      0.179103  19 C  px              505     -0.179270  32 H  s         
   346     -0.175276  21 C  py              380      0.168223  23 C  py        

 Vector   56  Occ=2.000000D+00  E=-5.138471D-01
              MO Center=  1.0D+00,  1.4D+00,  1.3D-01, r^2= 8.5D+00
   Bfn.  Coefficient  Atom+Function         Bfn.  Coefficient  Atom+Function  
  ----- ------------  ---------------      ----- ------------  ---------------
   143      0.251845   9 C  pz              173      0.249198  11 C  s         
   178     -0.248718  11 C  px              162     -0.246182  10 H  s         
   174     -0.222256  11 C  s               177     -0.222280  11 C  pz        
   196     -0.214987  12 H  s               252      0.180716  16 O  px        
   179     -0.175723  11 C  py              215      0.174245  14 H  s         

 Vector   57  Occ=2.000000D+00  E=-5.038174D-01
              MO Center= -1.8D+00, -1.6D+00,  2.9D-01, r^2= 6.5D+00
   Bfn.  Coefficient  Atom+Function         Bfn.  Coefficient  Atom+Function  
  ----- ------------  ---------------      ----- ------------  ---------------
   495     -0.240915  31 H  s               476      0.233701  30 C  pz        
   496     -0.214505  31 H  s               309      0.206392  19 C  s         
   452     -0.175012  28 H  s               409      0.169500  25 H  s         
   433     -0.167605  27 C  pz              429     -0.164529  27 C  s         
   431     -0.159808  27 C  px              381      0.154648  23 C  pz        

 Vector   58  Occ=2.000000D+00  E=-4.698645D-01
              MO Center= -1.6D+00, -1.7D+00,  3.1D-01, r^2= 4.1D+00
   Bfn.  Coefficient  Atom+Function         Bfn.  Coefficient  Atom+Function  
  ----- ------------  ---------------      ----- ------------  ---------------
   462      0.353208  29 H  s               453     -0.302572  28 H  s         
   377      0.297370  23 C  s               366     -0.261803  22 H  s         
   383      0.259147  23 C  py              452     -0.241401  28 H  s         
   347      0.238141  21 C  pz              367     -0.217197  22 H  s         
   433     -0.208231  27 C  pz              496     -0.195398  31 H  s         

 Vector   59  Occ=2.000000D+00  E=-4.668194D-01
              MO Center= -1.3D+00, -1.8D+00,  2.2D-01, r^2= 5.5D+00
   Bfn.  Coefficient  Atom+Function         Bfn.  Coefficient  Atom+Function  
  ----- ------------  ---------------      ----- ------------  ---------------
   343      0.383604  21 C  s               314      0.285372  19 C  px        
   345     -0.273664  21 C  px              431      0.247059  27 C  px        
   472     -0.236841  30 C  s               462      0.233972  29 H  s         
   474     -0.234318  30 C  px              311      0.231728  19 C  px        
   429     -0.200439  27 C  s               477     -0.196795  30 C  px        

 Vector   60  Occ=2.000000D+00  E=-4.589952D-01
              MO Center= -1.6D+00, -1.6D+00,  2.5D-01, r^2= 5.2D+00
   Bfn.  Coefficient  Atom+Function         Bfn.  Coefficient  Atom+Function  
  ----- ------------  ---------------      ----- ------------  ---------------
   432      0.243233  27 C  py              346     -0.220369  21 C  py        
   514     -0.216762  33 H  s               314      0.200417  19 C  px        
   524     -0.199329  34 C  s               461      0.195022  29 H  s         
   347     -0.186276  21 C  pz              380      0.184121  23 C  py        
   462      0.180369  29 H  s               400     -0.161902  24 H  s         

 Vector   61  Occ=2.000000D+00  E=-4.477038D-01
              MO Center= -8.2D-02,  1.2D+00, -1.0D-01, r^2= 6.9D+00
   Bfn.  Coefficient  Atom+Function         Bfn.  Coefficient  Atom+Function  
  ----- ------------  ---------------      ----- ------------  ---------------
   253     -0.294870  16 O  py               82      0.285049   6 O  px        
   256     -0.236313  16 O  py               85      0.228030   6 O  px        
   109      0.204278   7 N  pz               84     -0.189325   6 O  pz        
   112      0.175268   7 N  pz              139      0.172149   9 C  s         

 Vector   62  Occ=2.000000D+00  E=-4.365179D-01
              MO Center= -7.3D-01,  2.0D+00, -6.1D-01, r^2= 4.3D+00
   Bfn.  Coefficient  Atom+Function         Bfn.  Coefficient  Atom+Function  
  ----- ------------  ---------------      ----- ------------  ---------------
    82      0.425698   6 O  px               85      0.349655   6 O  px        
    83     -0.235146   6 O  py               13     -0.217244   2 C  s         
   225      0.217314  15 C  s                86     -0.184832   6 O  py        
   276     -0.180753  17 N  s                63     -0.178134   5 C  px        
   253      0.175626  16 O  py              105     -0.169702   7 N  s         

 Vector   63  Occ=2.000000D+00  E=-4.213393D-01
              MO Center=  1.3D+00, -1.4D+00, -6.0D-01, r^2= 4.6D+00
   Bfn.  Coefficient  Atom+Function         Bfn.  Coefficient  Atom+Function  
  ----- ------------  ---------------      ----- ------------  ---------------
   551      0.401381  35 O  px              554      0.319800  35 O  px        
   343     -0.279081  21 C  s               429      0.210501  27 C  s         
   279     -0.208035  17 N  pz              552     -0.198151  35 O  py        
   282     -0.179968  17 N  pz              254      0.177750  16 O  pz        
   252     -0.159017  16 O  px              555     -0.152584  35 O  py        

 Vector   64  Occ=2.000000D+00  E=-4.032860D-01
              MO Center=  1.5D+00, -1.5D+00, -4.7D-01, r^2= 6.6D+00
   Bfn.  Coefficient  Atom+Function         Bfn.  Coefficient  Atom+Function  
  ----- ------------  ---------------      ----- ------------  ---------------
   552      0.364516  35 O  py              555      0.289015  35 O  py        
   577     -0.268165  36 N  py              580     -0.247371  36 N  py        
   576     -0.225657  36 N  px              579     -0.175808  36 N  px        
   351      0.163815  21 C  px              309      0.150025  19 C  s         

 Vector   65  Occ=2.000000D+00  E=-3.966565D-01
              MO Center=  1.1D+00,  6.3D-01,  4.6D-02, r^2= 7.3D+00
   Bfn.  Coefficient  Atom+Function         Bfn.  Coefficient  Atom+Function  
  ----- ------------  ---------------      ----- ------------  ---------------
   253      0.304536  16 O  py              256      0.244309  16 O  py        
   145      0.221457   9 C  py              108     -0.212446   7 N  py        
   111     -0.202031   7 N  py              109      0.198410   7 N  pz        
   552     -0.187202  35 O  py              112      0.174004   7 N  pz        
   577      0.159843  36 N  py              555     -0.151995  35 O  py        

 Vector   66  Occ=2.000000D+00  E=-3.780554D-01
              MO Center=  1.1D+00, -7.7D-01, -8.2D-02, r^2= 4.0D+00
   Bfn.  Coefficient  Atom+Function         Bfn.  Coefficient  Atom+Function  
  ----- ------------  ---------------      ----- ------------  ---------------
   524      0.353001  34 C  s               279      0.286061  17 N  pz        
   529     -0.274776  34 C  px              551      0.275237  35 O  px        
   309     -0.272902  19 C  s               429      0.262273  27 C  s         
   282      0.248914  17 N  pz              277     -0.236655  17 N  px        
   554      0.232774  35 O  px              280     -0.222374  17 N  px        

 Vector   67  Occ=0.000000D+00  E= 2.377648D-02
              MO Center= -1.3D+00,  4.6D+00,  1.4D+00, r^2= 2.1D+01
   Bfn.  Coefficient  Atom+Function         Bfn.  Coefficient  Atom+Function  
  ----- ------------  ---------------      ----- ------------  ---------------
   463      4.301512  29 H  s               234      2.979737  15 C  py        
   226      2.223617  15 C  s                63     -2.105758   5 C  px        
    37     -1.981898   3 H  s                12      1.902284   2 C  s         
   106     -1.870604   7 N  s               148      1.767763   9 C  py        
    46     -1.734221   4 H  s               140      1.572112   9 C  s         

 Vector   68  Occ=0.000000D+00  E= 3.509282D-02
              MO Center= -1.4D+00,  1.0D-01,  1.5D+00, r^2= 4.2D+01
   Bfn.  Coefficient  Atom+Function         Bfn.  Coefficient  Atom+Function  
  ----- ------------  ---------------      ----- ------------  ---------------
   234      4.400130  15 C  py              318      3.533506  19 C  py        
   463     -3.246412  29 H  s               351      2.924779  21 C  px        
   430      2.778891  27 C  s               525     -2.615784  34 C  s         
   317      2.474562  19 C  px              454      2.463328  28 H  s         
   216     -2.233171  14 H  s               226     -2.197893  15 C  s         

 Vector   69  Occ=0.000000D+00  E= 3.797121D-02
              MO Center=  1.3D+00, -7.8D-01,  1.2D+00, r^2= 4.3D+01
   Bfn.  Coefficient  Atom+Function         Bfn.  Coefficient  Atom+Function  
  ----- ------------  ---------------      ----- ------------  ---------------
   463     -3.135695  29 H  s               430      3.113156  27 C  s         
   575     -3.126370  36 N  s               147      2.903824   9 C  px        
   317      2.757948  19 C  px              473      2.736489  30 C  s         
    56      2.543206   5 C  s               437      2.448417  27 C  px        
    63      2.320293   5 C  px              351      2.196894  21 C  px        

 Vector   70  Occ=0.000000D+00  E= 4.329766D-02
              MO Center= -1.2D+00,  1.7D+00,  6.2D-01, r^2= 3.8D+01
   Bfn.  Coefficient  Atom+Function         Bfn.  Coefficient  Atom+Function  
  ----- ------------  ---------------      ----- ------------  ---------------
   463      2.594799  29 H  s               147     -2.176368   9 C  px        
   198      2.035322  12 H  s                46     -1.962707   4 H  s         
     3     -1.905893   1 H  s                37      1.862382   3 H  s         
   130      1.637787   8 H  s               216     -1.317877  14 H  s         
   472      1.287224  30 C  s                56     -1.267760   5 C  s         

 Vector   71  Occ=0.000000D+00  E= 4.774326D-02
              MO Center= -4.6D-01,  6.2D-01,  5.1D-01, r^2= 5.3D+01
   Bfn.  Coefficient  Atom+Function         Bfn.  Coefficient  Atom+Function  
  ----- ------------  ---------------      ----- ------------  ---------------
   575     -3.298308  36 N  s               317      3.191669  19 C  px        
    63     -2.278232   5 C  px              216      2.207602  14 H  s         
   147     -1.938968   9 C  px              351      1.908271  21 C  px        
   532      1.835843  34 C  px              437      1.816179  27 C  px        
   430      1.760419  27 C  s               226     -1.741357  15 C  s         

 Vector   72  Occ=0.000000D+00  E= 5.147364D-02
              MO Center= -4.1D-01, -2.0D-01,  1.5D-01, r^2= 4.8D+01
   Bfn.  Coefficient  Atom+Function         Bfn.  Coefficient  Atom+Function  
  ----- ------------  ---------------      ----- ------------  ---------------
   377     -2.423512  23 C  s               130      2.245026   8 H  s         
   207     -2.246824  13 H  s               420      2.102553  26 H  s         
   317      2.061955  19 C  px                3     -1.977935   1 H  s         
   300      1.973719  18 H  s                46      1.923393   4 H  s         
   368     -1.919961  22 H  s               515     -1.752242  33 H  s         

 Vector   73  Occ=0.000000D+00  E= 5.430159D-02
              MO Center= -5.5D-01, -1.1D+00,  9.3D-01, r^2= 4.1D+01
   Bfn.  Coefficient  Atom+Function         Bfn.  Coefficient  Atom+Function  
  ----- ------------  ---------------      ----- ------------  ---------------
   174      3.507439  11 C  s               411      2.914839  25 H  s         
   420     -2.625495  26 H  s               575     -2.140994  36 N  s         
   497     -2.057406  31 H  s               454      2.043032  28 H  s         
   402     -1.901263  24 H  s               216      1.801250  14 H  s         
   300     -1.770423  18 H  s               164      1.709183  10 H  s         

 Vector   74  Occ=0.000000D+00  E= 6.120565D-02
              MO Center= -6.6D-02,  1.1D+00,  5.6D-01, r^2= 4.2D+01
   Bfn.  Coefficient  Atom+Function         Bfn.  Coefficient  Atom+Function  
  ----- ------------  ---------------      ----- ------------  ---------------
   198      3.642444  12 H  s                 3      3.365482   1 H  s         
    63      3.025721   5 C  px              226     -2.939540  15 C  s         
   164     -2.902162  10 H  s                37     -2.764726   3 H  s         
   113      2.762579   7 N  px               13      2.693372   2 C  s         
   148     -2.648411   9 C  py               56      1.999576   5 C  s         

 Vector   75  Occ=0.000000D+00  E= 6.347100D-02
              MO Center= -1.3D+00, -8.2D-01, -4.8D-01, r^2= 4.1D+01
   Bfn.  Coefficient  Atom+Function         Bfn.  Coefficient  Atom+Function  
  ----- ------------  ---------------      ----- ------------  ---------------
   164      4.106229  10 H  s               506     -3.510063  32 H  s         
   420      3.347051  26 H  s               515     -3.267361  33 H  s         
    56     -2.824687   5 C  s               149      2.735253   9 C  pz        
   525     -2.517087  34 C  s               334      2.383512  20 H  s         
   318      2.298313  19 C  py              437     -2.286694  27 C  px        

 Vector   76  Occ=0.000000D+00  E= 6.675659D-02
              MO Center=  1.3D-01,  1.0D+00,  3.6D-02, r^2= 4.8D+01
   Bfn.  Coefficient  Atom+Function         Bfn.  Coefficient  Atom+Function  
  ----- ------------  ---------------      ----- ------------  ---------------
   207      4.069873  13 H  s               130     -3.022076   8 H  s         
   174     -2.713997  11 C  s               226      2.704289  15 C  s         
   352      2.429367  21 C  py              164     -2.380523  10 H  s         
   497     -2.309291  31 H  s               106     -2.208733   7 N  s         
   420      1.863970  26 H  s                37      1.826349   3 H  s         

 Vector   77  Occ=0.000000D+00  E= 7.023920D-02
              MO Center= -4.6D-01,  2.2D-01, -3.4D-02, r^2= 5.2D+01
   Bfn.  Coefficient  Atom+Function         Bfn.  Coefficient  Atom+Function  
  ----- ------------  ---------------      ----- ------------  ---------------
   216      4.711929  14 H  s               506     -3.859069  32 H  s         
   402      3.101509  24 H  s                56      2.985940   5 C  s         
    46     -2.880868   4 H  s               226     -2.855234  15 C  s         
    63      2.807697   5 C  px               13      2.761379   2 C  s         
   113      2.717293   7 N  px              207     -2.686085  13 H  s         

 Vector   78  Occ=0.000000D+00  E= 7.653594D-02
              MO Center= -7.4D-02, -9.3D-01,  1.9D+00, r^2= 4.0D+01
   Bfn.  Coefficient  Atom+Function         Bfn.  Coefficient  Atom+Function  
  ----- ------------  ---------------      ----- ------------  ---------------
   454      6.161353  28 H  s               411     -3.464035  25 H  s         
   439     -3.099605  27 C  pz              608     -3.112586  38 H  s         
    37     -3.028144   3 H  s               226     -2.715526  15 C  s         
   198      2.335822  12 H  s               317      2.311222  19 C  px        
   402      2.285217  24 H  s               352     -2.154719  21 C  py        

 Vector   79  Occ=0.000000D+00  E= 7.682382D-02
              MO Center= -3.1D-01,  1.5D-01,  3.1D-01, r^2= 4.4D+01
   Bfn.  Coefficient  Atom+Function         Bfn.  Coefficient  Atom+Function  
  ----- ------------  ---------------      ----- ------------  ---------------
   411      5.352624  25 H  s               164      4.409143  10 H  s         
   420     -4.096026  26 H  s               454     -3.599354  28 H  s         
   216     -3.281432  14 H  s               234     -3.132216  15 C  py        
   463      2.868429  29 H  s                 3      2.759155   1 H  s         
   149      2.698598   9 C  pz              174     -2.577526  11 C  s         

 Vector   80  Occ=0.000000D+00  E= 8.339148D-02
              MO Center= -5.5D-01, -4.2D-01,  2.5D-01, r^2= 4.3D+01
   Bfn.  Coefficient  Atom+Function         Bfn.  Coefficient  Atom+Function  
  ----- ------------  ---------------      ----- ------------  ---------------
   463     -4.890485  29 H  s               411      4.554982  25 H  s         
   198     -4.127711  12 H  s               497      4.063134  31 H  s         
   207      3.894413  13 H  s               420     -3.840324  26 H  s         
   164     -3.638432  10 H  s               130      2.996267   8 H  s         
   149     -2.882737   9 C  pz              454      2.732781  28 H  s         

 Vector   81  Occ=0.000000D+00  E= 8.623115D-02
              MO Center= -1.8D+00, -6.2D-01,  1.9D-01, r^2= 5.0D+01
   Bfn.  Coefficient  Atom+Function         Bfn.  Coefficient  Atom+Function  
  ----- ------------  ---------------      ----- ------------  ---------------
   515      5.902085  33 H  s               402      4.516563  24 H  s         
    63     -4.095578   5 C  px              351      3.917754  21 C  px        
   216     -3.608859  14 H  s                 3     -3.459119   1 H  s         
   506     -3.413371  32 H  s                46      3.177393   4 H  s         
   234      3.032694  15 C  py               13     -2.922657   2 C  s         

 Vector   82  Occ=0.000000D+00  E= 9.075761D-02
              MO Center= -1.5D-01,  1.1D+00,  2.0D-01, r^2= 3.9D+01
   Bfn.  Coefficient  Atom+Function         Bfn.  Coefficient  Atom+Function  
  ----- ------------  ---------------      ----- ------------  ---------------
   463     -7.290524  29 H  s               368      6.734385  22 H  s         
   226      5.351587  15 C  s               198      4.372961  12 H  s         
   174     -4.154681  11 C  s               207     -4.050316  13 H  s         
   420     -4.009073  26 H  s               130     -3.944610   8 H  s         
   334     -3.943832  20 H  s                37      3.467887   3 H  s         

 Vector   83  Occ=0.000000D+00  E= 9.639256D-02
              MO Center= -5.9D-01, -1.4D+00,  1.2D+00, r^2= 3.8D+01
   Bfn.  Coefficient  Atom+Function         Bfn.  Coefficient  Atom+Function  
  ----- ------------  ---------------      ----- ------------  ---------------
   334     14.621063  20 H  s               463     -7.309313  29 H  s         
[...]
   174     -6.222916  11 C  s               226      5.855668  15 C  s         
   233     -5.869412  15 C  px              472      5.553239  30 C  s         
   206      5.145839  13 H  s               147      5.052914   9 C  px        

 Vector  173  Occ=0.000000D+00  E= 4.438098D-01
              MO Center=  5.5D-01, -5.7D-02, -1.1D-01, r^2= 2.1D+01
   Bfn.  Coefficient  Atom+Function         Bfn.  Coefficient  Atom+Function  
  ----- ------------  ---------------      ----- ------------  ---------------
   351     10.054018  21 C  px              318      9.879856  19 C  py        
   147     -9.571416   9 C  px               63     -8.851388   5 C  px        
   113     -7.868366   7 N  px              235     -7.852326  15 C  pz        
    12      7.097823   2 C  s               276     -6.948006  17 N  s         
    13     -6.800469   2 C  s               149      6.587891   9 C  pz        

 Vector  174  Occ=0.000000D+00  E= 4.446167D-01
              MO Center=  1.2D-01, -3.1D-01, -7.9D-02, r^2= 2.3D+01
   Bfn.  Coefficient  Atom+Function         Bfn.  Coefficient  Atom+Function  
  ----- ------------  ---------------      ----- ------------  ---------------
    56     10.729191   5 C  s               147      9.143714   9 C  px        
   226     -7.969862  15 C  s                13      6.448202   2 C  s         
   140     -6.165753   9 C  s                63      6.000857   5 C  px        
   234     -5.884142  15 C  py              351     -5.374490  21 C  px        
   429      5.399206  27 C  s               113      5.175417   7 N  px        

 Vector  175  Occ=0.000000D+00  E= 4.469712D-01
              MO Center= -8.3D-01,  9.7D-01,  3.4D-02, r^2= 2.2D+01
   Bfn.  Coefficient  Atom+Function         Bfn.  Coefficient  Atom+Function  
  ----- ------------  ---------------      ----- ------------  ---------------
   226    -18.217000  15 C  s               174     17.316983  11 C  s         
   430     10.541923  27 C  s               140     -9.282904   9 C  s         
   317      9.191320  19 C  px              148     -7.817717   9 C  py        
   147     -6.404414   9 C  px              318      5.973977  19 C  py        
   215     -5.631698  14 H  s               285      5.603448  17 N  pz        

 Vector  176  Occ=0.000000D+00  E= 4.563301D-01
              MO Center= -3.1D-01, -5.2D-01,  1.7D-01, r^2= 2.1D+01
   Bfn.  Coefficient  Atom+Function         Bfn.  Coefficient  Atom+Function  
  ----- ------------  ---------------      ----- ------------  ---------------
   473     11.380271  30 C  s               174     -9.525843  11 C  s         
   319     -7.629971  19 C  pz              437      7.491260  27 C  px        
   173     -7.277368  11 C  s                13     -6.054359   2 C  s         
   197      5.918500  12 H  s               317      5.507628  19 C  px        
   378     -5.289412  23 C  s               206      5.204504  13 H  s         

 Vector  177  Occ=0.000000D+00  E= 4.599003D-01
              MO Center= -1.3D+00,  3.4D-01,  7.8D-02, r^2= 2.2D+01
   Bfn.  Coefficient  Atom+Function         Bfn.  Coefficient  Atom+Function  
  ----- ------------  ---------------      ----- ------------  ---------------
   430     19.162356  27 C  s               525    -16.604796  34 C  s         
   226    -16.169324  15 C  s               473    -16.197762  30 C  s         
   378     14.913542  23 C  s               318     10.205440  19 C  py        
    56      9.835391   5 C  s               575      9.037995  36 N  s         
   351      8.613587  21 C  px              437     -6.863464  27 C  px        

 Vector  178  Occ=0.000000D+00  E= 4.668293D-01
              MO Center=  1.6D-01, -1.6D-03,  3.8D-01, r^2= 2.0D+01
   Bfn.  Coefficient  Atom+Function         Bfn.  Coefficient  Atom+Function  
  ----- ------------  ---------------      ----- ------------  ---------------
   318     12.759146  19 C  py              473      9.707554  30 C  s         
   147     -9.120437   9 C  px              351      8.812554  21 C  px        
   284     -6.952194  17 N  py              235     -6.466110  15 C  pz        
   106     -6.347688   7 N  s               234      6.085238  15 C  py        
   113     -5.735127   7 N  px              378      5.564934  23 C  s         

 Vector  179  Occ=0.000000D+00  E= 4.703370D-01
              MO Center=  1.4D-01,  2.7D-01,  2.5D-02, r^2= 2.2D+01
   Bfn.  Coefficient  Atom+Function         Bfn.  Coefficient  Atom+Function  
  ----- ------------  ---------------      ----- ------------  ---------------
   430     17.751491  27 C  s               317     13.189462  19 C  px        
   575     12.317680  36 N  s               473    -11.335617  30 C  s         
    12    -10.405727   2 C  s               174     -9.799268  11 C  s         
   318      8.588927  19 C  py              378      8.612284  23 C  s         
   525     -8.551846  34 C  s               319      7.603020  19 C  pz        

 Vector  180  Occ=0.000000D+00  E= 4.752903D-01
              MO Center= -3.8D-01, -5.6D-01,  2.4D-01, r^2= 2.3D+01
   Bfn.  Coefficient  Atom+Function         Bfn.  Coefficient  Atom+Function  
  ----- ------------  ---------------      ----- ------------  ---------------
   351     13.185347  21 C  px              472     11.532181  30 C  s         
   318     10.761324  19 C  py              430      8.733546  27 C  s         
   226     -8.614392  15 C  s               439     -8.144959  27 C  pz        
   233      7.954576  15 C  px               12     -7.617921   2 C  s         
   505     -7.161634  32 H  s               473      7.032454  30 C  s         

 Vector  181  Occ=0.000000D+00  E= 4.759798D-01
              MO Center= -5.4D-01, -4.8D-02, -8.2D-02, r^2= 2.1D+01
   Bfn.  Coefficient  Atom+Function         Bfn.  Coefficient  Atom+Function  
  ----- ------------  ---------------      ----- ------------  ---------------
   226      8.033011  15 C  s               318     -7.791714  19 C  py        
   575     -7.058295  36 N  s               377      6.503264  23 C  s         
    12      5.714116   2 C  s               317     -5.568153  19 C  px        
   401     -5.345054  24 H  s               367     -5.100361  22 H  s         
   284      4.998893  17 N  py              319     -4.998192  19 C  pz        

 Vector  182  Occ=0.000000D+00  E= 4.778889D-01
              MO Center= -4.2D-01, -2.7D-01,  5.3D-02, r^2= 2.2D+01
   Bfn.  Coefficient  Atom+Function         Bfn.  Coefficient  Atom+Function  
  ----- ------------  ---------------      ----- ------------  ---------------
   317     11.087493  19 C  px              318      6.256050  19 C  py        
   283     -5.857473  17 N  px               13     -5.716236   2 C  s         
   532     -5.267643  34 C  px              319      4.763540  19 C  pz        
   113     -4.701130   7 N  px              575      4.673940  36 N  s         
   534     -4.524009  34 C  pz              463      4.367660  29 H  s         

 Vector  183  Occ=0.000000D+00  E= 4.819470D-01
              MO Center= -7.4D-01,  3.1D-01,  4.5D-01, r^2= 2.3D+01
   Bfn.  Coefficient  Atom+Function         Bfn.  Coefficient  Atom+Function  
  ----- ------------  ---------------      ----- ------------  ---------------
   174     10.712687  11 C  s               106     -8.998947   7 N  s         
   300     -8.269572  18 H  s               197     -7.750418  12 H  s         
   319      7.346031  19 C  pz              575      6.459824  36 N  s         
   473     -6.165828  30 C  s               318      6.046118  19 C  py        
   147     -5.963860   9 C  px              351     -5.971117  21 C  px        

 Vector  184  Occ=0.000000D+00  E= 4.866173D-01
              MO Center= -9.8D-01, -6.5D-01, -7.7D-02, r^2= 2.2D+01
   Bfn.  Coefficient  Atom+Function         Bfn.  Coefficient  Atom+Function  
  ----- ------------  ---------------      ----- ------------  ---------------
    13     12.816894   2 C  s               378    -12.188366  23 C  s         
   430    -12.101471  27 C  s               174      9.454885  11 C  s         
   377     -9.051153  23 C  s               317     -9.001011  19 C  px        
   463     -8.646471  29 H  s                63      8.401241   5 C  px        
   473      7.826157  30 C  s               401      7.480019  24 H  s         

 Vector  185  Occ=0.000000D+00  E= 4.893391D-01
              MO Center=  2.0D-01,  5.5D-01,  1.5D-01, r^2= 2.4D+01
   Bfn.  Coefficient  Atom+Function         Bfn.  Coefficient  Atom+Function  
  ----- ------------  ---------------      ----- ------------  ---------------
   226     14.223630  15 C  s               430    -11.548445  27 C  s         
   234    -10.476031  15 C  py              351     -9.714862  21 C  px        
   473     -9.563486  30 C  s               317     -9.272950  19 C  px        
   276     -7.277060  17 N  s               353      6.493037  21 C  pz        
   140      6.320074   9 C  s               283     -6.179052  17 N  px        

 Vector  186  Occ=0.000000D+00  E= 4.943784D-01
              MO Center= -5.1D-01, -1.1D+00,  3.0D-01, r^2= 2.3D+01
   Bfn.  Coefficient  Atom+Function         Bfn.  Coefficient  Atom+Function  
  ----- ------------  ---------------      ----- ------------  ---------------
   174     20.868505  11 C  s               147     -9.297753   9 C  px        
    56     -7.327912   5 C  s               525      7.145780  34 C  s         
   226     -6.812253  15 C  s               173      6.735052  11 C  s         
   140     -6.143708   9 C  s               197     -5.691920  12 H  s         
   215     -5.575776  14 H  s               206     -5.428297  13 H  s         

 Vector  187  Occ=0.000000D+00  E= 4.965191D-01
              MO Center= -5.6D-01, -4.6D-01,  2.3D-01, r^2= 2.1D+01
   Bfn.  Coefficient  Atom+Function         Bfn.  Coefficient  Atom+Function  
  ----- ------------  ---------------      ----- ------------  ---------------
   318     -8.550878  19 C  py              226      8.385239  15 C  s         
   234     -7.773155  15 C  py              430     -7.779701  27 C  s         
   353      6.692161  21 C  pz              147      6.592139   9 C  px        
   378     -6.346147  23 C  s               453      6.242451  28 H  s         
   173     -5.742384  11 C  s               525      4.953368  34 C  s         

 Vector  188  Occ=0.000000D+00  E= 4.992543D-01
              MO Center= -6.0D-01,  3.6D-01,  2.0D-01, r^2= 2.3D+01
   Bfn.  Coefficient  Atom+Function         Bfn.  Coefficient  Atom+Function  
  ----- ------------  ---------------      ----- ------------  ---------------
   174     16.680497  11 C  s               463     10.096897  29 H  s         
    56     -9.118600   5 C  s               147     -8.471705   9 C  px        
   575     -7.175053  36 N  s               319     -6.608275  19 C  pz        
   226     -5.643639  15 C  s               276     -5.384952  17 N  s         
   148     -4.699250   9 C  py              113     -4.629670   7 N  px        

 Vector  189  Occ=0.000000D+00  E= 5.046044D-01
              MO Center= -2.0D-01, -1.7D-01, -5.1D-02, r^2= 2.1D+01
   Bfn.  Coefficient  Atom+Function         Bfn.  Coefficient  Atom+Function  
  ----- ------------  ---------------      ----- ------------  ---------------
   276     17.413320  17 N  s                12     13.371515   2 C  s         
   378     -9.566566  23 C  s               226     -8.689050  15 C  s         
   318     -7.290004  19 C  py              300      6.862429  18 H  s         
   368     -6.873809  22 H  s               473      6.359627  30 C  s         
    45     -6.083101   4 H  s               140     -5.989406   9 C  s         


 center of mass
 --------------
 x =   0.09885640 y =   0.00588248 z =  -0.04533611

 moments of inertia (a.u.)
 ------------------
        5177.390724031433           0.000000000001          -0.000000000000
           0.000000000001        3345.929758651574           0.000000000000
          -0.000000000000           0.000000000000        7614.721475352832

  Mulliken analysis of the total density
  --------------------------------------

    Atom       Charge   Shell Charges
 -----------   ------   -------------------------------------------------------
    1 H    1     0.93   0.76  0.19  0.01  0.03 -0.06
    2 C    6     6.41   2.01  0.66  0.32  0.17  2.07  1.02 -0.01  0.06  0.12
    3 H    1     0.82   0.76  0.08  0.00  0.03 -0.06
    4 H    1     0.84   0.76  0.10  0.01  0.03 -0.07
    5 C    6     5.11   2.01  0.68  0.06  0.01  1.89  0.34 -0.11  0.24 -0.01
    6 O    8     8.77   2.01  0.82  0.99  0.15  2.80  1.86  0.14  0.02 -0.01
    7 N    7     7.52   2.01  0.72  0.82 -0.14  2.45  1.45  0.12  0.05  0.04
    8 H    1     0.98   0.77  0.22 -0.03  0.05 -0.04
    9 C    6     6.76   2.01  0.66  0.13 -0.00  1.99  1.69 -0.10  0.14  0.24
   10 H    1     1.04   0.78  0.20  0.01  0.03  0.01
   11 C    6     5.67   2.01  0.66  0.17  0.26  2.04  0.52 -0.05  0.07  0.00
   12 H    1     0.90   0.77  0.15  0.02  0.03 -0.07
   13 H    1     0.97   0.77  0.24  0.00  0.03 -0.07
   14 H    1     0.96   0.77  0.23  0.01  0.03 -0.08
   15 C    6     4.40   2.01  0.68 -0.11  0.02  1.89  0.06  0.05  0.24 -0.43
   16 O    8     8.79   2.01  0.82  1.03  0.16  2.79  1.85  0.14  0.01 -0.01
   17 N    7     7.74   2.01  0.72  0.96 -0.05  2.45  1.46  0.09  0.05  0.06
   18 H    1     0.91   0.73  0.26 -0.01  0.06 -0.14
   19 C    6     6.02   2.01  0.67  0.12  0.05  1.99  1.07  0.09  0.14 -0.11
   20 H    1     1.24   0.80  0.41 -0.03  0.03  0.03
   21 C    6     6.78   2.01  0.66  0.30  0.01  2.01  1.22 -0.01  0.12  0.49
   22 H    1     1.06   0.79  0.27 -0.00  0.03 -0.03
   23 C    6     5.35   2.01  0.66  0.20 -0.01  2.04  0.51 -0.02  0.07 -0.11
   24 H    1     0.98   0.77  0.23  0.01  0.03 -0.06
   25 H    1     0.94   0.78  0.19  0.01  0.03 -0.07
   26 H    1     1.01   0.78  0.27 -0.00  0.03 -0.07
   27 C    6     5.92   2.01  0.66  0.49 -0.20  2.03  0.77 -0.05  0.10  0.13
   28 H    1     1.05   0.79  0.33 -0.02  0.03 -0.08
   29 H    1     1.05   0.79  0.35 -0.03  0.03 -0.09
   30 C    6     5.72   2.01  0.66  0.24  0.25  2.04  0.54 -0.01  0.07 -0.08
   31 H    1     0.95   0.77  0.20  0.01  0.03 -0.08
   32 H    1     0.96   0.78  0.20  0.02  0.03 -0.07
   33 H    1     1.03   0.78  0.30  0.01  0.03 -0.09
   34 C    6     4.30   2.01  0.69 -0.05  0.05  1.89 -0.31  0.02  0.24 -0.24
   35 O    8     8.93   2.01  0.82  1.06  0.19  2.79  1.87  0.16  0.01  0.01
   36 N    7     7.24   2.01  0.72  0.82 -0.14  2.46  1.27  0.07  0.04 -0.01
   37 H    1     0.99   0.75  0.21 -0.01  0.05 -0.01
   38 H    1     0.96   0.76  0.20 -0.01  0.05 -0.04

       Multipole analysis of the density wrt the origin
       ------------------------------------------------

     L   x y z        total         open         nuclear
     -   - - -        -----         ----         -------
     0   0 0 0     -0.000000      0.000000    132.000000

     1   1 0 0     -0.629702      0.000000     -0.000000
     1   0 1 0      1.338484      0.000000      0.000000
     1   0 0 1      1.612702      0.000000     -0.000000

     2   2 0 0    -77.548359      0.000000   1667.490066
     2   1 1 0     -1.958270      0.000000     44.307786
     2   1 0 1     -1.564605      0.000000     -9.026743
     2   0 2 0    -61.645589      0.000000   2676.283720
     2   0 1 1     -3.735327      0.000000     -7.880362
     2   0 0 2    -85.279967      0.000000    259.871870


 Task  times  cpu:     5180.6s     wall:     5332.3s


                                NWChem Input Module
                                -------------------


 Summary of allocated global arrays
-----------------------------------
  No active global arrays


MA_summarize_allocated_blocks: starting scan ...
MA_summarize_allocated_blocks: scan completed: 0 heap blocks, 0 stack blocks
MA usage statistics:

	allocation statistics:
					      heap	     stack
					      ----	     -----
	current number of blocks	         0	         0
	maximum number of blocks	        16	        14
	current total bytes		         0	         0
	maximum total bytes		    131224	  28332216
	maximum total K-bytes		       132	     28333
	maximum total M-bytes		         1	        29


                                     CITATION
                                     --------
                Please cite the following reference when publishing
                           results obtained with NWChem:

          E. Apra, E. J. Bylaska, W. A. de Jong, N. Govind, K. Kowalski,
       T. P. Straatsma, M. Valiev, H. J. J. van Dam, Y. Alexeev, J. Anchell,
       V. Anisimov, F. W. Aquino, R. Atta-Fynn, J. Autschbach, N. P. Bauman,
     J. C. Becca, D. E. Bernholdt, K. Bhaskaran-Nair, S. Bogatko, P. Borowski,
         J. Boschen, J. Brabec, A. Bruner, E. Cauet, Y. Chen, G. N. Chuev,
      C. J. Cramer, J. Daily, M. J. O. Deegan, T. H. Dunning Jr., M. Dupuis,
   K. G. Dyall, G. I. Fann, S. A. Fischer, A. Fonari, H. Fruchtl, L. Gagliardi,
      J. Garza, N. Gawande, S. Ghosh, K. Glaesemann, A. W. Gotz, J. Hammond,
       V. Helms, E. D. Hermes, K. Hirao, S. Hirata, M. Jacquelin, L. Jensen,
   B. G. Johnson, H. Jonsson, R. A. Kendall, M. Klemm, R. Kobayashi, V. Konkov,
      S. Krishnamoorthy, M. Krishnan, Z. Lin, R. D. Lins, R. J. Littlefield,
      A. J. Logsdail, K. Lopata, W. Ma, A. V. Marenich, J. Martin del Campo,
   D. Mejia-Rodriguez, J. E. Moore, J. M. Mullin, T. Nakajima, D. R. Nascimento,
    J. A. Nichols, P. J. Nichols, J. Nieplocha, A. Otero-de-la-Roza, B. Palmer,
    A. Panyala, T. Pirojsirikul, B. Peng, R. Peverati, J. Pittner, L. Pollack,
   R. M. Richard, P. Sadayappan, G. C. Schatz, W. A. Shelton, D. W. Silverstein,
   D. M. A. Smith, T. A. Soares, D. Song, M. Swart, H. L. Taylor, G. S. Thomas,
            V. Tipparaju, D. G. Truhlar, K. Tsemekhman, T. Van Voorhis,
      A. Vazquez-Mayagoitia, P. Verma, O. Villa, A. Vishnu, K. D. Vogiatzis,
        D. Wang, J. H. Weare, M. J. Williamson, T. L. Windus, K. Wolinski,
        A. T. Wong, Q. Wu, C. Yang, Q. Yu, M. Zacharias, Z. Zhang, Y. Zhao,
                                and R. J. Harrison
                        "NWChem: Past, present, and future
                         J. Chem. Phys. 152, 184102 (2020)
                               doi:10.1063/5.0004997

                                      AUTHORS
                                      -------
  E. Apra, E. J. Bylaska, N. Govind, K. Kowalski, M. Valiev, D. Mejia-Rodriguez,
       A. Kunitsa, N. P. Bauman, A. Panyala, W. A. de Jong, T. P. Straatsma,
   H. J. J. van Dam, D. Wang, T. L. Windus, J. Hammond, J. Autschbach, A. Woods,
    K. Bhaskaran-Nair, J. Brabec, K. Lopata, S. A. Fischer, S. Krishnamoorthy,
     M. Jacquelin, W. Ma, M. Klemm, O. Villa, Y. Chen, V. Anisimov, F. Aquino,
     S. Hirata, M. T. Hackler, E. Hermes, L. Jensen, J. E. Moore, J. C. Becca,
      V. Konjkov, T. Risthaus, M. Malagoli, A. Marenich, A. Otero-de-la-Roza,
        J. Mullin, P. Nichols, R. Peverati, J. Pittner, Y. Zhao, P.-D. Fan,
        A. Fonari, M. J. Williamson, R. J. Harrison, J. R. Rehr, M. Dupuis,
     D. Silverstein, D. M. A. Smith, J. Nieplocha, V. Tipparaju, M. Krishnan,
     B. E. Van Kuiken, A. Vazquez-Mayagoitia, M. Swart, Q. Wu, T. Van Voorhis,
     A. A. Auer, M. Nooijen, L. D. Crosby, E. Brown, G. Cisneros, G. I. Fann,
   H. Fruchtl, J. Garza, K. Hirao, R. A. Kendall, J. A. Nichols, K. Tsemekhman,
    K. Wolinski, J. Anchell, D. E. Bernholdt, P. Borowski, T. Clark, D. Clerc,
   H. Dachsel, M. J. O. Deegan, K. Dyall, D. Elwood, E. Glendening, M. Gutowski,
   A. C. Hess, J. Jaffe, B. G. Johnson, J. Ju, R. Kobayashi, R. Kutteh, Z. Lin,
   R. Littlefield, X. Long, B. Meng, T. Nakajima, S. Niu, L. Pollack, M. Rosing,
   K. Glaesemann, G. Sandrone, M. Stave, H. Taylor, G. Thomas, J. H. van Lenthe,
                               A. T. Wong, Z. Zhang.

 Total times  cpu:     5180.7s     wall:     5332.7s
