export TMOUT=5400
export TMPDIR=/tmp
export PTMPDIR=/tmp/ptmp
 argument  1 = ALA_ASN_4.nw
                                         
                                         


             Northwest Computational Chemistry Package (NWChem) 7.2.0
             --------------------------------------------------------


                    Environmental Molecular Sciences Laboratory
                       Pacific Northwest National Laboratory
                                Richland, WA 99352

                              Copyright (c) 1994-2022
                       Pacific Northwest National Laboratory
                            Battelle Memorial Institute

             NWChem is an open-source computational chemistry package
                        distributed under the terms of the
                      Educational Community License (ECL) 2.0
             A copy of the license is included with this distribution
                              in the LICENSE.TXT file

                                  ACKNOWLEDGMENT
                                  --------------

            This software and its documentation were developed at the
            EMSL at Pacific Northwest National Laboratory, a multiprogram
            national laboratory, operated for the U.S. Department of Energy
            by Battelle under Contract Number DE-AC05-76RL01830. Support
            for this work was provided by the Department of Energy Office
            of Biological and Environmental Research, Office of Basic
            Energy Sciences, and the Office of Advanced Scientific Computing.


           Job information
           ---------------

    hostname        = nova18-55
    program         = /opt/rit/el9/20230413/app/linux-rhel9-x86_64_v3/gcc-11.2.1/nwchem-7.2.0-oxtctbuhfuzyfaoziquq6bki22grib3g/bin/nwchem
    date            = Wed Jun 25 13:24:38 2025

    compiled        = Wed_May_17_23:46:39_2023
    source          = /tmp/root/spack-stage/spack-stage-nwchem-7.2.0-oxtctbuhfuzyfaoziquq6bki22grib3g/spack-src
    nwchem branch   = 7.2.0
    nwchem revision = d0d141fd
    ga revision     = 5.8.0
    use scalapack   = T
    input           = ALA_ASN_4.nw
    prefix          = ALA_ASN_4.
    data base       = ./ALA_ASN_4.db
    status          = startup
    nproc           =        8
    time left       =     -1s



           Memory information
           ------------------

    heap     =   26214398 doubles =    200.0 Mbytes
    stack    =   26214395 doubles =    200.0 Mbytes
    global   =   52428800 doubles =    400.0 Mbytes (distinct from heap & stack)
    total    =  104857593 doubles =    800.0 Mbytes
    verify   = yes
    hardfail = no 


           Directory information
           ---------------------

  0 permanent = .
  0 scratch   = .




                                NWChem Input Module
                                -------------------



 Scaling coordinates for geometry "geometry" by  1.889725989
 (inverse scale =  0.529177249)

 C1  symmetry detected

          ------
          auto-z
          ------
  no constraints, skipping    0.0000000000000000     
  no constraints, skipping    0.0000000000000000     


                             Geometry "geometry" -> ""
                             -------------------------

 Output coordinates in angstroms (scale by  1.889725989 to convert to a.u.)

  No.       Tag          Charge          X              Y              Z
 ---- ---------------- ---------- -------------- -------------- --------------
    1 H                    1.0000    -1.31921763     5.60144893     1.23283173
    2 C                    6.0000    -1.56116169     5.31482802     0.21018735
    3 H                    1.0000    -1.58125936     6.20092361    -0.42217227
    4 H                    1.0000    -2.53096516     4.82199468     0.18131664
    5 C                    6.0000    -0.50254131     4.36930091    -0.30567925
    6 O                    8.0000     0.16107280     4.66786930    -1.28960823
    7 N                    7.0000    -0.35376797     3.22491575     0.35617730
    8 H                    1.0000    -0.96653112     3.03163535     1.13471247
    9 C                    6.0000     0.60194349     2.17432951     0.00338533
   10 H                    1.0000     0.73484438     2.16615389    -1.07970309
   11 C                    6.0000     1.95512982     2.49462864     0.65595350
   12 H                    1.0000     1.85214103     2.50934947     1.74089295
   13 H                    1.0000     2.69216188     1.73993292     0.37636074
   14 H                    1.0000     2.30739115     3.46880125     0.31449973
   15 C                    6.0000     0.08258858     0.78862644     0.42785968
   16 O                    8.0000    -0.81698214     0.68310734     1.26182385
   17 N                    7.0000     0.65528861    -0.27633584    -0.14007081
   18 H                    1.0000     1.41720109    -0.12888184    -0.78863898
   19 C                    6.0000     0.34288157    -1.67199237     0.17954408
   20 H                    1.0000     0.12925746    -1.74937803     1.24892016
   21 C                    6.0000    -0.91518983    -2.09007813    -0.61189426
   22 H                    1.0000    -1.68766132    -1.33185569    -0.48573751
   23 H                    1.0000    -0.66666859    -2.15475468    -1.67047592
   24 C                    6.0000    -1.51335962    -3.41217328    -0.16030448
   25 O                    8.0000    -1.16602275    -3.98172128     0.85871277
   26 N                    7.0000    -2.43528866    -3.95782843    -0.91757611
   27 H                    1.0000    -2.82063531    -4.82533136    -0.58721022
   28 H                    1.0000    -2.74703454    -3.50285702    -1.75381622
   29 C                    6.0000     1.56449100    -2.56461679    -0.12865722
   30 O                    8.0000     2.43797776    -2.18285411    -0.90203174
   31 N                    7.0000     1.64822723    -3.75378612     0.44866206
   32 H                    1.0000     2.44483052    -4.33417776     0.24699463
   33 H                    1.0000     0.88387356    -4.08008890     1.02733637

      Atomic Mass 
      ----------- 

      H                  1.007825
      C                 12.000000
      O                 15.994910
      N                 14.003070


 Effective nuclear repulsion energy (a.u.)    1240.5071986605

            Nuclear Dipole moment (a.u.) 
            ----------------------------
        X                 Y               Z
 ---------------- ---------------- ----------------
     0.0000000000    -0.0000000000     0.0000000000



                                Z-matrix (autoz)
                                -------- 

 Units are Angstrom for bonds and degrees for angles

      Type          Name      I     J     K     L     M      Value
      ----------- --------  ----- ----- ----- ----- ----- ----------
    1 Stretch                  1     2                       1.08926
    2 Stretch                  2     3                       1.08878
    3 Stretch                  2     4                       1.08823
    4 Stretch                  2     5                       1.51024
    5 Stretch                  5     6                       1.22378
    6 Stretch                  5     7                       1.33034
    7 Stretch                  7     8                       1.00943
    8 Stretch                  7     9                       1.46341
    9 Stretch                  9    10                       1.09124
   10 Stretch                  9    11                       1.53608
   11 Stretch                  9    15                       1.53951
   12 Stretch                 11    12                       1.08992
   13 Stretch                 11    13                       1.09131
   14 Stretch                 11    14                       1.09073
   15 Stretch                 15    16                       1.23120
   16 Stretch                 15    17                       1.33592
   17 Stretch                 17    18                       1.01138
   18 Stretch                 17    19                       1.46547
   19 Stretch                 19    20                       1.09325
   20 Stretch                 19    21                       1.54399
   21 Stretch                 19    29                       1.54405
   22 Stretch                 21    22                       1.08974
   23 Stretch                 21    23                       1.08928
   24 Stretch                 21    24                       1.51976
   25 Stretch                 24    25                       1.21796
   26 Stretch                 24    26                       1.31193
   27 Stretch                 26    27                       1.00508
   28 Stretch                 26    28                       1.00174
   29 Stretch                 29    30                       1.22753
   30 Stretch                 29    31                       1.32455
   31 Stretch                 31    32                       1.00603
   32 Stretch                 31    33                       1.01271
   33 Bend                     1     2     3               109.58630
   34 Bend                     1     2     4               110.00005
   35 Bend                     1     2     5               109.25272
   36 Bend                     2     5     6               120.13204
   37 Bend                     2     5     7               116.55236
   38 Bend                     3     2     4               109.67664
   39 Bend                     3     2     5               108.90980
   40 Bend                     4     2     5               109.39529
   41 Bend                     5     7     8               118.72027
   42 Bend                     5     7     9               124.79554
   43 Bend                     6     5     7               123.31407
   44 Bend                     7     9    10               108.91641
   45 Bend                     7     9    11               108.85667
   46 Bend                     7     9    15               111.06312
   47 Bend                     8     7     9               116.41757
   48 Bend                     9    11    12               110.02690
   49 Bend                     9    11    13               109.99338
   50 Bend                     9    11    14               109.73972
   51 Bend                     9    15    16               120.68966
   52 Bend                     9    15    17               117.10992
   53 Bend                    10     9    11               108.41675
   54 Bend                    10     9    15               107.93891
   55 Bend                    11     9    15               111.57604
   56 Bend                    12    11    13               109.15877
   57 Bend                    12    11    14               109.27336
   58 Bend                    13    11    14               108.62253
   59 Bend                    15    17    18               118.64273
   60 Bend                    15    17    19               125.10610
   61 Bend                    16    15    17               122.19908
   62 Bend                    17    19    20               108.80834
   63 Bend                    17    19    21               108.65014
   64 Bend                    17    19    29               109.77760
   65 Bend                    18    17    19               116.05941
   66 Bend                    19    21    22               109.25926
   67 Bend                    19    21    23               109.16687
   68 Bend                    19    21    24               113.82574
   69 Bend                    19    29    30               120.59376
   70 Bend                    19    29    31               118.81835
   71 Bend                    20    19    21               108.84531
   72 Bend                    20    19    29               107.99436
   73 Bend                    21    19    29               112.69359
   74 Bend                    21    24    25               122.89956
   75 Bend                    21    24    26               117.83290
   76 Bend                    22    21    23               108.39367
   77 Bend                    22    21    24               106.97080
   78 Bend                    23    21    24               109.08169
   79 Bend                    24    26    27               116.01972
   80 Bend                    24    26    28               120.77359
   81 Bend                    25    24    26               119.26484
   82 Bend                    27    26    28               123.16732
   83 Bend                    29    31    32               118.72671
   84 Bend                    29    31    33               119.38120
   85 Bend                    30    29    31               120.58603
   86 Bend                    32    31    33               121.75584
   87 Torsion                  1     2     5     6        -119.70998
   88 Torsion                  1     2     5     7          60.72458
   89 Torsion                  2     5     7     8           2.22669
   90 Torsion                  2     5     7     9         179.14560
   91 Torsion                  3     2     5     6          -0.04086
   92 Torsion                  3     2     5     7        -179.60629
   93 Torsion                  4     2     5     6         119.82293
   94 Torsion                  4     2     5     7         -59.74251
   95 Torsion                  5     7     9    10         -32.01044
   96 Torsion                  5     7     9    11          86.02028
   97 Torsion                  5     7     9    15        -150.75338
   98 Torsion                  6     5     7     8        -177.32357
   99 Torsion                  6     5     7     9          -0.40465
  100 Torsion                  7     9    11    12          61.65979
  101 Torsion                  7     9    11    13        -178.05322
  102 Torsion                  7     9    11    14         -58.60841
  103 Torsion                  7     9    15    16         -18.19551
  104 Torsion                  7     9    15    17         162.21724
  105 Torsion                  8     7     9    10         144.97252
  106 Torsion                  8     7     9    11         -96.99675
  107 Torsion                  8     7     9    15          26.22958
  108 Torsion                  9    15    17    18           2.22086
  109 Torsion                  9    15    17    19         176.97773
  110 Torsion                 10     9    11    12        -179.99451
  111 Torsion                 10     9    11    13         -59.70752
  112 Torsion                 10     9    11    14          59.73728
  113 Torsion                 10     9    15    16        -137.52515
  114 Torsion                 10     9    15    17          42.88759
  115 Torsion                 11     9    15    16         103.45499
  116 Torsion                 11     9    15    17         -76.13227
  117 Torsion                 12    11     9    15         -61.25914
  118 Torsion                 13    11     9    15          59.02785
  119 Torsion                 14    11     9    15         178.47266
  120 Torsion                 15    17    19    20         -35.73649
  121 Torsion                 15    17    19    21          82.62940
  122 Torsion                 15    17    19    29        -153.72382
  123 Torsion                 16    15    17    18        -177.35969
  124 Torsion                 16    15    17    19          -2.60282
  125 Torsion                 17    19    21    22         -48.57990
  126 Torsion                 17    19    21    23          69.79982
  127 Torsion                 17    19    21    24        -168.07058
  128 Torsion                 17    19    29    30         -20.74654
  129 Torsion                 17    19    29    31         159.74710
  130 Torsion                 18    17    19    20         139.14161
  131 Torsion                 18    17    19    21        -102.49251
  132 Torsion                 18    17    19    29          21.15427
  133 Torsion                 19    21    24    25          10.97359
  134 Torsion                 19    21    24    26        -168.42280
  135 Torsion                 19    29    31    32        -179.98994
  136 Torsion                 19    29    31    33           4.17770
  137 Torsion                 20    19    21    22          69.76262
  138 Torsion                 20    19    21    23        -171.85766
  139 Torsion                 20    19    21    24         -49.72806
  140 Torsion                 20    19    29    30        -139.23807
  141 Torsion                 20    19    29    31          41.25556
  142 Torsion                 21    19    29    30         100.49992
  143 Torsion                 21    19    29    31         -79.00645
  144 Torsion                 21    24    26    27        -179.22738
  145 Torsion                 21    24    26    28          -1.43919
  146 Torsion                 22    21    19    29        -170.46591
  147 Torsion                 22    21    24    25        -109.80685
  148 Torsion                 22    21    24    26          70.79676
  149 Torsion                 23    21    19    29         -52.08619
  150 Torsion                 23    21    24    25         133.15018
  151 Torsion                 23    21    24    26         -46.24621
  152 Torsion                 24    21    19    29          70.04341
  153 Torsion                 25    24    26    27           1.35357
  154 Torsion                 25    24    26    28         179.14176
  155 Torsion                 30    29    31    32           0.50365
  156 Torsion                 30    29    31    33        -175.32870


            XYZ format geometry
            -------------------
    33
 geometry
 H                    -1.31921763     5.60144893     1.23283173
 C                    -1.56116169     5.31482802     0.21018735
 H                    -1.58125936     6.20092361    -0.42217227
 H                    -2.53096516     4.82199468     0.18131664
 C                    -0.50254131     4.36930091    -0.30567925
 O                     0.16107280     4.66786930    -1.28960823
 N                    -0.35376797     3.22491575     0.35617730
 H                    -0.96653112     3.03163535     1.13471247
 C                     0.60194349     2.17432951     0.00338533
 H                     0.73484438     2.16615389    -1.07970309
 C                     1.95512982     2.49462864     0.65595350
 H                     1.85214103     2.50934947     1.74089295
 H                     2.69216188     1.73993292     0.37636074
 H                     2.30739115     3.46880125     0.31449973
 C                     0.08258858     0.78862644     0.42785968
 O                    -0.81698214     0.68310734     1.26182385
 N                     0.65528861    -0.27633584    -0.14007081
 H                     1.41720109    -0.12888184    -0.78863898
 C                     0.34288157    -1.67199237     0.17954408
 H                     0.12925746    -1.74937803     1.24892016
 C                    -0.91518983    -2.09007813    -0.61189426
 H                    -1.68766132    -1.33185569    -0.48573751
 H                    -0.66666859    -2.15475468    -1.67047592
 C                    -1.51335962    -3.41217328    -0.16030448
 O                    -1.16602275    -3.98172128     0.85871277
 N                    -2.43528866    -3.95782843    -0.91757611
 H                    -2.82063531    -4.82533136    -0.58721022
 H                    -2.74703454    -3.50285702    -1.75381622
 C                     1.56449100    -2.56461679    -0.12865722
 O                     2.43797776    -2.18285411    -0.90203174
 N                     1.64822723    -3.75378612     0.44866206
 H                     2.44483052    -4.33417776     0.24699463
 H                     0.88387356    -4.08008890     1.02733637

 ==============================================================================
                                internuclear distances
 ------------------------------------------------------------------------------
       center one      |      center two      | atomic units |  angstroms
 ------------------------------------------------------------------------------
    2 C                |   1 H                |     2.05841  |     1.08926
    3 H                |   2 C                |     2.05750  |     1.08878
    4 H                |   2 C                |     2.05645  |     1.08823
    5 C                |   2 C                |     2.85393  |     1.51024
    6 O                |   5 C                |     2.31261  |     1.22378
    7 N                |   5 C                |     2.51398  |     1.33034
    8 H                |   7 N                |     1.90755  |     1.00943
    9 C                |   7 N                |     2.76545  |     1.46341
   10 H                |   9 C                |     2.06215  |     1.09124
   11 C                |   9 C                |     2.90278  |     1.53608
   12 H                |  11 C                |     2.05964  |     1.08992
   13 H                |  11 C                |     2.06227  |     1.09131
   14 H                |  11 C                |     2.06118  |     1.09073
   15 C                |   9 C                |     2.90925  |     1.53951
   16 O                |  15 C                |     2.32663  |     1.23120
   17 N                |  15 C                |     2.52452  |     1.33592
   18 H                |  17 N                |     1.91124  |     1.01138
   19 C                |  17 N                |     2.76934  |     1.46547
   20 H                |  19 C                |     2.06594  |     1.09325
   21 C                |  19 C                |     2.91772  |     1.54399
   22 H                |  21 C                |     2.05931  |     1.08974
   23 H                |  21 C                |     2.05845  |     1.08928
   24 C                |  21 C                |     2.87193  |     1.51976
   25 O                |  24 C                |     2.30161  |     1.21796
   26 N                |  24 C                |     2.47918  |     1.31193
   27 H                |  26 N                |     1.89933  |     1.00508
   28 H                |  26 N                |     1.89301  |     1.00174
   29 C                |  19 C                |     2.91783  |     1.54405
   30 O                |  29 C                |     2.31970  |     1.22753
   31 N                |  29 C                |     2.50304  |     1.32455
   32 H                |  31 N                |     1.90113  |     1.00603
   33 H                |  31 N                |     1.91374  |     1.01271
 ------------------------------------------------------------------------------
                         number of included internuclear distances:         32
 ==============================================================================



 ==============================================================================
                                 internuclear angles
 ------------------------------------------------------------------------------
        center 1       |       center 2       |       center 3       |  degrees
 ------------------------------------------------------------------------------
    1 H                |   2 C                |   3 H                |   109.59
    1 H                |   2 C                |   4 H                |   110.00
    1 H                |   2 C                |   5 C                |   109.25
    3 H                |   2 C                |   4 H                |   109.68
    3 H                |   2 C                |   5 C                |   108.91
    4 H                |   2 C                |   5 C                |   109.40
    2 C                |   5 C                |   6 O                |   120.13
    2 C                |   5 C                |   7 N                |   116.55
    6 O                |   5 C                |   7 N                |   123.31
    5 C                |   7 N                |   8 H                |   118.72
    5 C                |   7 N                |   9 C                |   124.80
    8 H                |   7 N                |   9 C                |   116.42
    7 N                |   9 C                |  10 H                |   108.92
    7 N                |   9 C                |  11 C                |   108.86
    7 N                |   9 C                |  15 C                |   111.06
   10 H                |   9 C                |  11 C                |   108.42
   10 H                |   9 C                |  15 C                |   107.94
   11 C                |   9 C                |  15 C                |   111.58
    9 C                |  11 C                |  12 H                |   110.03
    9 C                |  11 C                |  13 H                |   109.99
    9 C                |  11 C                |  14 H                |   109.74
   12 H                |  11 C                |  13 H                |   109.16
   12 H                |  11 C                |  14 H                |   109.27
   13 H                |  11 C                |  14 H                |   108.62
    9 C                |  15 C                |  16 O                |   120.69
    9 C                |  15 C                |  17 N                |   117.11
   16 O                |  15 C                |  17 N                |   122.20
   15 C                |  17 N                |  18 H                |   118.64
   15 C                |  17 N                |  19 C                |   125.11
   18 H                |  17 N                |  19 C                |   116.06
   17 N                |  19 C                |  20 H                |   108.81
   17 N                |  19 C                |  21 C                |   108.65
   17 N                |  19 C                |  29 C                |   109.78
   20 H                |  19 C                |  21 C                |   108.85
   20 H                |  19 C                |  29 C                |   107.99
   21 C                |  19 C                |  29 C                |   112.69
   19 C                |  21 C                |  22 H                |   109.26
   19 C                |  21 C                |  23 H                |   109.17
   19 C                |  21 C                |  24 C                |   113.83
   22 H                |  21 C                |  23 H                |   108.39
   22 H                |  21 C                |  24 C                |   106.97
   23 H                |  21 C                |  24 C                |   109.08
   21 C                |  24 C                |  25 O                |   122.90
   21 C                |  24 C                |  26 N                |   117.83
   25 O                |  24 C                |  26 N                |   119.26
   24 C                |  26 N                |  27 H                |   116.02
   24 C                |  26 N                |  28 H                |   120.77
   27 H                |  26 N                |  28 H                |   123.17
   19 C                |  29 C                |  30 O                |   120.59
   19 C                |  29 C                |  31 N                |   118.82
   30 O                |  29 C                |  31 N                |   120.59
   29 C                |  31 N                |  32 H                |   118.73
   29 C                |  31 N                |  33 H                |   119.38
   32 H                |  31 N                |  33 H                |   121.76
 ------------------------------------------------------------------------------
                            number of included internuclear angles:         54
 ==============================================================================



  library name resolved from: environment
  library file name is: </opt/rit/el9/20230413/app/linux-rhel9-x86_64_v3/gcc-11.2.1/nwchem-7.2.0-oxtctbuhfuzyfaoziquq6bki22grib3g/share/nwchem/libraries/>
  


 Summary of "ao basis" -> "" (cartesian)
 ------------------------------------------------------------------------------
       Tag                 Description            Shells   Functions and Types
 ---------------- ------------------------------  ------  ---------------------
 *                        aug-cc-pvdz                 on all atoms 


                      Basis "ao basis" -> "ao basis" (cartesian)
                      -----
  H (Hydrogen)
  ------------
            Exponent  Coefficients 
       -------------- ---------------------------------------------------------
  1 S  1.30100000E+01  0.019685
  1 S  1.96200000E+00  0.137977
  1 S  4.44600000E-01  0.478148

  2 S  1.22000000E-01  1.000000

  3 S  2.97400000E-02  1.000000

  4 P  7.27000000E-01  1.000000

  5 P  1.41000000E-01  1.000000

  C (Carbon)
  ----------
            Exponent  Coefficients 
       -------------- ---------------------------------------------------------
  1 S  6.66500000E+03  0.000692
  1 S  1.00000000E+03  0.005329
  1 S  2.28000000E+02  0.027077
  1 S  6.47100000E+01  0.101718
  1 S  2.10600000E+01  0.274740
  1 S  7.49500000E+00  0.448564
  1 S  2.79700000E+00  0.285074
  1 S  5.21500000E-01  0.015204

  2 S  6.66500000E+03 -0.000146
  2 S  1.00000000E+03 -0.001154
  2 S  2.28000000E+02 -0.005725
  2 S  6.47100000E+01 -0.023312
  2 S  2.10600000E+01 -0.063955
  2 S  7.49500000E+00 -0.149981
  2 S  2.79700000E+00 -0.127262
  2 S  5.21500000E-01  0.544529

  3 S  1.59600000E-01  1.000000

  4 S  4.69000000E-02  1.000000

  5 P  9.43900000E+00  0.038109
  5 P  2.00200000E+00  0.209480
  5 P  5.45600000E-01  0.508557

  6 P  1.51700000E-01  1.000000

  7 P  4.04100000E-02  1.000000

  8 D  5.50000000E-01  1.000000

  9 D  1.51000000E-01  1.000000

  O (Oxygen)
  ----------
            Exponent  Coefficients 
       -------------- ---------------------------------------------------------
  1 S  1.17200000E+04  0.000710
  1 S  1.75900000E+03  0.005470
  1 S  4.00800000E+02  0.027837
  1 S  1.13700000E+02  0.104800
  1 S  3.70300000E+01  0.283062
  1 S  1.32700000E+01  0.448719
  1 S  5.02500000E+00  0.270952
  1 S  1.01300000E+00  0.015458

  2 S  1.17200000E+04 -0.000160
  2 S  1.75900000E+03 -0.001263
  2 S  4.00800000E+02 -0.006267
  2 S  1.13700000E+02 -0.025716
  2 S  3.70300000E+01 -0.070924
  2 S  1.32700000E+01 -0.165411
  2 S  5.02500000E+00 -0.116955
  2 S  1.01300000E+00  0.557368

  3 S  3.02300000E-01  1.000000

  4 S  7.89600000E-02  1.000000

  5 P  1.77000000E+01  0.043018
  5 P  3.85400000E+00  0.228913
  5 P  1.04600000E+00  0.508728

  6 P  2.75300000E-01  1.000000

  7 P  6.85600000E-02  1.000000

  8 D  1.18500000E+00  1.000000

  9 D  3.32000000E-01  1.000000

  N (Nitrogen)
  ------------
            Exponent  Coefficients 
       -------------- ---------------------------------------------------------
  1 S  9.04600000E+03  0.000700
  1 S  1.35700000E+03  0.005389
  1 S  3.09300000E+02  0.027406
  1 S  8.77300000E+01  0.103207
  1 S  2.85600000E+01  0.278723
  1 S  1.02100000E+01  0.448540
  1 S  3.83800000E+00  0.278238
  1 S  7.46600000E-01  0.015440

  2 S  9.04600000E+03 -0.000153
  2 S  1.35700000E+03 -0.001208
  2 S  3.09300000E+02 -0.005992
  2 S  8.77300000E+01 -0.024544
  2 S  2.85600000E+01 -0.067459
  2 S  1.02100000E+01 -0.158078
  2 S  3.83800000E+00 -0.121831
  2 S  7.46600000E-01  0.549003

  3 S  2.24800000E-01  1.000000

  4 S  6.12400000E-02  1.000000

  5 P  1.35500000E+01  0.039919
  5 P  2.91700000E+00  0.217169
  5 P  7.97300000E-01  0.510319

  6 P  2.18500000E-01  1.000000

  7 P  5.61100000E-02  1.000000

  8 D  8.17000000E-01  1.000000

  9 D  2.30000000E-01  1.000000



 Summary of "ao basis" -> "ao basis" (cartesian)
 ------------------------------------------------------------------------------
       Tag                 Description            Shells   Functions and Types
 ---------------- ------------------------------  ------  ---------------------
 H                        aug-cc-pvdz                5        9   3s2p
 C                        aug-cc-pvdz                9       25   4s3p2d
 O                        aug-cc-pvdz                9       25   4s3p2d
 N                        aug-cc-pvdz                9       25   4s3p2d


                                 NWChem SCF Module
                                 -----------------



  ao basis        = "ao basis"
  functions       =   569
  atoms           =    33
  closed shells   =    65
  open shells     =     0
  charge          =   0.00
  wavefunction    = RHF 
  input vectors   = atomic
  output vectors  = ./ALA_ASN_4.movecs
  use symmetry    = F
  symmetry adapt  = F


 Summary of "ao basis" -> "ao basis" (cartesian)
 ------------------------------------------------------------------------------
       Tag                 Description            Shells   Functions and Types
 ---------------- ------------------------------  ------  ---------------------
 H                        aug-cc-pvdz                5        9   3s2p
 C                        aug-cc-pvdz                9       25   4s3p2d
 O                        aug-cc-pvdz                9       25   4s3p2d
 N                        aug-cc-pvdz                9       25   4s3p2d



 Forming initial guess at       0.9s


 !! The overlap matrix has   4 vectors deemed linearly dependent with
    eigenvalues:
 2.66D-06 2.96D-06 8.73D-06 9.20D-06


      Superposition of Atomic Density Guess
      -------------------------------------

 Sum of atomic energies:        -863.27065637

      Non-variational initial energy
      ------------------------------

 Total energy =    -874.050130
 1-e energy   =   -3638.903940
 2-e energy   =    1524.346611
 HOMO         =      -0.313917
 LUMO         =       0.009280


 Starting SCF solution at     272.2s



 ----------------------------------------------
         Quadratically convergent ROHF

 Convergence threshold     :          1.000E-04
 Maximum no. of iterations :           30
 Final Fock-matrix accuracy:          1.000E-10
 ----------------------------------------------


              iter       energy          gnorm     gmax       time
             ----- ------------------- --------- --------- --------
                 1     -867.1678968967  2.66D+00  1.39D-01    428.8
                 2     -867.5370131811  8.44D-01  4.27D-02    885.0
                 3     -867.5997661325  6.81D-02  5.66D-03   1498.8
                 4     -867.6004957375  4.07D-03  4.09D-04   2265.9
                 5     -867.6004988063  7.35D-06  5.01D-07   3882.6


       Final RHF  results 
       ------------------ 

         Total SCF energy =   -867.600498806298
      One-electron energy =  -3650.668878957202
      Two-electron energy =   1542.561181490452
 Nuclear repulsion energy =   1240.507198660452

        Time for solution =   3651.8s


             Final eigenvalues
             -----------------

              1      
    1  -20.5468
    2  -20.5405
    3  -20.5371
    4  -20.5160
    5  -15.6171
    6  -15.6102
    7  -15.5968
    8  -15.5914
    9  -11.3791
   10  -11.3718
   11  -11.3715
   12  -11.3485
   13  -11.3154
   14  -11.2987
   15  -11.2761
   16  -11.2375
   17  -11.2359
   18   -1.4200
   19   -1.4025
   20   -1.3949
   21   -1.3779
   22   -1.2554
   23   -1.2516
   24   -1.2399
   25   -1.2274
   26   -1.0873
   27   -1.0513
   28   -0.9891
   29   -0.9580
   30   -0.8931
   31   -0.8352
   32   -0.8217
   33   -0.7951
   34   -0.7874
   35   -0.7679
   36   -0.7521
   37   -0.7194
   38   -0.7051
   39   -0.6820
   40   -0.6702
   41   -0.6547
   42   -0.6512
   43   -0.6431
   44   -0.6269
   45   -0.6221
   46   -0.6096
   47   -0.6039
   48   -0.5919
   49   -0.5795
   50   -0.5710
   51   -0.5628
   52   -0.5510
   53   -0.5474
   54   -0.5423
   55   -0.5260
   56   -0.5203
   57   -0.4960
   58   -0.4533
   59   -0.4450
   60   -0.4366
   61   -0.4334
   62   -0.4198
   63   -0.4143
   64   -0.4070
   65   -0.3893
   66    0.0204
   67    0.0370
   68    0.0376
   69    0.0436
   70    0.0490
   71    0.0529
   72    0.0573
   73    0.0630
   74    0.0674
   75    0.0704

                       ROHF Final Molecular Orbital Analysis
                       -------------------------------------

 Vector   18  Occ=2.000000D+00  E=-1.419952D+00
              MO Center= -1.3D+00, -3.8D+00,  3.6D-01, r^2= 1.1D+00
   Bfn.  Coefficient  Atom+Function         Bfn.  Coefficient  Atom+Function  
  ----- ------------  ---------------      ----- ------------  ---------------
   411      0.362627  25 O  s               410      0.346511  25 O  s         
   385      0.246277  24 C  s         

 Vector   19  Occ=2.000000D+00  E=-1.402539D+00
              MO Center=  6.8D-01, -7.3D-01,  2.0D-01, r^2= 5.5D+00
   Bfn.  Coefficient  Atom+Function         Bfn.  Coefficient  Atom+Function  
  ----- ------------  ---------------      ----- ------------  ---------------
   250      0.258573  16 O  s               504      0.250103  30 O  s         
   249      0.247176  16 O  s               503      0.228800  30 O  s         
   224      0.180001  15 C  s               478      0.162832  29 C  s         

 Vector   20  Occ=2.000000D+00  E=-1.394937D+00
              MO Center=  9.6D-01, -9.5D-01,  7.2D-02, r^2= 6.0D+00
   Bfn.  Coefficient  Atom+Function         Bfn.  Coefficient  Atom+Function  
  ----- ------------  ---------------      ----- ------------  ---------------
   504      0.287018  30 O  s               503      0.265169  30 O  s         
   250     -0.247222  16 O  s               249     -0.235778  16 O  s         
   478      0.182138  29 C  s               224     -0.159061  15 C  s         

 Vector   21  Occ=2.000000D+00  E=-1.377893D+00
              MO Center= -9.8D-02,  4.3D+00, -7.5D-01, r^2= 1.7D+00
   Bfn.  Coefficient  Atom+Function         Bfn.  Coefficient  Atom+Function  
  ----- ------------  ---------------      ----- ------------  ---------------
    80      0.345235   6 O  s                79      0.343350   6 O  s         
    54      0.242656   5 C  s         

 Vector   22  Occ=2.000000D+00  E=-1.255410D+00
              MO Center=  3.3D-01, -3.7D-01,  7.5D-02, r^2= 2.3D+00
   Bfn.  Coefficient  Atom+Function         Bfn.  Coefficient  Atom+Function  
  ----- ------------  ---------------      ----- ------------  ---------------
   275      0.412371  17 N  s               274      0.336936  17 N  s         
   250     -0.215702  16 O  s               249     -0.179597  16 O  s         

 Vector   23  Occ=2.000000D+00  E=-1.251596D+00
              MO Center= -2.0D+00, -3.7D+00, -5.7D-01, r^2= 2.1D+00
   Bfn.  Coefficient  Atom+Function         Bfn.  Coefficient  Atom+Function  
  ----- ------------  ---------------      ----- ------------  ---------------
   436      0.411664  26 N  s               435      0.360964  26 N  s         
   411     -0.209110  25 O  s               410     -0.183179  25 O  s         
   390     -0.173456  24 C  pz              468      0.166696  28 H  s         
   343     -0.161977  21 C  s               459      0.151383  27 H  s         

 Vector   24  Occ=2.000000D+00  E=-1.239919D+00
              MO Center= -2.0D-01,  3.4D+00,  7.0D-02, r^2= 1.8D+00
   Bfn.  Coefficient  Atom+Function         Bfn.  Coefficient  Atom+Function  
  ----- ------------  ---------------      ----- ------------  ---------------
   105      0.438366   7 N  s               104      0.342608   7 N  s         
    80     -0.213926   6 O  s                79     -0.186620   6 O  s         
   128      0.152594   8 H  s         

 Vector   25  Occ=2.000000D+00  E=-1.227438D+00
              MO Center=  1.6D+00, -3.4D+00,  2.1D-01, r^2= 1.5D+00
   Bfn.  Coefficient  Atom+Function         Bfn.  Coefficient  Atom+Function  
  ----- ------------  ---------------      ----- ------------  ---------------
   529      0.402058  31 N  s               528      0.367758  31 N  s         
   504     -0.210758  30 O  s               503     -0.179239  30 O  s         
   309     -0.167750  19 C  s               482     -0.160797  29 C  py        
   561      0.160946  33 H  s               552      0.155611  32 H  s         

 Vector   26  Occ=2.000000D+00  E=-1.087312D+00
              MO Center= -1.1D-01, -8.9D-01, -1.3D-01, r^2= 6.2D+00
   Bfn.  Coefficient  Atom+Function         Bfn.  Coefficient  Atom+Function  
  ----- ------------  ---------------      ----- ------------  ---------------
   343      0.281628  21 C  s               342      0.239551  21 C  s         
   308      0.206948  19 C  s         

 Vector   27  Occ=2.000000D+00  E=-1.051288D+00
              MO Center=  1.7D-01,  1.8D+00,  8.1D-02, r^2= 8.6D+00
   Bfn.  Coefficient  Atom+Function         Bfn.  Coefficient  Atom+Function  
  ----- ------------  ---------------      ----- ------------  ---------------
   138      0.212891   9 C  s               172      0.189444  11 C  s         
    12     -0.179884   2 C  s               343      0.165477  21 C  s         
   342      0.155071  21 C  s         

 Vector   28  Occ=2.000000D+00  E=-9.890723D-01
              MO Center= -8.2D-01,  4.3D+00,  1.9D-01, r^2= 6.0D+00
   Bfn.  Coefficient  Atom+Function         Bfn.  Coefficient  Atom+Function  
  ----- ------------  ---------------      ----- ------------  ---------------
    11      0.318836   2 C  s                55      0.162061   5 C  s         
   144      0.155415   9 C  px        

 Vector   29  Occ=2.000000D+00  E=-9.580059D-01
              MO Center=  7.6D-02, -1.4D+00, -7.3D-02, r^2= 6.9D+00
   Bfn.  Coefficient  Atom+Function         Bfn.  Coefficient  Atom+Function  
  ----- ------------  ---------------      ----- ------------  ---------------
   225     -0.245380  15 C  s               139      0.237199   9 C  s         
   145     -0.206864   9 C  py              308     -0.204717  19 C  s         
   343      0.185299  21 C  s               342      0.178857  21 C  s         
   314     -0.173874  19 C  px              231     -0.166918  15 C  py        
   144     -0.162621   9 C  px              278      0.156017  17 N  py        

 Vector   30  Occ=2.000000D+00  E=-8.931184D-01
              MO Center=  9.0D-01,  1.7D+00,  3.4D-01, r^2= 7.0D+00
   Bfn.  Coefficient  Atom+Function         Bfn.  Coefficient  Atom+Function  
  ----- ------------  ---------------      ----- ------------  ---------------
   144      0.242493   9 C  px              172      0.240720  11 C  s         
   145      0.222992   9 C  py              309     -0.190329  19 C  s         
   138     -0.171875   9 C  s               225      0.162059  15 C  s         

 Vector   31  Occ=2.000000D+00  E=-8.352101D-01
              MO Center= -6.8D-01, -3.2D+00, -3.1D-01, r^2= 6.6D+00
   Bfn.  Coefficient  Atom+Function         Bfn.  Coefficient  Atom+Function  
  ----- ------------  ---------------      ----- ------------  ---------------
   309      0.253875  19 C  s               438      0.202324  26 N  px        
   385      0.197628  24 C  s               532      0.182949  31 N  py        
   226      0.167186  15 C  s               478      0.165023  29 C  s         
   468     -0.164172  28 H  s               440      0.163122  26 N  pz        
   318     -0.158636  19 C  py              387     -0.154029  24 C  s         

 Vector   32  Occ=2.000000D+00  E=-8.216584D-01
              MO Center=  6.2D-02, -5.1D-01, -2.6D-02, r^2= 1.1D+01
   Bfn.  Coefficient  Atom+Function         Bfn.  Coefficient  Atom+Function  
  ----- ------------  ---------------      ----- ------------  ---------------
   225      0.229637  15 C  s               278      0.180921  17 N  py        
   275     -0.167198  17 N  s               298     -0.166054  18 H  s         
   309      0.163324  19 C  s               224      0.157337  15 C  s         
   386     -0.154792  24 C  s               108      0.151947   7 N  py        

 Vector   33  Occ=2.000000D+00  E=-7.950501D-01
              MO Center=  1.0D-04, -1.8D+00, -1.6D-01, r^2= 6.6D+00
   Bfn.  Coefficient  Atom+Function         Bfn.  Coefficient  Atom+Function  
  ----- ------------  ---------------      ----- ------------  ---------------
   275      0.256960  17 N  s               298      0.237379  18 H  s         
   225     -0.215564  15 C  s               315     -0.187314  19 C  py        
   277      0.185970  17 N  px              279     -0.180313  17 N  pz        
   440     -0.176309  26 N  pz              468      0.171577  28 H  s         
   333     -0.168909  20 H  s               343     -0.151517  21 C  s         

 Vector   34  Occ=2.000000D+00  E=-7.873892D-01
              MO Center= -5.6D-02,  2.8D+00,  1.6D-01, r^2= 4.3D+00
   Bfn.  Coefficient  Atom+Function         Bfn.  Coefficient  Atom+Function  
  ----- ------------  ---------------      ----- ------------  ---------------
   128      0.292726   8 H  s               109      0.268420   7 N  pz        
   139     -0.260807   9 C  s               225      0.261890  15 C  s         
   105      0.254202   7 N  s                55     -0.212686   5 C  s         
   144      0.202176   9 C  px              163     -0.182677  10 H  s         
   108     -0.171058   7 N  py               54     -0.165859   5 C  s         

 Vector   35  Occ=2.000000D+00  E=-7.678969D-01
              MO Center= -5.8D-01, -3.2D+00, -2.8D-01, r^2= 6.3D+00
   Bfn.  Coefficient  Atom+Function         Bfn.  Coefficient  Atom+Function  
  ----- ------------  ---------------      ----- ------------  ---------------
   439      0.222650  26 N  py              459     -0.218683  27 H  s         
   561      0.201666  33 H  s               468      0.192771  28 H  s         
   440     -0.176148  26 N  pz              533      0.150959  31 N  pz        

 Vector   36  Occ=2.000000D+00  E=-7.521235D-01
              MO Center= -2.1D-01, -1.7D+00, -1.4D-01, r^2= 1.2D+01
   Bfn.  Coefficient  Atom+Function         Bfn.  Coefficient  Atom+Function  
  ----- ------------  ---------------      ----- ------------  ---------------
   439      0.189345  26 N  py              561     -0.187368  33 H  s         
   468      0.182260  28 H  s               459     -0.179488  27 H  s         
   315      0.175784  19 C  py              531      0.166983  31 N  px        
   440     -0.157612  26 N  pz        

 Vector   37  Occ=2.000000D+00  E=-7.193764D-01
              MO Center=  5.8D-01, -5.2D-01,  2.5D-01, r^2= 1.5D+01
   Bfn.  Coefficient  Atom+Function         Bfn.  Coefficient  Atom+Function  
  ----- ------------  ---------------      ----- ------------  ---------------
   531      0.261570  31 N  px              552      0.246011  32 H  s         
   145     -0.204325   9 C  py              228      0.191081  15 C  py        
   142     -0.179688   9 C  py              561     -0.174326  33 H  s         
   225     -0.150592  15 C  s         

 Vector   38  Occ=2.000000D+00  E=-7.050795D-01
              MO Center= -8.3D-01, -2.6D+00,  1.0D-02, r^2= 5.5D+00
   Bfn.  Coefficient  Atom+Function         Bfn.  Coefficient  Atom+Function  
  ----- ------------  ---------------      ----- ------------  ---------------
   309      0.235488  19 C  s               414      0.214924  25 O  py        
   411     -0.208679  25 O  s               347      0.175542  21 C  pz        
   388      0.157038  24 C  px              390      0.157163  24 C  pz        
   375     -0.152569  23 H  s               459      0.150886  27 H  s         

 Vector   39  Occ=2.000000D+00  E=-6.820482D-01
              MO Center=  4.7D-02, -1.1D+00,  3.8D-02, r^2= 1.2D+01
   Bfn.  Coefficient  Atom+Function         Bfn.  Coefficient  Atom+Function  
  ----- ------------  ---------------      ----- ------------  ---------------
   506     -0.166822  30 O  px              482      0.153424  29 C  py        
   388      0.152518  24 C  px              532     -0.152047  31 N  py        

 Vector   40  Occ=2.000000D+00  E=-6.701678D-01
              MO Center=  1.2D-01,  2.1D+00, -1.3D-01, r^2= 9.8D+00
   Bfn.  Coefficient  Atom+Function         Bfn.  Coefficient  Atom+Function  
  ----- ------------  ---------------      ----- ------------  ---------------
    80      0.204274   6 O  s                84     -0.194544   6 O  pz        
    12     -0.184093   2 C  s               143     -0.176435   9 C  pz        
   107     -0.163212   7 N  px              162      0.154757  10 H  s         

 Vector   41  Occ=2.000000D+00  E=-6.546903D-01
              MO Center= -5.5D-01,  6.0D-01, -4.5D-02, r^2= 1.3D+01
   Bfn.  Coefficient  Atom+Function         Bfn.  Coefficient  Atom+Function  
  ----- ------------  ---------------      ----- ------------  ---------------
    58      0.173742   5 C  py              345      0.162847  21 C  px        
   366     -0.151254  22 H  s         

 Vector   42  Occ=2.000000D+00  E=-6.511562D-01
              MO Center=  3.9D-01, -4.4D-01, -6.8D-02, r^2= 1.1D+01
   Bfn.  Coefficient  Atom+Function         Bfn.  Coefficient  Atom+Function  
  ----- ------------  ---------------      ----- ------------  ---------------
   343      0.198427  21 C  s               482      0.187044  29 C  py        
   506     -0.186201  30 O  px              504     -0.171837  30 O  s         
   480      0.166303  29 C  s               508      0.162671  30 O  pz        

 Vector   43  Occ=2.000000D+00  E=-6.430534D-01
              MO Center=  3.8D-02, -1.0D+00,  4.3D-02, r^2= 1.1D+01
   Bfn.  Coefficient  Atom+Function         Bfn.  Coefficient  Atom+Function  
  ----- ------------  ---------------      ----- ------------  ---------------
   226      0.203245  15 C  s               390     -0.159870  24 C  pz        
   480     -0.157692  29 C  s         

 Vector   44  Occ=2.000000D+00  E=-6.269361D-01
              MO Center=  3.2D-02,  1.9D+00,  5.1D-02, r^2= 1.1D+01
   Bfn.  Coefficient  Atom+Function         Bfn.  Coefficient  Atom+Function  
  ----- ------------  ---------------      ----- ------------  ---------------
   139      0.466890   9 C  s               173     -0.356578  11 C  s         
   309     -0.202219  19 C  s               225     -0.198403  15 C  s         
    59      0.185126   5 C  pz              343      0.179810  21 C  s         
   315      0.171101  19 C  py              141      0.169810   9 C  px        

 Vector   45  Occ=2.000000D+00  E=-6.220961D-01
              MO Center= -5.2D-01,  3.2D-01, -9.6D-02, r^2= 1.5D+01
   Bfn.  Coefficient  Atom+Function         Bfn.  Coefficient  Atom+Function  
  ----- ------------  ---------------      ----- ------------  ---------------
   343      0.344682  21 C  s               309     -0.187773  19 C  s         
   139     -0.185974   9 C  s               386     -0.158826  24 C  s         
   315      0.152961  19 C  py        

 Vector   46  Occ=2.000000D+00  E=-6.096242D-01
              MO Center= -3.0D-01,  6.0D-01,  4.0D-01, r^2= 1.3D+01
   Bfn.  Coefficient  Atom+Function         Bfn.  Coefficient  Atom+Function  
  ----- ------------  ---------------      ----- ------------  ---------------
   254      0.219483  16 O  pz              227      0.190369  15 C  px        
   415     -0.185158  25 O  pz              309     -0.159222  19 C  s         

 Vector   47  Occ=2.000000D+00  E=-6.038990D-01
              MO Center=  5.7D-01, -2.0D+00, -1.9D-01, r^2= 7.6D+00
   Bfn.  Coefficient  Atom+Function         Bfn.  Coefficient  Atom+Function  
  ----- ------------  ---------------      ----- ------------  ---------------
   507      0.208990  30 O  py              413     -0.191301  25 O  px        
   483      0.189612  29 C  pz              343      0.178292  21 C  s         
   506      0.168720  30 O  px              481     -0.167491  29 C  px        
   480     -0.160852  29 C  s               309     -0.158548  19 C  s         
   226      0.157543  15 C  s               347     -0.155297  21 C  pz        

 Vector   48  Occ=2.000000D+00  E=-5.918666D-01
              MO Center=  3.1D-02,  2.4D-01,  3.6D-02, r^2= 1.7D+01
   Bfn.  Coefficient  Atom+Function         Bfn.  Coefficient  Atom+Function  
  ----- ------------  ---------------      ----- ------------  ---------------
   508      0.188257  30 O  pz        

 Vector   49  Occ=2.000000D+00  E=-5.795450D-01
              MO Center=  4.6D-01,  2.1D+00,  1.8D-02, r^2= 1.3D+01
   Bfn.  Coefficient  Atom+Function         Bfn.  Coefficient  Atom+Function  
  ----- ------------  ---------------      ----- ------------  ---------------
   205      0.199513  13 H  s                84      0.187629   6 O  pz        
    15      0.181659   2 C  py              176     -0.171678  11 C  py        
    57      0.168370   5 C  px              206      0.166661  13 H  s         

 Vector   50  Occ=2.000000D+00  E=-5.709814D-01
              MO Center= -1.0D-01, -4.2D-01,  2.2D-01, r^2= 1.1D+01
   Bfn.  Coefficient  Atom+Function         Bfn.  Coefficient  Atom+Function  
  ----- ------------  ---------------      ----- ------------  ---------------
   252      0.193536  16 O  px              389     -0.176171  24 C  py        
   275     -0.171060  17 N  s               277      0.161946  17 N  px        
   346      0.159612  21 C  py              415     -0.156516  25 O  pz        
   229      0.154474  15 C  pz              298      0.152365  18 H  s         

 Vector   51  Occ=2.000000D+00  E=-5.627538D-01
              MO Center= -6.2D-01,  4.5D+00, -1.5D-01, r^2= 5.3D+00
   Bfn.  Coefficient  Atom+Function         Bfn.  Coefficient  Atom+Function  
  ----- ------------  ---------------      ----- ------------  ---------------
    36      0.272790   3 H  s                35      0.234747   3 H  s         
    84     -0.224595   6 O  pz               44     -0.220158   4 H  s         
    15      0.186574   2 C  py               14      0.175933   2 C  px        
    16     -0.174128   2 C  pz               59      0.151101   5 C  pz        

 Vector   52  Occ=2.000000D+00  E=-5.510355D-01
              MO Center=  4.1D-01,  6.3D-01,  6.6D-02, r^2= 1.5D+01
   Bfn.  Coefficient  Atom+Function         Bfn.  Coefficient  Atom+Function  
  ----- ------------  ---------------      ----- ------------  ---------------
   309      0.306176  19 C  s               343     -0.211639  21 C  s         
   333     -0.191473  20 H  s                35      0.155537   3 H  s         
   141      0.156248   9 C  px              508      0.150286  30 O  pz        

 Vector   53  Occ=2.000000D+00  E=-5.474333D-01
              MO Center=  2.3D-01, -4.8D-01,  3.9D-02, r^2= 1.2D+01
   Bfn.  Coefficient  Atom+Function         Bfn.  Coefficient  Atom+Function  
  ----- ------------  ---------------      ----- ------------  ---------------
   214      0.207188  14 H  s               176      0.203107  11 C  py        
   367     -0.196110  22 H  s               215      0.185394  14 H  s         
   376      0.179294  23 H  s               366     -0.168317  22 H  s         
   333      0.167246  20 H  s               375      0.156258  23 H  s         
   345      0.154342  21 C  px        

 Vector   54  Occ=2.000000D+00  E=-5.422690D-01
              MO Center=  4.0D-02,  1.3D+00,  1.1D-01, r^2= 1.4D+01
   Bfn.  Coefficient  Atom+Function         Bfn.  Coefficient  Atom+Function  
  ----- ------------  ---------------      ----- ------------  ---------------
   215      0.208413  14 H  s               176      0.179792  11 C  py        
    35      0.174901   3 H  s               214      0.165743  14 H  s         
   345     -0.159643  21 C  px               16     -0.151551   2 C  pz        

 Vector   55  Occ=2.000000D+00  E=-5.260195D-01
              MO Center=  8.4D-01,  2.0D+00,  3.6D-01, r^2= 7.1D+00
   Bfn.  Coefficient  Atom+Function         Bfn.  Coefficient  Atom+Function  
  ----- ------------  ---------------      ----- ------------  ---------------
   197      0.263311  12 H  s               196      0.238641  12 H  s         
   163      0.225979  10 H  s               177      0.226067  11 C  pz        
   205     -0.193926  13 H  s               162      0.177896  10 H  s         
   175     -0.163460  11 C  px              206     -0.155309  13 H  s         
   143     -0.153220   9 C  pz        

 Vector   56  Occ=2.000000D+00  E=-5.203150D-01
              MO Center= -1.5D-02,  8.4D-01,  2.1D-01, r^2= 1.0D+01
   Bfn.  Coefficient  Atom+Function         Bfn.  Coefficient  Atom+Function  
  ----- ------------  ---------------      ----- ------------  ---------------
   163      0.215281  10 H  s               313     -0.191276  19 C  pz        
   333     -0.191204  20 H  s               254      0.179275  16 O  pz        
   252      0.170258  16 O  px              347      0.169321  21 C  pz        
   206     -0.167030  13 H  s               314     -0.160517  19 C  px        
   276      0.159121  17 N  s               332     -0.159640  20 H  s         

 Vector   57  Occ=2.000000D+00  E=-4.960242D-01
              MO Center=  1.3D-01,  3.3D+00, -1.1D-01, r^2= 6.0D+00
   Bfn.  Coefficient  Atom+Function         Bfn.  Coefficient  Atom+Function  
  ----- ------------  ---------------      ----- ------------  ---------------
    82      0.197661   6 O  px              143     -0.197176   9 C  pz        
    84      0.186038   6 O  pz              162      0.164653  10 H  s         
   177      0.161017  11 C  pz              175      0.152509  11 C  px        

 Vector   58  Occ=2.000000D+00  E=-4.533467D-01
              MO Center= -1.0D+00, -3.3D+00,  4.5D-01, r^2= 3.7D+00
   Bfn.  Coefficient  Atom+Function         Bfn.  Coefficient  Atom+Function  
  ----- ------------  ---------------      ----- ------------  ---------------
   414      0.409265  25 O  py              417      0.321356  25 O  py        
   413      0.314683  25 O  px              416      0.260786  25 O  px        
   276     -0.204792  17 N  s               343      0.198050  21 C  s         
   436      0.193130  26 N  s               226      0.183302  15 C  s         
   404     -0.183232  24 C  dxy             346      0.171120  21 C  py        

 Vector   59  Occ=2.000000D+00  E=-4.450070D-01
              MO Center= -4.0D-01, -3.2D+00, -2.5D-01, r^2= 6.3D+00
   Bfn.  Coefficient  Atom+Function         Bfn.  Coefficient  Atom+Function  
  ----- ------------  ---------------      ----- ------------  ---------------
   413      0.280052  25 O  px              309     -0.229100  19 C  s         
   416      0.225995  25 O  px              506      0.222783  30 O  px        
   438     -0.213749  26 N  px              507     -0.203381  30 O  py        
   441     -0.193575  26 N  px              440      0.190801  26 N  pz        
   343      0.182693  21 C  s               439      0.175446  26 N  py        

 Vector   60  Occ=2.000000D+00  E=-4.366356D-01
              MO Center= -1.8D-01, -2.0D-01,  4.5D-01, r^2= 7.9D+00
   Bfn.  Coefficient  Atom+Function         Bfn.  Coefficient  Atom+Function  
  ----- ------------  ---------------      ----- ------------  ---------------
   253      0.424507  16 O  py              256      0.342011  16 O  py        
   507     -0.178883  30 O  py              315     -0.169317  19 C  py        
   142      0.160875   9 C  py              275      0.158552  17 N  s         

 Vector   61  Occ=2.000000D+00  E=-4.333911D-01
              MO Center=  4.9D-01, -1.7D+00, -1.2D-01, r^2= 8.5D+00
   Bfn.  Coefficient  Atom+Function         Bfn.  Coefficient  Atom+Function  
  ----- ------------  ---------------      ----- ------------  ---------------
   309      0.424564  19 C  s               507      0.340983  30 O  py        
   253      0.280902  16 O  py              510      0.278358  30 O  py        
   256      0.233100  16 O  py              333     -0.232300  20 H  s         
   479     -0.206850  29 C  s               506     -0.201302  30 O  px        
   343     -0.192208  21 C  s               145      0.182147   9 C  py        

 Vector   62  Occ=2.000000D+00  E=-4.197891D-01
              MO Center=  1.2D+00, -2.4D+00, -2.2D-02, r^2= 6.0D+00
   Bfn.  Coefficient  Atom+Function         Bfn.  Coefficient  Atom+Function  
  ----- ------------  ---------------      ----- ------------  ---------------
   533      0.291904  31 N  pz              536      0.253640  31 N  pz        
   508     -0.246378  30 O  pz              511     -0.191449  30 O  pz        
   507     -0.187426  30 O  py              531      0.180331  31 N  px        
   534      0.159482  31 N  px              279     -0.154811  17 N  pz        

 Vector   63  Occ=2.000000D+00  E=-4.143465D-01
              MO Center= -1.2D-01,  4.4D+00, -8.4D-01, r^2= 3.5D+00
   Bfn.  Coefficient  Atom+Function         Bfn.  Coefficient  Atom+Function  
  ----- ------------  ---------------      ----- ------------  ---------------
    83      0.453820   6 O  py               86      0.362361   6 O  py        
    13      0.351871   2 C  s                82     -0.304948   6 O  px        
   105      0.241392   7 N  s                85     -0.236107   6 O  px        
    64     -0.189068   5 C  py               17     -0.186619   2 C  px        
   145     -0.181081   9 C  py               14     -0.163080   2 C  px        

 Vector   64  Occ=2.000000D+00  E=-4.070356D-01
              MO Center=  4.5D-01, -6.3D-01,  1.8D-01, r^2= 6.8D+00
   Bfn.  Coefficient  Atom+Function         Bfn.  Coefficient  Atom+Function  
  ----- ------------  ---------------      ----- ------------  ---------------
   279      0.275721  17 N  pz              282      0.253079  17 N  pz        
   277      0.242321  17 N  px              280      0.214713  17 N  px        
   254     -0.207182  16 O  pz              252     -0.187408  16 O  px        
   533      0.163022  31 N  pz              257     -0.162196  16 O  pz        
   309     -0.153596  19 C  s         

 Vector   65  Occ=2.000000D+00  E=-3.892750D-01
              MO Center=  3.6D-02,  3.2D+00, -1.4D-01, r^2= 4.1D+00
   Bfn.  Coefficient  Atom+Function         Bfn.  Coefficient  Atom+Function  
  ----- ------------  ---------------      ----- ------------  ---------------
   107      0.294794   7 N  px              110      0.279368   7 N  px        
   139      0.270120   9 C  s               109      0.261617   7 N  pz        
   112      0.232596   7 N  pz               82     -0.226790   6 O  px        
   174      0.199187  11 C  s                84     -0.194926   6 O  pz        
    85     -0.175968   6 O  px              108      0.172994   7 N  py        

 Vector   66  Occ=0.000000D+00  E= 2.038193D-02
              MO Center= -3.4D+00, -3.8D+00, -2.3D+00, r^2= 1.6D+01
   Bfn.  Coefficient  Atom+Function         Bfn.  Coefficient  Atom+Function  
  ----- ------------  ---------------      ----- ------------  ---------------
   437     -3.104339  26 N  s               387      2.989983  24 C  s         
   470     -1.991391  28 H  s               394     -1.974876  24 C  px        
   344      1.694570  21 C  s               480      1.671969  29 C  s         
   395     -1.597640  24 C  py              343      1.586084  21 C  s         
   461     -1.565016  27 H  s               376     -1.200688  23 H  s         

 Vector   67  Occ=0.000000D+00  E= 3.698888D-02
              MO Center= -2.1D+00,  2.4D+00,  5.8D-01, r^2= 4.1D+01
   Bfn.  Coefficient  Atom+Function         Bfn.  Coefficient  Atom+Function  
  ----- ------------  ---------------      ----- ------------  ---------------
   174      3.006599  11 C  s               148      2.720035   9 C  py        
    64      2.465333   5 C  py              106     -2.247975   7 N  s         
    12      1.950876   2 C  s                46     -1.918680   4 H  s         
    63     -1.784639   5 C  px              368     -1.675426  22 H  s         
   318      1.630226  19 C  py              147     -1.619154   9 C  px        

 Vector   68  Occ=0.000000D+00  E= 3.763723D-02
              MO Center=  1.8D+00, -2.9D+00,  1.1D+00, r^2= 3.6D+01
   Bfn.  Coefficient  Atom+Function         Bfn.  Coefficient  Atom+Function  
  ----- ------------  ---------------      ----- ------------  ---------------
   530      3.196726  31 N  s               488      2.483768  29 C  py        
   554      2.366165  32 H  s               148     -2.178744   9 C  py        
   174     -2.029585  11 C  s               344     -1.978934  21 C  s         
   480     -1.923229  29 C  s               106      1.644026   7 N  s         
   310     -1.495091  19 C  s               470     -1.451700  28 H  s         

 Vector   69  Occ=0.000000D+00  E= 4.360085D-02
              MO Center= -1.2D+00, -2.7D+00, -1.4D+00, r^2= 3.7D+01
   Bfn.  Coefficient  Atom+Function         Bfn.  Coefficient  Atom+Function  
  ----- ------------  ---------------      ----- ------------  ---------------
   377      2.942779  23 H  s               148      2.881001   9 C  py        
   387     -2.831087  24 C  s               461     -2.779772  27 H  s         
   343     -2.652971  21 C  s               480     -2.386450  29 C  s         
   226      2.106977  15 C  s               164      2.012448  10 H  s         
   395     -1.998160  24 C  py               64      1.899609   5 C  py        

 Vector   70  Occ=0.000000D+00  E= 4.904535D-02
              MO Center=  8.9D-01,  1.9D+00,  9.3D-01, r^2= 3.8D+01
   Bfn.  Coefficient  Atom+Function         Bfn.  Coefficient  Atom+Function  
  ----- ------------  ---------------      ----- ------------  ---------------
   318      2.653169  19 C  py              368      2.605714  22 H  s         
   147      2.588623   9 C  px               64     -2.422091   5 C  py        
   173      2.365952  11 C  s                46      2.209857   4 H  s         
   530      2.162017  31 N  s               234      2.118233  15 C  py        
   216     -1.970527  14 H  s               197     -1.849550  12 H  s         

 Vector   71  Occ=0.000000D+00  E= 5.293146D-02
              MO Center= -1.4D+00,  2.2D+00,  5.9D-01, r^2= 4.1D+01
   Bfn.  Coefficient  Atom+Function         Bfn.  Coefficient  Atom+Function  
  ----- ------------  ---------------      ----- ------------  ---------------
   368      3.755991  22 H  s               387     -2.878689  24 C  s         
    37     -2.620538   3 H  s                64      2.617173   5 C  py        
   377     -2.514328  23 H  s               233      2.162858  15 C  px        
   148      2.019531   9 C  py              334      1.992740  20 H  s         
   130      1.976558   8 H  s               480     -1.826677  29 C  s         

 Vector   72  Occ=0.000000D+00  E= 5.728937D-02
              MO Center=  1.6D-01,  8.7D-01, -7.4D-01, r^2= 4.3D+01
   Bfn.  Coefficient  Atom+Function         Bfn.  Coefficient  Atom+Function  
  ----- ------------  ---------------      ----- ------------  ---------------
     3      2.677186   1 H  s               174      2.479467  11 C  s         
   470      2.289269  28 H  s               164     -2.162576  10 H  s         
   461     -2.066803  27 H  s               148     -2.024290   9 C  py        
    63      1.918902   5 C  px              276     -1.855448  17 N  s         
   368     -1.768284  22 H  s               216     -1.655524  14 H  s         

 Vector   73  Occ=0.000000D+00  E= 6.299205D-02
              MO Center= -6.3D-01,  4.1D-01, -9.6D-01, r^2= 4.6D+01
   Bfn.  Coefficient  Atom+Function         Bfn.  Coefficient  Atom+Function  
  ----- ------------  ---------------      ----- ------------  ---------------
   387      6.682062  24 C  s               377     -4.328039  23 H  s         
   226     -3.657892  15 C  s               234      3.350957  15 C  py        
   351      3.261817  21 C  px               37      2.878205   3 H  s         
   470      2.878356  28 H  s               164     -2.526799  10 H  s         
   130     -2.290445   8 H  s               174     -2.205594  11 C  s         

 Vector   74  Occ=0.000000D+00  E= 6.740057D-02
              MO Center=  2.6D-01,  1.0D+00,  1.1D+00, r^2= 4.7D+01
   Bfn.  Coefficient  Atom+Function         Bfn.  Coefficient  Atom+Function  
  ----- ------------  ---------------      ----- ------------  ---------------
   334      4.220670  20 H  s                37      3.943166   3 H  s         
    56      3.445343   5 C  s               319     -3.370035  19 C  pz        
   387     -3.184106  24 C  s                64     -2.918200   5 C  py        
    13      2.397677   2 C  s               148     -2.348321   9 C  py        
   106     -2.302872   7 N  s               216     -2.310111  14 H  s         

 Vector   75  Occ=0.000000D+00  E= 7.038291D-02
              MO Center= -9.1D-01,  1.3D+00,  3.6D-01, r^2= 4.3D+01
   Bfn.  Coefficient  Atom+Function         Bfn.  Coefficient  Atom+Function  
  ----- ------------  ---------------      ----- ------------  ---------------
   226      5.574481  15 C  s               480     -5.357300  29 C  s         
   368     -4.007507  22 H  s                46      3.906642   4 H  s         
   207      2.925428  13 H  s               377      2.805348  23 H  s         
   216     -2.646121  14 H  s               317      2.639207  19 C  px        
   318     -2.642369  19 C  py              174     -2.533617  11 C  s         

 Vector   76  Occ=0.000000D+00  E= 7.786129D-02
              MO Center=  1.4D+00,  2.6D-01,  3.2D-01, r^2= 4.3D+01
   Bfn.  Coefficient  Atom+Function         Bfn.  Coefficient  Atom+Function  
  ----- ------------  ---------------      ----- ------------  ---------------
   387     -4.168515  24 C  s               216      3.808423  14 H  s         
   563      3.637738  33 H  s               480      3.449149  29 C  s         
   334     -3.191171  20 H  s               377      2.811413  23 H  s         
    46      2.589228   4 H  s               234     -2.507279  15 C  py        
   300     -2.380471  18 H  s               276     -2.332556  17 N  s         

 Vector   77  Occ=0.000000D+00  E= 7.881549D-02
              MO Center=  7.1D-01,  9.9D-01,  1.5D+00, r^2= 4.3D+01
   Bfn.  Coefficient  Atom+Function         Bfn.  Coefficient  Atom+Function  
  ----- ------------  ---------------      ----- ------------  ---------------
    13      7.859273   2 C  s               198      5.344456  12 H  s         
    64     -3.807954   5 C  py              207     -3.640995  13 H  s         
   140     -3.352243   9 C  s                37      2.969092   3 H  s         
   234     -2.857704  15 C  py              368      2.740813  22 H  s         
   563     -2.623284  33 H  s                63      2.565031   5 C  px        

 Vector   78  Occ=0.000000D+00  E= 8.307586D-02
              MO Center= -7.4D-01, -8.7D-01, -1.1D+00, r^2= 3.5D+01
   Bfn.  Coefficient  Atom+Function         Bfn.  Coefficient  Atom+Function  
  ----- ------------  ---------------      ----- ------------  ---------------
   164      5.759181  10 H  s                56     -4.599072   5 C  s         
   377     -3.517470  23 H  s               234     -3.470870  15 C  py        
   387      2.984674  24 C  s               149      2.918100   9 C  pz        
   198      2.902415  12 H  s               368     -2.863573  22 H  s         
   395      2.803718  24 C  py              470      2.803894  28 H  s         

 Vector   79  Occ=0.000000D+00  E= 8.668148D-02
              MO Center=  9.9D-02,  1.9D+00,  1.1D+00, r^2= 3.9D+01
   Bfn.  Coefficient  Atom+Function         Bfn.  Coefficient  Atom+Function  
  ----- ------------  ---------------      ----- ------------  ---------------
   334      5.210667  20 H  s               130      5.057784   8 H  s         
   216      4.633818  14 H  s               368     -4.286596  22 H  s         
   480      4.198283  29 C  s               226     -3.471036  15 C  s         
     3     -3.327216   1 H  s               106      3.320859   7 N  s         
   563     -2.978595  33 H  s               351     -2.674081  21 C  px        

 Vector   80  Occ=0.000000D+00  E= 9.774753D-02
              MO Center=  9.7D-02,  2.0D+00,  1.2D+00, r^2= 3.9D+01
   Bfn.  Coefficient  Atom+Function         Bfn.  Coefficient  Atom+Function  
  ----- ------------  ---------------      ----- ------------  ---------------
   207      6.271058  13 H  s               130      5.518949   8 H  s         
   334     -4.801988  20 H  s               480      4.657784  29 C  s         
   234     -4.585650  15 C  py               13      4.250360   2 C  s         
   148     -3.921202   9 C  py              300     -3.808196  18 H  s         
   216     -3.684523  14 H  s                37      3.339339   3 H  s         

 Vector   81  Occ=0.000000D+00  E= 1.043863D-01
              MO Center=  1.4D-02,  1.1D+00, -1.4D-01, r^2= 3.4D+01
   Bfn.  Coefficient  Atom+Function         Bfn.  Coefficient  Atom+Function  
  ----- ------------  ---------------      ----- ------------  ---------------
    13     11.998029   2 C  s                56    -11.344415   5 C  s         
   387     10.057728  24 C  s               174      7.771888  11 C  s         
   148     -6.967944   9 C  py              226     -5.425031  15 C  s         
   300     -5.424539  18 H  s               140     -4.832931   9 C  s         
   352      4.777328  21 C  py              207      4.614225  13 H  s         

 Vector   82  Occ=0.000000D+00  E= 1.107830D-01
              MO Center=  9.1D-01,  1.7D-01, -7.3D-01, r^2= 3.7D+01
   Bfn.  Coefficient  Atom+Function         Bfn.  Coefficient  Atom+Function  
  ----- ------------  ---------------      ----- ------------  ---------------
   387     15.379089  24 C  s                13     10.158722   2 C  s         
   300      9.159506  18 H  s               480     -8.840755  29 C  s         
    56     -8.240223   5 C  s               164     -7.161162  10 H  s         
   276      6.656391  17 N  s               437     -5.589721  26 N  s         
   319      5.102527  19 C  pz              351      4.834452  21 C  px        

 Vector   83  Occ=0.000000D+00  E= 1.165121D-01
              MO Center= -2.3D-01, -2.4D+00, -1.5D+00, r^2= 2.8D+01
   Bfn.  Coefficient  Atom+Function         Bfn.  Coefficient  Atom+Function  
  ----- ------------  ---------------      ----- ------------  ---------------
   387     12.518489  24 C  s               437    -10.341624  26 N  s         
   344      5.653796  21 C  s               318      5.432825  19 C  py        
   396     -4.909178  24 C  pz              164      4.817970  10 H  s         
   226     -4.571927  15 C  s               234      4.374314  15 C  py        
   300     -3.842833  18 H  s               319      3.723155  19 C  pz        

 Vector   84  Occ=0.000000D+00  E= 1.216718D-01
              MO Center= -1.1D+00,  8.5D-01, -5.2D-02, r^2= 3.7D+01
   Bfn.  Coefficient  Atom+Function         Bfn.  Coefficient  Atom+Function  
  ----- ------------  ---------------      ----- ------------  ---------------
   234     14.751218  15 C  py              318     12.803219  19 C  py        
   226    -12.306144  15 C  s               480     12.348320  29 C  s         
    56      9.500564   5 C  s               387      9.092167  24 C  s         
    13     -8.300250   2 C  s               352      5.075279  21 C  py        
   106     -4.999711   7 N  s               394      4.289094  24 C  px        

 Vector   85  Occ=0.000000D+00  E= 1.260377D-01
              MO Center= -6.2D-01, -1.9D+00, -5.4D-01, r^2= 3.3D+01
   Bfn.  Coefficient  Atom+Function         Bfn.  Coefficient  Atom+Function  
  ----- ------------  ---------------      ----- ------------  ---------------
   480      9.886760  29 C  s               174      7.067798  11 C  s         
   437     -6.926096  26 N  s               530     -6.533707  31 N  s         
   317     -5.147544  19 C  px              343      4.345639  21 C  s         
   394     -4.362771  24 C  px              147     -4.274605   9 C  px        
   234     -4.224939  15 C  py              300      4.201210  18 H  s         

 Vector   86  Occ=0.000000D+00  E= 1.297617D-01
              MO Center= -4.9D-01, -5.8D-01, -1.2D-01, r^2= 3.1D+01
   Bfn.  Coefficient  Atom+Function         Bfn.  Coefficient  Atom+Function  
  ----- ------------  ---------------      ----- ------------  ---------------
   480      9.230084  29 C  s               174      7.657480  11 C  s         
   226     -7.084723  15 C  s               351     -6.983854  21 C  px        
   148     -6.647591   9 C  py              317     -6.171323  19 C  px        
    13      5.323965   2 C  s               368     -5.225599  22 H  s         
   276      4.719717  17 N  s               344     -4.528266  21 C  s         

 Vector   87  Occ=0.000000D+00  E= 1.365209D-01
              MO Center= -1.1D-01, -1.4D+00,  3.7D-02, r^2= 3.5D+01
   Bfn.  Coefficient  Atom+Function         Bfn.  Coefficient  Atom+Function  
  ----- ------------  ---------------      ----- ------------  ---------------
   226     17.217796  15 C  s                13    -13.174943   2 C  s         
   148     11.014944   9 C  py              140      9.748446   9 C  s         
    64      8.650864   5 C  py              387     -8.566524  24 C  s         
   310      8.223670  19 C  s               276     -7.644188  17 N  s         
   344      7.586579  21 C  s               480     -7.401829  29 C  s         

 Vector   88  Occ=0.000000D+00  E= 1.387388D-01
              MO Center=  4.8D-01, -1.2D+00,  5.1D-01, r^2= 3.3D+01
   Bfn.  Coefficient  Atom+Function         Bfn.  Coefficient  Atom+Function  
  ----- ------------  ---------------      ----- ------------  ---------------
   480     25.264858  29 C  s               174     13.882199  11 C  s         
   226    -13.549036  15 C  s               387    -12.855588  24 C  s         
   530     -8.707026  31 N  s               147     -6.295910   9 C  px        
   487     -6.051880  29 C  px              284      5.759138  17 N  py        
   343     -5.176815  21 C  s               317     -5.053674  19 C  px        

 Vector   89  Occ=0.000000D+00  E= 1.419403D-01
              MO Center= -8.6D-01,  1.5D-01, -5.4D-01, r^2= 3.2D+01
   Bfn.  Coefficient  Atom+Function         Bfn.  Coefficient  Atom+Function  
  ----- ------------  ---------------      ----- ------------  ---------------
    56     11.429317   5 C  s               480     10.623430  29 C  s         
   106     -7.314298   7 N  s               530     -7.048648  31 N  s         
   276     -6.357165  17 N  s               344      6.167019  21 C  s         
   318      5.746007  19 C  py              488     -4.489261  29 C  py        
   351      3.751436  21 C  px              387      3.673767  24 C  s         

 Vector   90  Occ=0.000000D+00  E= 1.487625D-01
              MO Center=  2.4D-01, -2.0D-01,  5.6D-02, r^2= 4.2D+01
   Bfn.  Coefficient  Atom+Function         Bfn.  Coefficient  Atom+Function  
  ----- ------------  ---------------      ----- ------------  ---------------
   387     11.256327  24 C  s                56     -9.825988   5 C  s         
    64      9.855036   5 C  py              174      9.006095  11 C  s         
   234      8.433125  15 C  py              147     -7.386630   9 C  px        
   148      6.370577   9 C  py              530      5.706238  31 N  s         
   114      5.554003   7 N  py              318      5.225741  19 C  py        

 Vector   91  Occ=0.000000D+00  E= 1.501039D-01
              MO Center=  3.5D-01, -9.1D-01, -3.6D-01, r^2= 2.9D+01
   Bfn.  Coefficient  Atom+Function         Bfn.  Coefficient  Atom+Function  
  ----- ------------  ---------------      ----- ------------  ---------------
   387     14.309665  24 C  s               480     -9.058341  29 C  s         
   530      8.226611  31 N  s               234      6.713249  15 C  py        
   174     -6.497908  11 C  s               437     -5.712961  26 N  s         
   147      4.787261   9 C  px              351      4.003418  21 C  px        
[...]
  ----- ------------  ---------------      ----- ------------  ---------------
   318     18.103962  19 C  py              530     15.254976  31 N  s         
   226    -12.216321  15 C  s               319     10.044437  19 C  pz        
   317     -9.802931  19 C  px              343     -8.689368  21 C  s         
   234      7.845091  15 C  py              351      7.651524  21 C  px        
   376      7.529371  23 H  s               310     -6.754778  19 C  s         

 Vector  162  Occ=0.000000D+00  E= 4.275337D-01
              MO Center= -1.6D-02,  6.7D-01,  6.0D-02, r^2= 2.4D+01
   Bfn.  Coefficient  Atom+Function         Bfn.  Coefficient  Atom+Function  
  ----- ------------  ---------------      ----- ------------  ---------------
   318      9.993402  19 C  py              352     -7.223242  21 C  py        
   343     -7.181970  21 C  s               319      7.020288  19 C  pz        
   480     -7.019808  29 C  s               367      6.059900  22 H  s         
   530      5.008455  31 N  s                56      4.851895   5 C  s         
   234      4.865595  15 C  py              317      4.403991  19 C  px        

 Vector  163  Occ=0.000000D+00  E= 4.333236D-01
              MO Center= -4.8D-01,  1.3D+00,  9.8D-03, r^2= 2.5D+01
   Bfn.  Coefficient  Atom+Function         Bfn.  Coefficient  Atom+Function  
  ----- ------------  ---------------      ----- ------------  ---------------
   318     10.281368  19 C  py              387     10.198447  24 C  s         
   530      8.857943  31 N  s               343      7.643547  21 C  s         
   234      5.722548  15 C  py               56      5.440811   5 C  s         
   174     -5.433782  11 C  s               376     -5.293789  23 H  s         
   113      5.026766   7 N  px              344     -4.904991  21 C  s         

 Vector  164  Occ=0.000000D+00  E= 4.358322D-01
              MO Center= -3.5D-01, -3.0D-02,  3.1D-01, r^2= 2.2D+01
   Bfn.  Coefficient  Atom+Function         Bfn.  Coefficient  Atom+Function  
  ----- ------------  ---------------      ----- ------------  ---------------
   226     20.130508  15 C  s               480    -19.184193  29 C  s         
   318    -15.556099  19 C  py              140      8.203968   9 C  s         
    56     -7.076582   5 C  s               310      6.925246  19 C  s         
   148      6.525502   9 C  py              276     -6.551813  17 N  s         
   234     -6.213142  15 C  py              344      5.902880  21 C  s         

 Vector  165  Occ=0.000000D+00  E= 4.395383D-01
              MO Center= -4.5D-01, -5.2D-01,  2.8D-02, r^2= 2.5D+01
   Bfn.  Coefficient  Atom+Function         Bfn.  Coefficient  Atom+Function  
  ----- ------------  ---------------      ----- ------------  ---------------
   276     12.966116  17 N  s               226    -10.038614  15 C  s         
   387      7.865468  24 C  s               480      6.822182  29 C  s         
   319      6.781336  19 C  pz              351      5.946990  21 C  px        
   174      5.633042  11 C  s                13      5.546523   2 C  s         
   164     -5.316648  10 H  s               317     -5.317989  19 C  px        

 Vector  166  Occ=0.000000D+00  E= 4.497477D-01
              MO Center= -1.2D+00,  2.5D+00, -2.4D-01, r^2= 2.6D+01
   Bfn.  Coefficient  Atom+Function         Bfn.  Coefficient  Atom+Function  
  ----- ------------  ---------------      ----- ------------  ---------------
   387     12.078849  24 C  s                13      9.539583   2 C  s         
   276      7.865900  17 N  s               318     -7.879234  19 C  py        
    56     -7.606336   5 C  s               343      7.405895  21 C  s         
     2     -7.026107   1 H  s               140     -6.186435   9 C  s         
   173     -5.889537  11 C  s               344     -5.537028  21 C  s         

 Vector  167  Occ=0.000000D+00  E= 4.533518D-01
              MO Center=  3.6D-01,  1.0D+00,  3.4D-01, r^2= 2.4D+01
   Bfn.  Coefficient  Atom+Function         Bfn.  Coefficient  Atom+Function  
  ----- ------------  ---------------      ----- ------------  ---------------
   387     14.208808  24 C  s               173      7.474312  11 C  s         
   343      7.369997  21 C  s               174      7.135624  11 C  s         
   197     -6.993195  12 H  s                56     -6.935652   5 C  s         
   318      6.517480  19 C  py              215     -5.953105  14 H  s         
   367     -5.783300  22 H  s               149      5.539209   9 C  pz        

 Vector  168  Occ=0.000000D+00  E= 4.557372D-01
              MO Center=  1.8D-01,  2.0D+00, -6.2D-01, r^2= 2.1D+01
   Bfn.  Coefficient  Atom+Function         Bfn.  Coefficient  Atom+Function  
  ----- ------------  ---------------      ----- ------------  ---------------
   148     20.457001   9 C  py              284     16.248321  17 N  py        
   276     12.480052  17 N  s               480     12.433974  29 C  s         
   149    -11.424181   9 C  pz              226    -11.336718  15 C  s         
   106     -8.281299   7 N  s               235      7.763074  15 C  pz        
    56     -7.465121   5 C  s               174      6.817103  11 C  s         

 Vector  169  Occ=0.000000D+00  E= 4.591718D-01
              MO Center= -2.6D-02,  1.7D-01,  1.9D-03, r^2= 2.3D+01
   Bfn.  Coefficient  Atom+Function         Bfn.  Coefficient  Atom+Function  
  ----- ------------  ---------------      ----- ------------  ---------------
   480     21.422796  29 C  s               226    -17.952841  15 C  s         
   174     12.308186  11 C  s               140     -9.339595   9 C  s         
   276      8.948733  17 N  s                13      8.380391   2 C  s         
   318      8.307883  19 C  py              317     -6.758026  19 C  px        
   215     -6.696592  14 H  s                56     -5.410603   5 C  s         

 Vector  170  Occ=0.000000D+00  E= 4.616947D-01
              MO Center=  1.8D-01,  1.5D+00,  3.3D-01, r^2= 2.4D+01
   Bfn.  Coefficient  Atom+Function         Bfn.  Coefficient  Atom+Function  
  ----- ------------  ---------------      ----- ------------  ---------------
   480     27.388611  29 C  s               387    -22.401395  24 C  s         
   174     22.192777  11 C  s               530    -12.489306  31 N  s         
   317    -11.914251  19 C  px              173     11.434615  11 C  s         
   437      9.556862  26 N  s               197     -9.123757  12 H  s         
   147     -8.795561   9 C  px              215     -8.432079  14 H  s         

 Vector  171  Occ=0.000000D+00  E= 4.658768D-01
              MO Center=  2.4D-01,  6.4D-01, -6.2D-02, r^2= 2.3D+01
   Bfn.  Coefficient  Atom+Function         Bfn.  Coefficient  Atom+Function  
  ----- ------------  ---------------      ----- ------------  ---------------
    13     25.216241   2 C  s                56    -19.876839   5 C  s         
   174     15.070333  11 C  s               318    -13.532114  19 C  py        
   276     12.076957  17 N  s               387     11.020502  24 C  s         
   140     -9.328608   9 C  s                64     -8.500548   5 C  py        
    12      8.415224   2 C  s                63      8.300760   5 C  px        

 Vector  172  Occ=0.000000D+00  E= 4.746077D-01
              MO Center=  1.3D-01,  5.4D-02,  1.2D-01, r^2= 2.1D+01
   Bfn.  Coefficient  Atom+Function         Bfn.  Coefficient  Atom+Function  
  ----- ------------  ---------------      ----- ------------  ---------------
   226     27.007188  15 C  s               148     21.031672   9 C  py        
   480    -18.014211  29 C  s               387    -17.670519  24 C  s         
   140     13.264876   9 C  s               344     13.310196  21 C  s         
   276    -13.196264  17 N  s               234    -13.041176  15 C  py        
    13    -11.201934   2 C  s               173      9.423433  11 C  s         

 Vector  173  Occ=0.000000D+00  E= 4.792861D-01
              MO Center=  1.2D-01,  7.1D-01,  1.9D-01, r^2= 2.3D+01
   Bfn.  Coefficient  Atom+Function         Bfn.  Coefficient  Atom+Function  
  ----- ------------  ---------------      ----- ------------  ---------------
   480     12.087749  29 C  s               114     -9.093321   7 N  py        
   226     -8.732074  15 C  s                13      7.953292   2 C  s         
   276      7.767631  17 N  s               530     -7.450341  31 N  s         
   352      6.926782  21 C  py              234      6.600932  15 C  py        
   174     -6.068011  11 C  s               344     -5.824232  21 C  s         

 Vector  174  Occ=0.000000D+00  E= 4.799266D-01
              MO Center=  4.5D-01,  8.4D-01,  3.0D-01, r^2= 2.1D+01
   Bfn.  Coefficient  Atom+Function         Bfn.  Coefficient  Atom+Function  
  ----- ------------  ---------------      ----- ------------  ---------------
   480     33.041447  29 C  s               226    -29.490323  15 C  s         
   530    -13.408585  31 N  s               106     13.228324   7 N  s         
   317    -11.504808  19 C  px              140    -11.052463   9 C  s         
   148     -8.630190   9 C  py               13      8.467839   2 C  s         
   284      8.095322  17 N  py              352      8.082530  21 C  py        

 Vector  175  Occ=0.000000D+00  E= 4.837845D-01
              MO Center=  3.1D-02, -5.8D-01, -7.1D-02, r^2= 2.2D+01
   Bfn.  Coefficient  Atom+Function         Bfn.  Coefficient  Atom+Function  
  ----- ------------  ---------------      ----- ------------  ---------------
   387     17.129792  24 C  s               480    -14.179379  29 C  s         
    13     12.928902   2 C  s               437     -8.389036  26 N  s         
   333      7.387094  20 H  s               352      7.200624  21 C  py        
   140     -6.810018   9 C  s               226     -6.802935  15 C  s         
    64     -6.483655   5 C  py              310     -6.471085  19 C  s         

 Vector  176  Occ=0.000000D+00  E= 4.889500D-01
              MO Center=  3.1D-01,  3.9D-01,  8.8D-02, r^2= 2.4D+01
   Bfn.  Coefficient  Atom+Function         Bfn.  Coefficient  Atom+Function  
  ----- ------------  ---------------      ----- ------------  ---------------
   226     23.410044  15 C  s               480    -14.464013  29 C  s         
   387    -14.104676  24 C  s               318    -13.790979  19 C  py        
   140     10.750963   9 C  s               310     10.501098  19 C  s         
   106     -8.213025   7 N  s                13     -7.836462   2 C  s         
   276     -7.521681  17 N  s               148      7.070801   9 C  py        

 Vector  177  Occ=0.000000D+00  E= 4.972141D-01
              MO Center= -4.3D-01, -8.9D-01, -7.2D-02, r^2= 2.0D+01
   Bfn.  Coefficient  Atom+Function         Bfn.  Coefficient  Atom+Function  
  ----- ------------  ---------------      ----- ------------  ---------------
   276      9.646691  17 N  s               234      9.341742  15 C  py        
   148      8.480697   9 C  py              106     -7.567911   7 N  s         
   284      7.461620  17 N  py              344      7.306449  21 C  s         
   343     -7.026951  21 C  s               174     -5.835550  11 C  s         
    12     -5.605930   2 C  s               351      4.628831  21 C  px        

 Vector  178  Occ=0.000000D+00  E= 5.010237D-01
              MO Center=  3.3D-01, -5.2D-01, -1.7D-01, r^2= 2.1D+01
   Bfn.  Coefficient  Atom+Function         Bfn.  Coefficient  Atom+Function  
  ----- ------------  ---------------      ----- ------------  ---------------
   174      8.789227  11 C  s               480      8.035596  29 C  s         
   276     -7.445063  17 N  s               148     -7.093917   9 C  py        
   343     -6.703819  21 C  s               226     -6.301009  15 C  s         
    13      5.421797   2 C  s               376      5.312161  23 H  s         
   215     -4.931361  14 H  s                56     -4.753566   5 C  s         


 center of mass
 --------------
 x =   0.01423663 y =  -0.05716956 z =  -0.00550329

 moments of inertia (a.u.)
 ------------------
        9271.066593008898          -0.000000000000          -0.000000000001
          -0.000000000000        2103.525072621888           0.000000000002
          -0.000000000001           0.000000000002       10479.907300599431

  Mulliken analysis of the total density
  --------------------------------------

    Atom       Charge   Shell Charges
 -----------   ------   -------------------------------------------------------
    1 H    1     0.87   0.76  0.14 -0.00  0.03 -0.06
    2 C    6     6.22   2.01  0.66  0.19  0.14  2.06  1.04 -0.03  0.06  0.08
    3 H    1     1.02   0.76  0.26  0.01  0.03 -0.05
    4 H    1     0.87   0.76  0.13 -0.00  0.03 -0.06
    5 C    6     5.18   2.01  0.68  0.11 -0.02  1.90  0.31 -0.06  0.24  0.03
    6 O    8     8.70   2.01  0.82  0.99  0.15  2.79  1.82  0.13  0.01 -0.02
    7 N    7     7.51   2.01  0.72  0.85 -0.11  2.46  1.45  0.03  0.05  0.05
    8 H    1     1.02   0.75  0.23  0.00  0.06 -0.03
    9 C    6     6.47   2.01  0.66  0.16  0.07  2.00  1.43 -0.13  0.14  0.14
   10 H    1     1.13   0.78  0.33  0.00  0.03 -0.01
   11 C    6     5.59   2.01  0.66  0.19  0.17  2.04  0.46 -0.00  0.07 -0.01
   12 H    1     0.89   0.77  0.16  0.00  0.03 -0.07
   13 H    1     0.88   0.77  0.14  0.01  0.03 -0.07
   14 H    1     1.02   0.77  0.29  0.00  0.03 -0.06
   15 C    6     4.72   2.01  0.68 -0.01  0.12  1.88  0.10  0.00  0.23 -0.30
   16 O    8     8.81   2.01  0.82  1.02  0.17  2.79  1.86  0.14  0.01 -0.01
   17 N    7     7.51   2.01  0.72  0.86 -0.14  2.45  1.46  0.07  0.05  0.03
   18 H    1     0.98   0.75  0.23 -0.01  0.06 -0.04
   19 C    6     5.99   2.01  0.66  0.06  0.07  2.00  1.14 -0.04  0.14 -0.05
   20 H    1     1.16   0.77  0.33  0.00  0.03  0.03
   21 C    6     6.58   2.01  0.67  0.64  0.01  2.06  0.90  0.00  0.09  0.21
   22 H    1     0.78   0.77  0.08 -0.01  0.03 -0.08
   23 H    1     0.82   0.78  0.11 -0.01  0.03 -0.08
   24 C    6     4.74   2.01  0.68  0.03  0.21  1.90 -0.14 -0.05  0.24 -0.15
   25 O    8     8.76   2.01  0.81  1.01  0.13  2.81  1.85  0.14  0.02 -0.01
   26 N    7     7.27   2.01  0.72  0.84 -0.14  2.47  1.25  0.08  0.04 -0.01
   27 H    1     0.95   0.75  0.18 -0.01  0.06 -0.03
   28 H    1     0.98   0.76  0.21 -0.01  0.06 -0.04
   29 C    6     4.60   2.01  0.68  0.06  0.00  1.89 -0.13 -0.01  0.23 -0.13
   30 O    8     8.82   2.01  0.82  1.03  0.17  2.79  1.85  0.14  0.01 -0.00
   31 N    7     7.27   2.01  0.72  0.86 -0.16  2.46  1.25  0.09  0.04 -0.01
   32 H    1     0.99   0.75  0.21 -0.01  0.05 -0.02
   33 H    1     0.88   0.73  0.17 -0.01  0.06 -0.06

       Multipole analysis of the density wrt the origin
       ------------------------------------------------

     L   x y z        total         open         nuclear
     -   - - -        -----         ----         -------
     0   0 0 0      0.000000      0.000000    130.000000

     1   1 0 0     -1.338683      0.000000      0.000000
     1   0 1 0     -1.498593      0.000000     -0.000000
     1   0 0 1     -0.082076      0.000000      0.000000

     2   2 0 0    -72.348849      0.000000    926.816673
     2   1 1 0      1.405432      0.000000     -2.056946
     2   1 0 1     10.686672      0.000000     18.746466
     2   0 2 0    -72.839816      0.000000   4782.330170
     2   0 1 1     14.730516      0.000000     32.301934
     2   0 0 2    -79.929804      0.000000    254.184334


 Task  times  cpu:     3887.0s     wall:     4354.5s


                                NWChem Input Module
                                -------------------


 Summary of allocated global arrays
-----------------------------------
  No active global arrays


MA_summarize_allocated_blocks: starting scan ...
MA_summarize_allocated_blocks: scan completed: 0 heap blocks, 0 stack blocks
MA usage statistics:

	allocation statistics:
					      heap	     stack
					      ----	     -----
	current number of blocks	         0	         0
	maximum number of blocks	        16	        14
	current total bytes		         0	         0
	maximum total bytes		    119928	  26741432
	maximum total K-bytes		       120	     26742
	maximum total M-bytes		         1	        27


                                     CITATION
                                     --------
                Please cite the following reference when publishing
                           results obtained with NWChem:

          E. Apra, E. J. Bylaska, W. A. de Jong, N. Govind, K. Kowalski,
       T. P. Straatsma, M. Valiev, H. J. J. van Dam, Y. Alexeev, J. Anchell,
       V. Anisimov, F. W. Aquino, R. Atta-Fynn, J. Autschbach, N. P. Bauman,
     J. C. Becca, D. E. Bernholdt, K. Bhaskaran-Nair, S. Bogatko, P. Borowski,
         J. Boschen, J. Brabec, A. Bruner, E. Cauet, Y. Chen, G. N. Chuev,
      C. J. Cramer, J. Daily, M. J. O. Deegan, T. H. Dunning Jr., M. Dupuis,
   K. G. Dyall, G. I. Fann, S. A. Fischer, A. Fonari, H. Fruchtl, L. Gagliardi,
      J. Garza, N. Gawande, S. Ghosh, K. Glaesemann, A. W. Gotz, J. Hammond,
       V. Helms, E. D. Hermes, K. Hirao, S. Hirata, M. Jacquelin, L. Jensen,
   B. G. Johnson, H. Jonsson, R. A. Kendall, M. Klemm, R. Kobayashi, V. Konkov,
      S. Krishnamoorthy, M. Krishnan, Z. Lin, R. D. Lins, R. J. Littlefield,
      A. J. Logsdail, K. Lopata, W. Ma, A. V. Marenich, J. Martin del Campo,
   D. Mejia-Rodriguez, J. E. Moore, J. M. Mullin, T. Nakajima, D. R. Nascimento,
    J. A. Nichols, P. J. Nichols, J. Nieplocha, A. Otero-de-la-Roza, B. Palmer,
    A. Panyala, T. Pirojsirikul, B. Peng, R. Peverati, J. Pittner, L. Pollack,
   R. M. Richard, P. Sadayappan, G. C. Schatz, W. A. Shelton, D. W. Silverstein,
   D. M. A. Smith, T. A. Soares, D. Song, M. Swart, H. L. Taylor, G. S. Thomas,
            V. Tipparaju, D. G. Truhlar, K. Tsemekhman, T. Van Voorhis,
      A. Vazquez-Mayagoitia, P. Verma, O. Villa, A. Vishnu, K. D. Vogiatzis,
        D. Wang, J. H. Weare, M. J. Williamson, T. L. Windus, K. Wolinski,
        A. T. Wong, Q. Wu, C. Yang, Q. Yu, M. Zacharias, Z. Zhang, Y. Zhao,
                                and R. J. Harrison
                        "NWChem: Past, present, and future
                         J. Chem. Phys. 152, 184102 (2020)
                               doi:10.1063/5.0004997

                                      AUTHORS
                                      -------
  E. Apra, E. J. Bylaska, N. Govind, K. Kowalski, M. Valiev, D. Mejia-Rodriguez,
       A. Kunitsa, N. P. Bauman, A. Panyala, W. A. de Jong, T. P. Straatsma,
   H. J. J. van Dam, D. Wang, T. L. Windus, J. Hammond, J. Autschbach, A. Woods,
    K. Bhaskaran-Nair, J. Brabec, K. Lopata, S. A. Fischer, S. Krishnamoorthy,
     M. Jacquelin, W. Ma, M. Klemm, O. Villa, Y. Chen, V. Anisimov, F. Aquino,
     S. Hirata, M. T. Hackler, E. Hermes, L. Jensen, J. E. Moore, J. C. Becca,
      V. Konjkov, T. Risthaus, M. Malagoli, A. Marenich, A. Otero-de-la-Roza,
        J. Mullin, P. Nichols, R. Peverati, J. Pittner, Y. Zhao, P.-D. Fan,
        A. Fonari, M. J. Williamson, R. J. Harrison, J. R. Rehr, M. Dupuis,
     D. Silverstein, D. M. A. Smith, J. Nieplocha, V. Tipparaju, M. Krishnan,
     B. E. Van Kuiken, A. Vazquez-Mayagoitia, M. Swart, Q. Wu, T. Van Voorhis,
     A. A. Auer, M. Nooijen, L. D. Crosby, E. Brown, G. Cisneros, G. I. Fann,
   H. Fruchtl, J. Garza, K. Hirao, R. A. Kendall, J. A. Nichols, K. Tsemekhman,
    K. Wolinski, J. Anchell, D. E. Bernholdt, P. Borowski, T. Clark, D. Clerc,
   H. Dachsel, M. J. O. Deegan, K. Dyall, D. Elwood, E. Glendening, M. Gutowski,
   A. C. Hess, J. Jaffe, B. G. Johnson, J. Ju, R. Kobayashi, R. Kutteh, Z. Lin,
   R. Littlefield, X. Long, B. Meng, T. Nakajima, S. Niu, L. Pollack, M. Rosing,
   K. Glaesemann, G. Sandrone, M. Stave, H. Taylor, G. Thomas, J. H. van Lenthe,
                               A. T. Wong, Z. Zhang.

 Total times  cpu:     3887.0s     wall:     4354.7s
