export TMOUT=5400
export TMPDIR=/tmp
export PTMPDIR=/tmp/ptmp
 argument  1 = inputs/ARG_GLY_1.nw



============================== echo of input deck ==============================
start ARG_GLY_1
geometry
H          4.39900        8.59600        1.71200
C          4.06800        7.93500        0.91300
H          3.47100        8.49500        0.19500
H          3.46300        7.13300        1.33600
C          5.27000        7.33700        0.22100
O          5.42700        6.12500        0.21000
N          6.10500        8.19700       -0.37300
H          5.85600        9.17300       -0.29300
C          7.39400        7.89200       -1.04100
H          7.59700        8.75900       -1.67100
C          8.56800        7.88000       -0.03200
H          9.50600        7.87100       -0.58900
H          8.54100        8.83700        0.49300
C          8.63800        6.78300        1.05100
H          9.36000        7.13000        1.79100
H          7.68200        6.69300        1.56500
C          9.13000        5.40300        0.57700
H          9.82800        5.53400       -0.25300
H          9.68500        4.93200        1.38900
N          8.03400        4.50700        0.16300
H          7.83500        4.45700       -0.83000
C          7.25400        3.77600        0.93900
N          6.32800        3.03500        0.41100
H          6.20600        3.10700       -0.59600
H          5.68100        2.52000        0.97100
N          7.38100        3.75100        2.23700
H          6.76800        3.18700        2.79200
H          8.08600        4.32500        2.65700
C          7.40500        6.75300       -2.08100
O          8.46200        6.20900       -2.38300
N          6.25400        6.41100       -2.66200
H          5.41200        6.83100       -2.30400
C          6.14400        5.46300       -3.78000
H          5.11100        5.42700       -4.12500
H          6.76100        5.82400       -4.60400
C          6.58500        4.03100       -3.44100
O          6.58200        3.61300       -2.28600
N          6.95900        3.24900       -4.44300
H          6.96900        3.59800       -5.38800
H          7.25600        2.30900       -4.23600
end

basis
 * library aug-cc-pvdz
end

echo

scf
 direct
end

task scf energy
================================================================================


                                         
                                         


             Northwest Computational Chemistry Package (NWChem) 7.2.0
             --------------------------------------------------------


                    Environmental Molecular Sciences Laboratory
                       Pacific Northwest National Laboratory
                                Richland, WA 99352

                              Copyright (c) 1994-2022
                       Pacific Northwest National Laboratory
                            Battelle Memorial Institute

             NWChem is an open-source computational chemistry package
                        distributed under the terms of the
                      Educational Community License (ECL) 2.0
             A copy of the license is included with this distribution
                              in the LICENSE.TXT file

                                  ACKNOWLEDGMENT
                                  --------------

            This software and its documentation were developed at the
            EMSL at Pacific Northwest National Laboratory, a multiprogram
            national laboratory, operated for the U.S. Department of Energy
            by Battelle under Contract Number DE-AC05-76RL01830. Support
            for this work was provided by the Department of Energy Office
            of Biological and Environmental Research, Office of Basic
            Energy Sciences, and the Office of Advanced Scientific Computing.


           Job information
           ---------------

    hostname        = nova21-speedy-12
    program         = /opt/rit/el9/20230413/app/linux-rhel9-x86_64_v3/gcc-11.2.1/nwchem-7.2.0-oxtctbuhfuzyfaoziquq6bki22grib3g/bin/nwchem
    date            = Tue Jul  8 09:10:28 2025

    compiled        = Wed_May_17_23:46:39_2023
    source          = /tmp/root/spack-stage/spack-stage-nwchem-7.2.0-oxtctbuhfuzyfaoziquq6bki22grib3g/spack-src
    nwchem branch   = 7.2.0
    nwchem revision = d0d141fd
    ga revision     = 5.8.0
    use scalapack   = T
    input           = inputs/ARG_GLY_1.nw
    prefix          = ARG_GLY_1.
    data base       = ./ARG_GLY_1.db
    status          = startup
    nproc           =        1
    time left       =     -1s



           Memory information
           ------------------

    heap     =   26214398 doubles =    200.0 Mbytes
    stack    =   26214395 doubles =    200.0 Mbytes
    global   =   52428800 doubles =    400.0 Mbytes (distinct from heap & stack)
    total    =  104857593 doubles =    800.0 Mbytes
    verify   = yes
    hardfail = no 


           Directory information
           ---------------------

  0 permanent = .
  0 scratch   = .




                                NWChem Input Module
                                -------------------



 Scaling coordinates for geometry "geometry" by  1.889725989
 (inverse scale =  0.529177249)

 C1  symmetry detected

          ------
          auto-z
          ------
  no constraints, skipping    0.0000000000000000     
  no constraints, skipping    0.0000000000000000     


                             Geometry "geometry" -> ""
                             -------------------------

 Output coordinates in angstroms (scale by  1.889725989 to convert to a.u.)

  No.       Tag          Charge          X              Y              Z
 ---- ---------------- ---------- -------------- -------------- --------------
    1 H                    1.0000     1.67639487     3.73106720    -2.12175070
    2 C                    6.0000     1.64675929     2.70646409    -2.48807460
    3 H                    1.0000     2.63160989     2.41599942    -2.85033496
    4 H                    1.0000     0.92802995     2.63619098    -3.30455964
    5 C                    6.0000     1.22072483     1.78256187    -1.37175415
    6 O                    8.0000     0.20440012     1.11377087    -1.48801543
    7 N                    7.0000     2.01800903     1.73712202    -0.29847222
    8 H                    1.0000     2.83016313     2.33731998    -0.33231210
    9 C                    6.0000     1.79454094     0.99092474     0.96407348
   10 H                    1.0000     2.77768371     0.92866275     1.43242350
   11 C                    6.0000     0.95303919     1.81420257     1.96935424
   12 H                    1.0000     1.00038009     1.32709728     2.94437284
   13 H                    1.0000     1.45839461     2.77456389     2.08987409
   14 C                    6.0000    -0.52510426     2.12816565     1.65675684
   15 H                    1.0000    -0.81850030     2.92699319     2.33872922
   16 H                    1.0000    -0.62538731     2.52574180     0.64774321
   17 C                    6.0000    -1.51872385     0.97421230     1.88534332
   18 H                    1.0000    -1.15269385     0.33732327     2.69383537
   19 H                    1.0000    -2.47033972     1.39254323     2.21494376
   20 N                    7.0000    -1.74679088     0.15728218     0.67867907
   21 H                    1.0000    -1.21264514    -0.70102150     0.60023728
   22 C                    6.0000    -2.54959704     0.42472850    -0.33567379
   23 N                    7.0000    -2.63527999    -0.40652036    -1.32916500
   24 H                    1.0000    -2.01453012    -1.21160870    -1.30427793
   25 H                    1.0000    -3.18302170    -0.20544510    -2.13970911
   26 N                    7.0000    -3.28706922     1.49969509    -0.38192982
   27 H                    1.0000    -3.88054947     1.66948366    -1.16986576
   28 H                    1.0000    -3.22335943     2.15302965     0.37437436
   29 C                    6.0000     1.41750483    -0.50052915     0.85248910
   30 O                    8.0000     0.86644571    -1.06530256     1.79150659
   31 N                    7.0000     1.74048152    -1.15653473    -0.26315813
   32 H                    1.0000     2.10668156    -0.61522421    -1.02893124
   33 C                    6.0000     1.59022693    -2.60811170    -0.43944157
   34 H                    1.0000     2.00654639    -2.90173355    -1.40270390
   35 H                    1.0000     2.16011985    -3.11401806     0.34111388
   36 C                    6.0000     0.13854164    -3.10647786    -0.37411943
   37 O                    8.0000    -0.80877556    -2.36275474    -0.61541604
   38 N                    7.0000    -0.06184957    -4.37796774    -0.06017542
   39 H                    1.0000     0.71697576    -4.98278793     0.14610023
   40 H                    1.0000    -1.00849613    -4.71826712    -0.00807336

      Atomic Mass 
      ----------- 

      H                  1.007825
      C                 12.000000
      O                 15.994910
      N                 14.003070


 Effective nuclear repulsion energy (a.u.)    1663.5535940024

            Nuclear Dipole moment (a.u.) 
            ----------------------------
        X                 Y               Z
 ---------------- ---------------- ----------------
     0.0000000000     0.0000000000    -0.0000000000



                                Z-matrix (autoz)
                                -------- 

 Units are Angstrom for bonds and degrees for angles

      Type          Name      I     J     K     L     M      Value
      ----------- --------  ----- ----- ----- ----- ----- ----------
    1 Stretch                  1     2                       1.08852
    2 Stretch                  2     3                       1.08882
    3 Stretch                  2     4                       1.09003
    4 Stretch                  2     5                       1.51039
    5 Stretch                  5     6                       1.22218
    6 Stretch                  5     7                       1.33778
    7 Stretch                  7     8                       1.01043
    8 Stretch                  7     9                       1.48350
    9 Stretch                  9    10                       1.09078
   10 Stretch                  9    11                       1.54806
   11 Stretch                  9    29                       1.54241
   12 Stretch                 11    12                       1.09095
   13 Stretch                 11    13                       1.09188
   14 Stretch                 11    14                       1.54311
   15 Stretch                 14    15                       1.09055
   16 Stretch                 14    16                       1.08914
   17 Stretch                 14    17                       1.53985
   18 Stretch                 17    18                       1.09237
   19 Stretch                 17    19                       1.09051
   20 Stretch                 17    20                       1.47493
   21 Stretch                 20    21                       1.01398
   22 Stretch                 20    22                       1.32096
   23 Stretch                 22    23                       1.29821
   24 Stretch                 22    26                       1.30444
   25 Stretch                 23    24                       1.01692
   26 Stretch                 23    25                       0.99872
   27 Stretch                 26    27                       1.00094
   28 Stretch                 26    28                       1.00145
   29 Stretch                 29    30                       1.22654
   30 Stretch                 29    31                       1.33391
   31 Stretch                 31    32                       1.00674
   32 Stretch                 31    33                       1.46994
   33 Stretch                 33    34                       1.08968
   34 Stretch                 33    35                       1.09086
   35 Stretch                 33    36                       1.53624
   36 Stretch                 36    37                       1.22832
   37 Stretch                 36    38                       1.32492
   38 Stretch                 38    39                       1.00744
   39 Stretch                 38    40                       1.00730
   40 Bend                     1     2     3               109.78223
   41 Bend                     1     2     4               109.31219
   42 Bend                     1     2     5               109.55601
   43 Bend                     2     5     6               119.93272
   44 Bend                     2     5     7               116.46401
   45 Bend                     3     2     4               109.26828
   46 Bend                     3     2     5               109.74627
   47 Bend                     4     2     5               109.15932
   48 Bend                     5     7     8               115.59329
   49 Bend                     5     7     9               127.59685
   50 Bend                     6     5     7               123.59550
   51 Bend                     7     9    10               104.97284
   52 Bend                     7     9    11               111.53339
   53 Bend                     7     9    29               117.49250
   54 Bend                     8     7     9               116.63848
   55 Bend                     9    11    12               108.62251
   56 Bend                     9    11    13               106.72893
   57 Bend                     9    11    14               119.82491
   58 Bend                     9    29    30               119.97937
   59 Bend                     9    29    31               118.48060
   60 Bend                    10     9    11               103.97356
   61 Bend                    10     9    29               101.31437
   62 Bend                    11     9    29               115.36244
   63 Bend                    11    14    15               106.26398
   64 Bend                    11    14    16               110.49595
   65 Bend                    11    14    17               115.82083
   66 Bend                    12    11    13               105.90135
   67 Bend                    12    11    14               108.26788
   68 Bend                    13    11    14               106.66349
   69 Bend                    14    17    18               109.30375
   70 Bend                    14    17    19               108.69178
   71 Bend                    14    17    20               113.16631
   72 Bend                    15    14    16               106.68923
   73 Bend                    15    14    17               106.40945
   74 Bend                    16    14    17               110.58935
   75 Bend                    17    20    21               116.78698
   76 Bend                    17    20    22               127.59364
   77 Bend                    18    17    19               106.99936
   78 Bend                    18    17    20               109.53566
   79 Bend                    19    17    20               108.95401
   80 Bend                    20    22    23               119.87596
   81 Bend                    20    22    26               122.52508
   82 Bend                    21    20    22               115.60246
   83 Bend                    22    23    24               116.60968
   84 Bend                    22    23    25               121.89560
   85 Bend                    22    26    27               120.19294
   86 Bend                    22    26    28               118.35132
   87 Bend                    23    22    26               117.59471
   88 Bend                    24    23    25               120.93343
   89 Bend                    27    26    28               121.43639
   90 Bend                    29    31    32               117.37592
   91 Bend                    29    31    33               124.13872
   92 Bend                    30    29    31               121.50990
   93 Bend                    31    33    34               109.45393
   94 Bend                    31    33    35               108.58795
   95 Bend                    31    33    36               114.32090
   96 Bend                    32    31    33               118.48503
   97 Bend                    33    36    37               121.60161
   98 Bend                    33    36    38               117.66652
   99 Bend                    34    33    35               107.93663
  100 Bend                    34    33    36               108.13168
  101 Bend                    35    33    36               108.22777
  102 Bend                    36    38    39               120.51326
  103 Bend                    36    38    40               118.59442
  104 Bend                    37    36    38               120.72829
  105 Bend                    39    38    40               120.87154
  106 Torsion                  1     2     5     6         119.54725
  107 Torsion                  1     2     5     7         -61.43065
  108 Torsion                  2     5     7     8           0.65735
  109 Torsion                  2     5     7     9         175.70123
  110 Torsion                  3     2     5     6        -119.84791
  111 Torsion                  3     2     5     7          59.17420
  112 Torsion                  4     2     5     6          -0.11972
  113 Torsion                  4     2     5     7         178.90238
  114 Torsion                  5     7     9    10         161.52071
  115 Torsion                  5     7     9    11         -86.50169
  116 Torsion                  5     7     9    29          49.92112
  117 Torsion                  6     5     7     8         179.63994
  118 Torsion                  6     5     7     9          -5.31617
  119 Torsion                  7     9    11    12        -167.75935
  120 Torsion                  7     9    11    13         -53.98227
  121 Torsion                  7     9    11    14          67.17873
  122 Torsion                  7     9    29    30        -159.59602
  123 Torsion                  7     9    29    31          22.36994
  124 Torsion                  8     7     9    10         -23.48004
  125 Torsion                  8     7     9    11          88.49756
  126 Torsion                  8     7     9    29        -135.07963
  127 Torsion                  9    11    14    15        -164.51373
  128 Torsion                  9    11    14    16         -49.14626
  129 Torsion                  9    11    14    17          77.57668
  130 Torsion                  9    29    31    32          -7.92666
  131 Torsion                  9    29    31    33         172.28506
  132 Torsion                 10     9    11    12         -55.15259
  133 Torsion                 10     9    11    13          58.62448
  134 Torsion                 10     9    11    14         179.78549
  135 Torsion                 10     9    29    30          86.75411
  136 Torsion                 10     9    29    31         -91.27992
  137 Torsion                 11     9    29    30         -24.79951
  138 Torsion                 11     9    29    31         157.16645
  139 Torsion                 11    14    17    18          30.29811
  140 Torsion                 11    14    17    19         146.75529
  141 Torsion                 11    14    17    20         -92.06410
  142 Torsion                 12    11     9    29          54.82771
  143 Torsion                 12    11    14    15          70.25634
  144 Torsion                 12    11    14    16        -174.37619
  145 Torsion                 12    11    14    17         -47.65325
  146 Torsion                 13    11     9    29         168.60478
  147 Torsion                 13    11    14    15         -43.32028
  148 Torsion                 13    11    14    16          72.04718
  149 Torsion                 13    11    14    17        -161.22988
  150 Torsion                 14    11     9    29         -70.23422
  151 Torsion                 14    17    20    21          97.39576
  152 Torsion                 14    17    20    22         -81.03212
  153 Torsion                 15    14    17    18         -87.53085
  154 Torsion                 15    14    17    19          28.92633
  155 Torsion                 15    14    17    20         150.10694
  156 Torsion                 16    14    17    18         156.97408
  157 Torsion                 16    14    17    19         -86.56874
  158 Torsion                 16    14    17    20          34.61188
  159 Torsion                 17    20    22    23         179.98122
  160 Torsion                 17    20    22    26          -0.78602
  161 Torsion                 18    17    20    21         -24.83711
  162 Torsion                 18    17    20    22         156.73502
  163 Torsion                 19    17    20    21        -141.57177
  164 Torsion                 19    17    20    22          40.00036
  165 Torsion                 20    22    23    24          -4.19982
  166 Torsion                 20    22    23    25        -175.67929
  167 Torsion                 20    22    26    27         179.74961
  168 Torsion                 20    22    26    28           1.32629
  169 Torsion                 21    20    22    23           1.53743
  170 Torsion                 21    20    22    26        -179.22981
  171 Torsion                 23    22    26    27          -1.00106
  172 Torsion                 23    22    26    28        -179.42438
  173 Torsion                 24    23    22    26         176.53011
  174 Torsion                 25    23    22    26           5.05064
  175 Torsion                 29    31    33    34        -174.99581
  176 Torsion                 29    31    33    35         -57.39081
  177 Torsion                 29    31    33    36          63.54946
  178 Torsion                 30    29    31    32         174.07081
  179 Torsion                 30    29    31    33          -5.71747
  180 Torsion                 31    33    36    37          23.57704
  181 Torsion                 31    33    36    38        -157.10769
  182 Torsion                 32    31    33    34           5.21810
  183 Torsion                 32    31    33    35         122.82310
  184 Torsion                 32    31    33    36        -116.23663
  185 Torsion                 33    36    38    39           1.29090
  186 Torsion                 33    36    38    40         179.64721
  187 Torsion                 34    33    36    37         -98.60291
  188 Torsion                 34    33    36    38          80.71235
  189 Torsion                 35    33    36    37         144.71650
  190 Torsion                 35    33    36    38         -35.96824
  191 Torsion                 37    36    38    39        -179.38755
  192 Torsion                 37    36    38    40          -1.03124


            XYZ format geometry
            -------------------
    40
 geometry
 H                     1.67639487     3.73106720    -2.12175070
 C                     1.64675929     2.70646409    -2.48807460
 H                     2.63160989     2.41599942    -2.85033496
 H                     0.92802995     2.63619098    -3.30455964
 C                     1.22072483     1.78256187    -1.37175415
 O                     0.20440012     1.11377087    -1.48801543
 N                     2.01800903     1.73712202    -0.29847222
 H                     2.83016313     2.33731998    -0.33231210
 C                     1.79454094     0.99092474     0.96407348
 H                     2.77768371     0.92866275     1.43242350
 C                     0.95303919     1.81420257     1.96935424
 H                     1.00038009     1.32709728     2.94437284
 H                     1.45839461     2.77456389     2.08987409
 C                    -0.52510426     2.12816565     1.65675684
 H                    -0.81850030     2.92699319     2.33872922
 H                    -0.62538731     2.52574180     0.64774321
 C                    -1.51872385     0.97421230     1.88534332
 H                    -1.15269385     0.33732327     2.69383537
 H                    -2.47033972     1.39254323     2.21494376
 N                    -1.74679088     0.15728218     0.67867907
 H                    -1.21264514    -0.70102150     0.60023728
 C                    -2.54959704     0.42472850    -0.33567379
 N                    -2.63527999    -0.40652036    -1.32916500
 H                    -2.01453012    -1.21160870    -1.30427793
 H                    -3.18302170    -0.20544510    -2.13970911
 N                    -3.28706922     1.49969509    -0.38192982
 H                    -3.88054947     1.66948366    -1.16986576
 H                    -3.22335943     2.15302965     0.37437436
 C                     1.41750483    -0.50052915     0.85248910
 O                     0.86644571    -1.06530256     1.79150659
 N                     1.74048152    -1.15653473    -0.26315813
 H                     2.10668156    -0.61522421    -1.02893124
 C                     1.59022693    -2.60811170    -0.43944157
 H                     2.00654639    -2.90173355    -1.40270390
 H                     2.16011985    -3.11401806     0.34111388
 C                     0.13854164    -3.10647786    -0.37411943
 O                    -0.80877556    -2.36275474    -0.61541604
 N                    -0.06184957    -4.37796774    -0.06017542
 H                     0.71697576    -4.98278793     0.14610023
 H                    -1.00849613    -4.71826712    -0.00807336

 ==============================================================================
                                internuclear distances
 ------------------------------------------------------------------------------
       center one      |      center two      | atomic units |  angstroms
 ------------------------------------------------------------------------------
    2 C                |   1 H                |     2.05701  |     1.08852
    3 H                |   2 C                |     2.05757  |     1.08882
    4 H                |   2 C                |     2.05985  |     1.09003
    5 C                |   2 C                |     2.85422  |     1.51039
    6 O                |   5 C                |     2.30958  |     1.22218
    7 N                |   5 C                |     2.52804  |     1.33778
    8 H                |   7 N                |     1.90944  |     1.01043
    9 C                |   7 N                |     2.80341  |     1.48350
   10 H                |   9 C                |     2.06127  |     1.09078
   11 C                |   9 C                |     2.92542  |     1.54806
   12 H                |  11 C                |     2.06160  |     1.09095
   13 H                |  11 C                |     2.06335  |     1.09188
   14 C                |  11 C                |     2.91606  |     1.54311
   15 H                |  14 C                |     2.06084  |     1.09055
   16 H                |  14 C                |     2.05818  |     1.08914
   17 C                |  14 C                |     2.90990  |     1.53985
   18 H                |  17 C                |     2.06427  |     1.09237
   19 H                |  17 C                |     2.06076  |     1.09051
   20 N                |  17 C                |     2.78722  |     1.47493
   21 H                |  20 N                |     1.91614  |     1.01398
   22 C                |  20 N                |     2.49625  |     1.32096
   23 N                |  22 C                |     2.45326  |     1.29821
   24 H                |  23 N                |     1.92169  |     1.01692
   25 H                |  23 N                |     1.88730  |     0.99872
   26 N                |  22 C                |     2.46503  |     1.30444
   27 H                |  26 N                |     1.89151  |     1.00094
   28 H                |  26 N                |     1.89247  |     1.00145
   29 C                |   9 C                |     2.91474  |     1.54241
   30 O                |  29 C                |     2.31782  |     1.22654
   31 N                |  29 C                |     2.52073  |     1.33391
   32 H                |  31 N                |     1.90247  |     1.00674
   33 C                |  31 N                |     2.77779  |     1.46994
   34 H                |  33 C                |     2.05920  |     1.08968
   35 H                |  33 C                |     2.06144  |     1.09086
   36 C                |  33 C                |     2.90307  |     1.53624
   37 O                |  36 C                |     2.32118  |     1.22832
   38 N                |  36 C                |     2.50373  |     1.32492
   39 H                |  38 N                |     1.90378  |     1.00744
   40 H                |  38 N                |     1.90353  |     1.00730
 ------------------------------------------------------------------------------
                         number of included internuclear distances:         39
 ==============================================================================



 ==============================================================================
                                 internuclear angles
 ------------------------------------------------------------------------------
        center 1       |       center 2       |       center 3       |  degrees
 ------------------------------------------------------------------------------
    1 H                |   2 C                |   3 H                |   109.78
    1 H                |   2 C                |   4 H                |   109.31
    1 H                |   2 C                |   5 C                |   109.56
    3 H                |   2 C                |   4 H                |   109.27
    3 H                |   2 C                |   5 C                |   109.75
    4 H                |   2 C                |   5 C                |   109.16
    2 C                |   5 C                |   6 O                |   119.93
    2 C                |   5 C                |   7 N                |   116.46
    6 O                |   5 C                |   7 N                |   123.60
    5 C                |   7 N                |   8 H                |   115.59
    5 C                |   7 N                |   9 C                |   127.60
    8 H                |   7 N                |   9 C                |   116.64
    7 N                |   9 C                |  10 H                |   104.97
    7 N                |   9 C                |  11 C                |   111.53
    7 N                |   9 C                |  29 C                |   117.49
   10 H                |   9 C                |  11 C                |   103.97
   10 H                |   9 C                |  29 C                |   101.31
   11 C                |   9 C                |  29 C                |   115.36
    9 C                |  11 C                |  12 H                |   108.62
    9 C                |  11 C                |  13 H                |   106.73
    9 C                |  11 C                |  14 C                |   119.82
   12 H                |  11 C                |  13 H                |   105.90
   12 H                |  11 C                |  14 C                |   108.27
   13 H                |  11 C                |  14 C                |   106.66
   11 C                |  14 C                |  15 H                |   106.26
   11 C                |  14 C                |  16 H                |   110.50
   11 C                |  14 C                |  17 C                |   115.82
   15 H                |  14 C                |  16 H                |   106.69
   15 H                |  14 C                |  17 C                |   106.41
   16 H                |  14 C                |  17 C                |   110.59
   14 C                |  17 C                |  18 H                |   109.30
   14 C                |  17 C                |  19 H                |   108.69
   14 C                |  17 C                |  20 N                |   113.17
   18 H                |  17 C                |  19 H                |   107.00
   18 H                |  17 C                |  20 N                |   109.54
   19 H                |  17 C                |  20 N                |   108.95
   17 C                |  20 N                |  21 H                |   116.79
   17 C                |  20 N                |  22 C                |   127.59
   21 H                |  20 N                |  22 C                |   115.60
   20 N                |  22 C                |  23 N                |   119.88
   20 N                |  22 C                |  26 N                |   122.53
   23 N                |  22 C                |  26 N                |   117.59
   22 C                |  23 N                |  24 H                |   116.61
   22 C                |  23 N                |  25 H                |   121.90
   24 H                |  23 N                |  25 H                |   120.93
   22 C                |  26 N                |  27 H                |   120.19
   22 C                |  26 N                |  28 H                |   118.35
   27 H                |  26 N                |  28 H                |   121.44
    9 C                |  29 C                |  30 O                |   119.98
    9 C                |  29 C                |  31 N                |   118.48
   30 O                |  29 C                |  31 N                |   121.51
   29 C                |  31 N                |  32 H                |   117.38
   29 C                |  31 N                |  33 C                |   124.14
   32 H                |  31 N                |  33 C                |   118.49
   31 N                |  33 C                |  34 H                |   109.45
   31 N                |  33 C                |  35 H                |   108.59
   31 N                |  33 C                |  36 C                |   114.32
   34 H                |  33 C                |  35 H                |   107.94
   34 H                |  33 C                |  36 C                |   108.13
   35 H                |  33 C                |  36 C                |   108.23
   33 C                |  36 C                |  37 O                |   121.60
   33 C                |  36 C                |  38 N                |   117.67
   37 O                |  36 C                |  38 N                |   120.73
   36 C                |  38 N                |  39 H                |   120.51
   36 C                |  38 N                |  40 H                |   118.59
   39 H                |  38 N                |  40 H                |   120.87
 ------------------------------------------------------------------------------
                            number of included internuclear angles:         66
 ==============================================================================



  library name resolved from: environment
  library file name is: </opt/rit/el9/20230413/app/linux-rhel9-x86_64_v3/gcc-11.2.1/nwchem-7.2.0-oxtctbuhfuzyfaoziquq6bki22grib3g/share/nwchem/libraries/>
  


 Summary of "ao basis" -> "" (cartesian)
 ------------------------------------------------------------------------------
       Tag                 Description            Shells   Functions and Types
 ---------------- ------------------------------  ------  ---------------------
 *                        aug-cc-pvdz                 on all atoms 


                      Basis "ao basis" -> "ao basis" (cartesian)
                      -----
  H (Hydrogen)
  ------------
            Exponent  Coefficients 
       -------------- ---------------------------------------------------------
  1 S  1.30100000E+01  0.019685
  1 S  1.96200000E+00  0.137977
  1 S  4.44600000E-01  0.478148

  2 S  1.22000000E-01  1.000000

  3 S  2.97400000E-02  1.000000

  4 P  7.27000000E-01  1.000000

  5 P  1.41000000E-01  1.000000

  C (Carbon)
  ----------
            Exponent  Coefficients 
       -------------- ---------------------------------------------------------
  1 S  6.66500000E+03  0.000692
  1 S  1.00000000E+03  0.005329
  1 S  2.28000000E+02  0.027077
  1 S  6.47100000E+01  0.101718
  1 S  2.10600000E+01  0.274740
  1 S  7.49500000E+00  0.448564
  1 S  2.79700000E+00  0.285074
  1 S  5.21500000E-01  0.015204

  2 S  6.66500000E+03 -0.000146
  2 S  1.00000000E+03 -0.001154
  2 S  2.28000000E+02 -0.005725
  2 S  6.47100000E+01 -0.023312
  2 S  2.10600000E+01 -0.063955
  2 S  7.49500000E+00 -0.149981
  2 S  2.79700000E+00 -0.127262
  2 S  5.21500000E-01  0.544529

  3 S  1.59600000E-01  1.000000

  4 S  4.69000000E-02  1.000000

  5 P  9.43900000E+00  0.038109
  5 P  2.00200000E+00  0.209480
  5 P  5.45600000E-01  0.508557

  6 P  1.51700000E-01  1.000000

  7 P  4.04100000E-02  1.000000

  8 D  5.50000000E-01  1.000000

  9 D  1.51000000E-01  1.000000

  O (Oxygen)
  ----------
            Exponent  Coefficients 
       -------------- ---------------------------------------------------------
  1 S  1.17200000E+04  0.000710
  1 S  1.75900000E+03  0.005470
  1 S  4.00800000E+02  0.027837
  1 S  1.13700000E+02  0.104800
  1 S  3.70300000E+01  0.283062
  1 S  1.32700000E+01  0.448719
  1 S  5.02500000E+00  0.270952
  1 S  1.01300000E+00  0.015458

  2 S  1.17200000E+04 -0.000160
  2 S  1.75900000E+03 -0.001263
  2 S  4.00800000E+02 -0.006267
  2 S  1.13700000E+02 -0.025716
  2 S  3.70300000E+01 -0.070924
  2 S  1.32700000E+01 -0.165411
  2 S  5.02500000E+00 -0.116955
  2 S  1.01300000E+00  0.557368

  3 S  3.02300000E-01  1.000000

  4 S  7.89600000E-02  1.000000

  5 P  1.77000000E+01  0.043018
  5 P  3.85400000E+00  0.228913
  5 P  1.04600000E+00  0.508728

  6 P  2.75300000E-01  1.000000

  7 P  6.85600000E-02  1.000000

  8 D  1.18500000E+00  1.000000

  9 D  3.32000000E-01  1.000000

  N (Nitrogen)
  ------------
            Exponent  Coefficients 
       -------------- ---------------------------------------------------------
  1 S  9.04600000E+03  0.000700
  1 S  1.35700000E+03  0.005389
  1 S  3.09300000E+02  0.027406
  1 S  8.77300000E+01  0.103207
  1 S  2.85600000E+01  0.278723
  1 S  1.02100000E+01  0.448540
  1 S  3.83800000E+00  0.278238
  1 S  7.46600000E-01  0.015440

  2 S  9.04600000E+03 -0.000153
  2 S  1.35700000E+03 -0.001208
  2 S  3.09300000E+02 -0.005992
  2 S  8.77300000E+01 -0.024544
  2 S  2.85600000E+01 -0.067459
  2 S  1.02100000E+01 -0.158078
  2 S  3.83800000E+00 -0.121831
  2 S  7.46600000E-01  0.549003

  3 S  2.24800000E-01  1.000000

  4 S  6.12400000E-02  1.000000

  5 P  1.35500000E+01  0.039919
  5 P  2.91700000E+00  0.217169
  5 P  7.97300000E-01  0.510319

  6 P  2.18500000E-01  1.000000

  7 P  5.61100000E-02  1.000000

  8 D  8.17000000E-01  1.000000

  9 D  2.30000000E-01  1.000000



 Summary of "ao basis" -> "ao basis" (cartesian)
 ------------------------------------------------------------------------------
       Tag                 Description            Shells   Functions and Types
 ---------------- ------------------------------  ------  ---------------------
 H                        aug-cc-pvdz                5        9   3s2p
 C                        aug-cc-pvdz                9       25   4s3p2d
 O                        aug-cc-pvdz                9       25   4s3p2d
 N                        aug-cc-pvdz                9       25   4s3p2d


 ------------------------------------------------------------------------
 scf: no. of closed-shell electrons is not even!                   0
 ------------------------------------------------------------------------
 ------------------------------------------------------------------------
  current input line : 
    55: task scf energy
 ------------------------------------------------------------------------
 ------------------------------------------------------------------------
 There is an error in the input file
 ------------------------------------------------------------------------
 For more information see the NWChem manual at https://nwchemgit.github.io


 For further details see manual section:                                                                                                                                                                                                                                                                
0:scf: no. of closed-shell electrons is not even!:Received an Error in Communication
--------------------------------------------------------------------------
MPI_ABORT was invoked on rank 0 in communicator MPI COMMUNICATOR 3 DUP FROM 0
with errorcode -1.

NOTE: invoking MPI_ABORT causes Open MPI to kill all MPI processes.
You may or may not see output from other processes, depending on
exactly when Open MPI kills them.
--------------------------------------------------------------------------
slurmstepd: error: *** STEP 6606886.7 ON nova21-speedy-12 CANCELLED AT 2025-07-08T09:10:28 ***
srun: Job step aborted: Waiting up to 32 seconds for job step to finish.
srun: error: nova21-speedy-12: task 0: Exited with exit code 255
