export TMOUT=5400
export TMPDIR=/tmp
export PTMPDIR=/tmp/ptmp
 argument  1 = inputs/ARG_GLY_2.nw



============================== echo of input deck ==============================
start ARG_GLY_2
geometry
H          0.63300       10.86700       -1.01200
C          1.27300       10.43700       -0.24300
H          2.16900       10.02600       -0.70600
H          0.73500        9.64400        0.27500
C          1.66400       11.51000        0.74600
O          1.25100       12.66300        0.60500
N          2.45300       11.14000        1.75900
H          2.75200       10.17100        1.79800
C          2.99600       12.03700        2.79700
H          3.32100       12.95200        2.30600
C          1.89200       12.33700        3.84000
H          0.91800       12.32700        3.34700
H          1.86800       11.53100        4.57600
C          2.01100       13.68500        4.58100
H          1.10500       13.81200        5.17500
H          2.84900       13.64500        5.27800
C          2.17400       14.93200        3.68800
H          1.85100       15.80700        4.25500
H          3.23300       15.05600        3.45300
N          1.42200       14.81900        2.42300
H          1.35200       13.88800        2.02300
C          0.90000       15.75900        1.66400
N          0.38800       15.41000        0.52200
H         -0.02300       16.08000       -0.09900
H          0.46300       14.43200        0.25100
N          0.88600       17.01900        2.00100
H          0.47800       17.70300        1.39300
H          1.28300       17.28800        2.88200
C          4.23500       11.42400        3.45900
O          4.45200       10.22100        3.37300
N          5.02700       12.26000        4.12300
H          4.78100       13.23700        4.16100
C          6.22600       11.88600        4.87400
H          5.99000       11.08600        5.57700
H          6.99600       11.53200        4.18700
C          6.76500       13.09100        5.65200
O          6.18700       14.17400        5.59500
N          7.86000       12.92900        6.38000
H          8.32300       12.03600        6.41800
H          8.21400       13.72200        6.89200
end

basis
 * library aug-cc-pvdz
end

echo

scf
 direct
end

task scf energy
================================================================================


                                         
                                         


             Northwest Computational Chemistry Package (NWChem) 7.2.0
             --------------------------------------------------------


                    Environmental Molecular Sciences Laboratory
                       Pacific Northwest National Laboratory
                                Richland, WA 99352

                              Copyright (c) 1994-2022
                       Pacific Northwest National Laboratory
                            Battelle Memorial Institute

             NWChem is an open-source computational chemistry package
                        distributed under the terms of the
                      Educational Community License (ECL) 2.0
             A copy of the license is included with this distribution
                              in the LICENSE.TXT file

                                  ACKNOWLEDGMENT
                                  --------------

            This software and its documentation were developed at the
            EMSL at Pacific Northwest National Laboratory, a multiprogram
            national laboratory, operated for the U.S. Department of Energy
            by Battelle under Contract Number DE-AC05-76RL01830. Support
            for this work was provided by the Department of Energy Office
            of Biological and Environmental Research, Office of Basic
            Energy Sciences, and the Office of Advanced Scientific Computing.


           Job information
           ---------------

    hostname        = nova21-swift-1
    program         = /opt/rit/el9/20230413/app/linux-rhel9-x86_64_v3/gcc-11.2.1/nwchem-7.2.0-oxtctbuhfuzyfaoziquq6bki22grib3g/bin/nwchem
    date            = Tue Jul  8 09:10:27 2025

    compiled        = Wed_May_17_23:46:39_2023
    source          = /tmp/root/spack-stage/spack-stage-nwchem-7.2.0-oxtctbuhfuzyfaoziquq6bki22grib3g/spack-src
    nwchem branch   = 7.2.0
    nwchem revision = d0d141fd
    ga revision     = 5.8.0
    use scalapack   = T
    input           = inputs/ARG_GLY_2.nw
    prefix          = ARG_GLY_2.
    data base       = ./ARG_GLY_2.db
    status          = startup
    nproc           =        1
    time left       =     -1s



           Memory information
           ------------------

    heap     =   26214396 doubles =    200.0 Mbytes
    stack    =   26214401 doubles =    200.0 Mbytes
    global   =   52428800 doubles =    400.0 Mbytes (distinct from heap & stack)
    total    =  104857597 doubles =    800.0 Mbytes
    verify   = yes
    hardfail = no 


           Directory information
           ---------------------

  0 permanent = .
  0 scratch   = .




                                NWChem Input Module
                                -------------------



 Scaling coordinates for geometry "geometry" by  1.889725989
 (inverse scale =  0.529177249)

 C1  symmetry detected

          ------
          auto-z
          ------
  no constraints, skipping    0.0000000000000000     
  no constraints, skipping    0.0000000000000000     


                             Geometry "geometry" -> ""
                             -------------------------

 Output coordinates in angstroms (scale by  1.889725989 to convert to a.u.)

  No.       Tag          Charge          X              Y              Z
 ---- ---------------- ---------- -------------- -------------- --------------
    1 H                    1.0000    -3.43550983    -3.89154923     0.73310628
    2 C                    6.0000    -3.58015782    -2.84603030     0.46509857
    3 H                    1.0000    -4.13566015    -2.34330084     1.25553279
    4 H                    1.0000    -4.13926470    -2.78470124    -0.46777615
    5 C                    6.0000    -2.23578055    -2.17902280     0.29165767
    6 O                    8.0000    -1.19814996    -2.82625637     0.44744748
    7 N                    7.0000    -2.24141776    -0.88507242    -0.04188490
    8 H                    1.0000    -3.14041363    -0.42584817    -0.14582000
    9 C                    6.0000    -1.04690621    -0.03405816    -0.20256747
   10 H                    1.0000    -0.36166127    -0.26970215     0.60912353
   11 C                    6.0000    -0.39278105    -0.32732891    -1.57471088
   12 H                    1.0000    -0.56191340    -1.37308309    -1.83856203
   13 H                    1.0000    -0.89435861     0.26451342    -2.34285840
   14 C                    6.0000     1.12687694    -0.07702170    -1.66599015
   15 H                    1.0000     1.46129886    -0.44914571    -2.63526137
   16 H                    1.0000     1.32110343     0.99613256    -1.64958904
   17 C                    6.0000     1.98644530    -0.74844856    -0.57541453
   18 H                    1.0000     3.00698680    -0.84399564    -0.95065954
   19 H                    1.0000     2.00995662    -0.09638689     0.29999669
   20 N                    7.0000     1.45137249    -2.06243544    -0.16843351
   21 H                    1.0000     0.44032079    -2.15904972    -0.17849092
   22 C                    6.0000     2.07671175    -3.11849150     0.30681529
   23 N                    7.0000     1.36009210    -4.12350615     0.71241462
   24 H                    1.0000     1.77858115    -4.95417555     1.08432492
   25 H                    1.0000     0.34794497    -4.02094235     0.68814830
   26 N                    7.0000     3.37560285    -3.19400545     0.39925197
   27 H                    1.0000     3.81168892    -4.01753952     0.76749725
   28 H                    1.0000     3.92819691    -2.41707463     0.08756414
   29 C                    6.0000    -1.40681103     1.44926803    -0.06347777
   30 O                    8.0000    -2.56767805     1.81978413    -0.19309095
   31 N                    7.0000    -0.40154715     2.28204586     0.18748362
   32 H                    1.0000     0.53099172     1.90815340     0.27153524
   33 C                    6.0000    -0.50599728     3.73717030     0.30229240
   34 H                    1.0000    -1.01102999     4.14410031    -0.57477939
   35 H                    1.0000    -1.08406899     3.99649141     1.19042001
   36 C                    6.0000     0.88767431     4.36454529     0.41142597
   37 O                    8.0000     1.89046941     3.65475837     0.38267698
   38 N                    7.0000     0.97533011     5.68071643     0.53496945
   39 H                    1.0000     0.14550180     6.25008518     0.55656138
   40 H                    1.0000     1.89250274     6.09303954     0.60633472

      Atomic Mass 
      ----------- 

      H                  1.007825
      C                 12.000000
      O                 15.994910
      N                 14.003070


 Effective nuclear repulsion energy (a.u.)    1542.7061223430

            Nuclear Dipole moment (a.u.) 
            ----------------------------
        X                 Y               Z
 ---------------- ---------------- ----------------
     0.0000000000     0.0000000000    -0.0000000000



                                Z-matrix (autoz)
                                -------- 

 Units are Angstrom for bonds and degrees for angles

      Type          Name      I     J     K     L     M      Value
      ----------- --------  ----- ----- ----- ----- ----- ----------
    1 Stretch                  1     2                       1.08897
    2 Stretch                  2     3                       1.08908
    3 Stretch                  2     4                       1.08932
    4 Stretch                  2     5                       1.51074
    5 Stretch                  5     6                       1.23283
    6 Stretch                  5     7                       1.33626
    7 Stretch                  7     8                       1.01483
    8 Stretch                  7     9                       1.47543
    9 Stretch                  9    10                       1.08809
   10 Stretch                  9    11                       1.54812
   11 Stretch                  9    29                       1.53269
   12 Stretch                 11    12                       1.09171
   13 Stretch                 11    13                       1.09175
   14 Stretch                 11    14                       1.54284
   15 Stretch                 14    15                       1.09078
   16 Stretch                 14    16                       1.09071
   17 Stretch                 14    17                       1.54241
   18 Stretch                 17    18                       1.09153
   19 Stretch                 17    19                       1.09183
   20 Stretch                 17    20                       1.47597
   21 Stretch                 20    21                       1.01571
   22 Stretch                 20    22                       1.31612
   23 Stretch                 22    23                       1.29927
   24 Stretch                 22    26                       1.30436
   25 Stretch                 23    24                       1.00173
   26 Stretch                 23    25                       1.01762
   27 Stretch                 26    27                       1.00199
   28 Stretch                 26    28                       1.00306
   29 Stretch                 29    30                       1.22544
   30 Stretch                 29    31                       1.32931
   31 Stretch                 31    32                       1.00821
   32 Stretch                 31    33                       1.46338
   33 Stretch                 33    34                       1.09083
   34 Stretch                 33    35                       1.09096
   35 Stretch                 33    36                       1.53226
   36 Stretch                 36    37                       1.22891
   37 Stretch                 36    38                       1.32486
   38 Stretch                 38    39                       1.00661
   39 Stretch                 38    40                       1.00812
   40 Bend                     1     2     3               109.40950
   41 Bend                     1     2     4               109.45068
   42 Bend                     1     2     5               109.50841
   43 Bend                     2     5     6               120.17771
   44 Bend                     2     5     7               116.89995
   45 Bend                     3     2     4               109.49710
   46 Bend                     3     2     5               109.47614
   47 Bend                     4     2     5               109.48548
   48 Bend                     5     7     8               117.87125
   49 Bend                     5     7     9               125.61215
   50 Bend                     6     5     7               122.92021
   51 Bend                     7     9    10               107.68045
   52 Bend                     7     9    11               109.22879
   53 Bend                     7     9    29               110.99094
   54 Bend                     8     7     9               116.42541
   55 Bend                     9    11    12               109.28196
   56 Bend                     9    11    13               109.07478
   57 Bend                     9    11    14               115.96908
   58 Bend                     9    29    30               120.36221
   59 Bend                     9    29    31               116.47797
   60 Bend                    10     9    11               110.73601
   61 Bend                    10     9    29               106.84467
   62 Bend                    11     9    29               111.28379
   63 Bend                    11    14    15               107.41004
   64 Bend                    11    14    16               109.51993
   65 Bend                    11    14    17               115.87829
   66 Bend                    12    11    13               106.14453
   67 Bend                    12    11    14               107.08004
   68 Bend                    13    11    14               108.84127
   69 Bend                    14    17    18               108.42588
   70 Bend                    14    17    19               108.59854
   71 Bend                    14    17    20               112.36271
   72 Bend                    15    14    16               107.12329
   73 Bend                    15    14    17               107.99469
   74 Bend                    16    14    17               108.56816
   75 Bend                    17    20    21               116.28336
   76 Bend                    17    20    22               129.91569
   77 Bend                    18    17    19               107.92556
   78 Bend                    18    17    20               110.84302
   79 Bend                    19    17    20               108.56626
   80 Bend                    20    22    23               118.12104
   81 Bend                    20    22    26               123.03763
   82 Bend                    21    20    22               113.59146
   83 Bend                    22    23    24               121.79693
   84 Bend                    22    23    25               117.59267
   85 Bend                    22    26    27               120.46561
   86 Bend                    22    26    28               118.79868
   87 Bend                    23    22    26               118.83807
   88 Bend                    24    23    25               120.52738
   89 Bend                    27    26    28               120.73337
   90 Bend                    29    31    32               118.87396
   91 Bend                    29    31    33               125.71659
   92 Bend                    30    29    31               123.15706
   93 Bend                    31    33    34               109.93219
   94 Bend                    31    33    35               109.75805
   95 Bend                    31    33    36               110.35291
   96 Bend                    32    31    33               115.35553
   97 Bend                    33    36    37               120.26808
   98 Bend                    33    36    38               118.26680
   99 Bend                    34    33    35               108.69680
  100 Bend                    34    33    36               109.00377
  101 Bend                    35    33    36               109.06512
  102 Bend                    36    38    39               120.62243
  103 Bend                    36    38    40               118.23661
  104 Bend                    37    36    38               121.46509
  105 Bend                    39    38    40               121.14096
  106 Torsion                  1     2     5     6           0.44253
  107 Torsion                  1     2     5     7         179.92757
  108 Torsion                  2     5     7     8           0.83104
  109 Torsion                  2     5     7     9         177.22256
  110 Torsion                  3     2     5     6         120.39271
  111 Torsion                  3     2     5     7         -60.12224
  112 Torsion                  4     2     5     6        -119.56384
  113 Torsion                  4     2     5     7          59.92121
  114 Torsion                  5     7     9    10         -42.02256
  115 Torsion                  5     7     9    11          78.29275
  116 Torsion                  5     7     9    29        -158.64232
  117 Torsion                  6     5     7     8        -179.69928
  118 Torsion                  6     5     7     9          -3.30775
  119 Torsion                  7     9    11    12         -31.44343
  120 Torsion                  7     9    11    13          84.19381
  121 Torsion                  7     9    11    14        -152.54146
  122 Torsion                  7     9    29    30         -18.91250
  123 Torsion                  7     9    29    31         161.67324
  124 Torsion                  8     7     9    10         134.41542
  125 Torsion                  8     7     9    11        -105.26927
  126 Torsion                  8     7     9    29          17.79566
  127 Torsion                  9    11    14    15         172.62554
  128 Torsion                  9    11    14    16         -71.36331
  129 Torsion                  9    11    14    17          51.83097
  130 Torsion                  9    29    31    32           0.09090
  131 Torsion                  9    29    31    33         177.28867
  132 Torsion                 10     9    11    12          86.97996
  133 Torsion                 10     9    11    13        -157.38280
  134 Torsion                 10     9    11    14         -34.11807
  135 Torsion                 10     9    29    30        -136.04472
  136 Torsion                 10     9    29    31          44.54102
  137 Torsion                 11     9    29    30         102.96050
  138 Torsion                 11     9    29    31         -76.45376
  139 Torsion                 11    14    17    18         157.58372
  140 Torsion                 11    14    17    19         -85.39003
  141 Torsion                 11    14    17    20          34.72303
  142 Torsion                 12    11     9    29        -154.33388
  143 Torsion                 12    11    14    15          50.35580
  144 Torsion                 12    11    14    16         166.36695
  145 Torsion                 12    11    14    17         -70.43877
  146 Torsion                 13    11     9    29         -38.69663
  147 Torsion                 13    11    14    15         -63.98774
  148 Torsion                 13    11    14    16          52.02341
  149 Torsion                 13    11    14    17         175.21769
  150 Torsion                 14    11     9    29          84.56810
  151 Torsion                 14    17    20    21         -33.82905
  152 Torsion                 14    17    20    22         151.82681
  153 Torsion                 15    14    17    18          37.10423
  154 Torsion                 15    14    17    19         154.13047
  155 Torsion                 15    14    17    20         -85.75646
  156 Torsion                 16    14    17    18         -78.72454
  157 Torsion                 16    14    17    19          38.30170
  158 Torsion                 16    14    17    20         158.41476
  159 Torsion                 17    20    22    23         173.58921
  160 Torsion                 17    20    22    26          -5.74551
  161 Torsion                 18    17    20    21        -155.31892
  162 Torsion                 18    17    20    22          30.33694
  163 Torsion                 19    17    20    21          86.30271
  164 Torsion                 19    17    20    22         -88.04142
  165 Torsion                 20    22    23    24        -179.95660
  166 Torsion                 20    22    23    25          -3.25478
  167 Torsion                 20    22    26    27         179.99756
  168 Torsion                 20    22    26    28          -0.55483
  169 Torsion                 21    20    22    23          -0.87756
  170 Torsion                 21    20    22    26         179.78772
  171 Torsion                 23    22    26    27           0.66737
  172 Torsion                 23    22    26    28        -179.88502
  173 Torsion                 24    23    22    26          -0.59326
  174 Torsion                 25    23    22    26         176.10856
  175 Torsion                 29    31    33    34         -52.25625
  176 Torsion                 29    31    33    35          67.25350
  177 Torsion                 29    31    33    36        -172.51903
  178 Torsion                 30    29    31    32        -179.30539
  179 Torsion                 30    29    31    33          -2.10762
  180 Torsion                 31    33    36    37           0.65589
  181 Torsion                 31    33    36    38        -179.40596
  182 Torsion                 32    31    33    34         125.02836
  183 Torsion                 32    31    33    35        -115.46189
  184 Torsion                 32    31    33    36           4.76558
  185 Torsion                 33    36    38    39           0.02623
  186 Torsion                 33    36    38    40        -179.97400
  187 Torsion                 34    33    36    37        -120.16314
  188 Torsion                 34    33    36    38          59.77502
  189 Torsion                 35    33    36    37         121.29897
  190 Torsion                 35    33    36    38         -58.76287
  191 Torsion                 37    36    38    39         179.96361
  192 Torsion                 37    36    38    40          -0.03662


            XYZ format geometry
            -------------------
    40
 geometry
 H                    -3.43550983    -3.89154923     0.73310628
 C                    -3.58015782    -2.84603030     0.46509857
 H                    -4.13566015    -2.34330084     1.25553279
 H                    -4.13926470    -2.78470124    -0.46777615
 C                    -2.23578055    -2.17902280     0.29165767
 O                    -1.19814996    -2.82625637     0.44744748
 N                    -2.24141776    -0.88507242    -0.04188490
 H                    -3.14041363    -0.42584817    -0.14582000
 C                    -1.04690621    -0.03405816    -0.20256747
 H                    -0.36166127    -0.26970215     0.60912353
 C                    -0.39278105    -0.32732891    -1.57471088
 H                    -0.56191340    -1.37308309    -1.83856203
 H                    -0.89435861     0.26451342    -2.34285840
 C                     1.12687694    -0.07702170    -1.66599015
 H                     1.46129886    -0.44914571    -2.63526137
 H                     1.32110343     0.99613256    -1.64958904
 C                     1.98644530    -0.74844856    -0.57541453
 H                     3.00698680    -0.84399564    -0.95065954
 H                     2.00995662    -0.09638689     0.29999669
 N                     1.45137249    -2.06243544    -0.16843351
 H                     0.44032079    -2.15904972    -0.17849092
 C                     2.07671175    -3.11849150     0.30681529
 N                     1.36009210    -4.12350615     0.71241462
 H                     1.77858115    -4.95417555     1.08432492
 H                     0.34794497    -4.02094235     0.68814830
 N                     3.37560285    -3.19400545     0.39925197
 H                     3.81168892    -4.01753952     0.76749725
 H                     3.92819691    -2.41707463     0.08756414
 C                    -1.40681103     1.44926803    -0.06347777
 O                    -2.56767805     1.81978413    -0.19309095
 N                    -0.40154715     2.28204586     0.18748362
 H                     0.53099172     1.90815340     0.27153524
 C                    -0.50599728     3.73717030     0.30229240
 H                    -1.01102999     4.14410031    -0.57477939
 H                    -1.08406899     3.99649141     1.19042001
 C                     0.88767431     4.36454529     0.41142597
 O                     1.89046941     3.65475837     0.38267698
 N                     0.97533011     5.68071643     0.53496945
 H                     0.14550180     6.25008518     0.55656138
 H                     1.89250274     6.09303954     0.60633472

 ==============================================================================
                                internuclear distances
 ------------------------------------------------------------------------------
       center one      |      center two      | atomic units |  angstroms
 ------------------------------------------------------------------------------
    2 C                |   1 H                |     2.05786  |     1.08897
    3 H                |   2 C                |     2.05807  |     1.08908
    4 H                |   2 C                |     2.05852  |     1.08932
    5 C                |   2 C                |     2.85488  |     1.51074
    6 O                |   5 C                |     2.32970  |     1.23283
    7 N                |   5 C                |     2.52516  |     1.33626
    8 H                |   7 N                |     1.91775  |     1.01483
    9 C                |   7 N                |     2.78816  |     1.47543
   10 H                |   9 C                |     2.05618  |     1.08809
   11 C                |   9 C                |     2.92552  |     1.54812
   12 H                |  11 C                |     2.06303  |     1.09171
   13 H                |  11 C                |     2.06310  |     1.09175
   14 C                |  11 C                |     2.91554  |     1.54284
   15 H                |  14 C                |     2.06128  |     1.09078
   16 H                |  14 C                |     2.06115  |     1.09071
   17 C                |  14 C                |     2.91473  |     1.54241
   18 H                |  17 C                |     2.06270  |     1.09153
   19 H                |  17 C                |     2.06325  |     1.09183
   20 N                |  17 C                |     2.78919  |     1.47597
   21 H                |  20 N                |     1.91941  |     1.01571
   22 C                |  20 N                |     2.48710  |     1.31612
   23 N                |  22 C                |     2.45527  |     1.29927
   24 H                |  23 N                |     1.89299  |     1.00173
   25 H                |  23 N                |     1.92302  |     1.01762
   26 N                |  22 C                |     2.46489  |     1.30436
   27 H                |  26 N                |     1.89349  |     1.00199
   28 H                |  26 N                |     1.89551  |     1.00306
   29 C                |   9 C                |     2.89636  |     1.53269
   30 O                |  29 C                |     2.31574  |     1.22544
   31 N                |  29 C                |     2.51203  |     1.32931
   32 H                |  31 N                |     1.90524  |     1.00821
   33 C                |  31 N                |     2.76539  |     1.46338
   34 H                |  33 C                |     2.06137  |     1.09083
   35 H                |  33 C                |     2.06161  |     1.09096
   36 C                |  33 C                |     2.89556  |     1.53226
   37 O                |  36 C                |     2.32230  |     1.22891
   38 N                |  36 C                |     2.50362  |     1.32486
   39 H                |  38 N                |     1.90222  |     1.00661
   40 H                |  38 N                |     1.90507  |     1.00812
 ------------------------------------------------------------------------------
                         number of included internuclear distances:         39
 ==============================================================================



 ==============================================================================
                                 internuclear angles
 ------------------------------------------------------------------------------
        center 1       |       center 2       |       center 3       |  degrees
 ------------------------------------------------------------------------------
    1 H                |   2 C                |   3 H                |   109.41
    1 H                |   2 C                |   4 H                |   109.45
    1 H                |   2 C                |   5 C                |   109.51
    3 H                |   2 C                |   4 H                |   109.50
    3 H                |   2 C                |   5 C                |   109.48
    4 H                |   2 C                |   5 C                |   109.49
    2 C                |   5 C                |   6 O                |   120.18
    2 C                |   5 C                |   7 N                |   116.90
    6 O                |   5 C                |   7 N                |   122.92
    5 C                |   7 N                |   8 H                |   117.87
    5 C                |   7 N                |   9 C                |   125.61
    8 H                |   7 N                |   9 C                |   116.43
    7 N                |   9 C                |  10 H                |   107.68
    7 N                |   9 C                |  11 C                |   109.23
    7 N                |   9 C                |  29 C                |   110.99
   10 H                |   9 C                |  11 C                |   110.74
   10 H                |   9 C                |  29 C                |   106.84
   11 C                |   9 C                |  29 C                |   111.28
    9 C                |  11 C                |  12 H                |   109.28
    9 C                |  11 C                |  13 H                |   109.07
    9 C                |  11 C                |  14 C                |   115.97
   12 H                |  11 C                |  13 H                |   106.14
   12 H                |  11 C                |  14 C                |   107.08
   13 H                |  11 C                |  14 C                |   108.84
   11 C                |  14 C                |  15 H                |   107.41
   11 C                |  14 C                |  16 H                |   109.52
   11 C                |  14 C                |  17 C                |   115.88
   15 H                |  14 C                |  16 H                |   107.12
   15 H                |  14 C                |  17 C                |   107.99
   16 H                |  14 C                |  17 C                |   108.57
   14 C                |  17 C                |  18 H                |   108.43
   14 C                |  17 C                |  19 H                |   108.60
   14 C                |  17 C                |  20 N                |   112.36
   18 H                |  17 C                |  19 H                |   107.93
   18 H                |  17 C                |  20 N                |   110.84
   19 H                |  17 C                |  20 N                |   108.57
   17 C                |  20 N                |  21 H                |   116.28
   17 C                |  20 N                |  22 C                |   129.92
   21 H                |  20 N                |  22 C                |   113.59
   20 N                |  22 C                |  23 N                |   118.12
   20 N                |  22 C                |  26 N                |   123.04
   23 N                |  22 C                |  26 N                |   118.84
   22 C                |  23 N                |  24 H                |   121.80
   22 C                |  23 N                |  25 H                |   117.59
   24 H                |  23 N                |  25 H                |   120.53
   22 C                |  26 N                |  27 H                |   120.47
   22 C                |  26 N                |  28 H                |   118.80
   27 H                |  26 N                |  28 H                |   120.73
    9 C                |  29 C                |  30 O                |   120.36
    9 C                |  29 C                |  31 N                |   116.48
   30 O                |  29 C                |  31 N                |   123.16
   29 C                |  31 N                |  32 H                |   118.87
   29 C                |  31 N                |  33 C                |   125.72
   32 H                |  31 N                |  33 C                |   115.36
   31 N                |  33 C                |  34 H                |   109.93
   31 N                |  33 C                |  35 H                |   109.76
   31 N                |  33 C                |  36 C                |   110.35
   34 H                |  33 C                |  35 H                |   108.70
   34 H                |  33 C                |  36 C                |   109.00
   35 H                |  33 C                |  36 C                |   109.07
   33 C                |  36 C                |  37 O                |   120.27
   33 C                |  36 C                |  38 N                |   118.27
   37 O                |  36 C                |  38 N                |   121.47
   36 C                |  38 N                |  39 H                |   120.62
   36 C                |  38 N                |  40 H                |   118.24
   39 H                |  38 N                |  40 H                |   121.14
 ------------------------------------------------------------------------------
                            number of included internuclear angles:         66
 ==============================================================================



  library name resolved from: environment
  library file name is: </opt/rit/el9/20230413/app/linux-rhel9-x86_64_v3/gcc-11.2.1/nwchem-7.2.0-oxtctbuhfuzyfaoziquq6bki22grib3g/share/nwchem/libraries/>
  


 Summary of "ao basis" -> "" (cartesian)
 ------------------------------------------------------------------------------
       Tag                 Description            Shells   Functions and Types
 ---------------- ------------------------------  ------  ---------------------
 *                        aug-cc-pvdz                 on all atoms 


                      Basis "ao basis" -> "ao basis" (cartesian)
                      -----
  H (Hydrogen)
  ------------
            Exponent  Coefficients 
       -------------- ---------------------------------------------------------
  1 S  1.30100000E+01  0.019685
  1 S  1.96200000E+00  0.137977
  1 S  4.44600000E-01  0.478148

  2 S  1.22000000E-01  1.000000

  3 S  2.97400000E-02  1.000000

  4 P  7.27000000E-01  1.000000

  5 P  1.41000000E-01  1.000000

  C (Carbon)
  ----------
            Exponent  Coefficients 
       -------------- ---------------------------------------------------------
  1 S  6.66500000E+03  0.000692
  1 S  1.00000000E+03  0.005329
  1 S  2.28000000E+02  0.027077
  1 S  6.47100000E+01  0.101718
  1 S  2.10600000E+01  0.274740
  1 S  7.49500000E+00  0.448564
  1 S  2.79700000E+00  0.285074
  1 S  5.21500000E-01  0.015204

  2 S  6.66500000E+03 -0.000146
  2 S  1.00000000E+03 -0.001154
  2 S  2.28000000E+02 -0.005725
  2 S  6.47100000E+01 -0.023312
  2 S  2.10600000E+01 -0.063955
  2 S  7.49500000E+00 -0.149981
  2 S  2.79700000E+00 -0.127262
  2 S  5.21500000E-01  0.544529

  3 S  1.59600000E-01  1.000000

  4 S  4.69000000E-02  1.000000

  5 P  9.43900000E+00  0.038109
  5 P  2.00200000E+00  0.209480
  5 P  5.45600000E-01  0.508557

  6 P  1.51700000E-01  1.000000

  7 P  4.04100000E-02  1.000000

  8 D  5.50000000E-01  1.000000

  9 D  1.51000000E-01  1.000000

  O (Oxygen)
  ----------
            Exponent  Coefficients 
       -------------- ---------------------------------------------------------
  1 S  1.17200000E+04  0.000710
  1 S  1.75900000E+03  0.005470
  1 S  4.00800000E+02  0.027837
  1 S  1.13700000E+02  0.104800
  1 S  3.70300000E+01  0.283062
  1 S  1.32700000E+01  0.448719
  1 S  5.02500000E+00  0.270952
  1 S  1.01300000E+00  0.015458

  2 S  1.17200000E+04 -0.000160
  2 S  1.75900000E+03 -0.001263
  2 S  4.00800000E+02 -0.006267
  2 S  1.13700000E+02 -0.025716
  2 S  3.70300000E+01 -0.070924
  2 S  1.32700000E+01 -0.165411
  2 S  5.02500000E+00 -0.116955
  2 S  1.01300000E+00  0.557368

  3 S  3.02300000E-01  1.000000

  4 S  7.89600000E-02  1.000000

  5 P  1.77000000E+01  0.043018
  5 P  3.85400000E+00  0.228913
  5 P  1.04600000E+00  0.508728

  6 P  2.75300000E-01  1.000000

  7 P  6.85600000E-02  1.000000

  8 D  1.18500000E+00  1.000000

  9 D  3.32000000E-01  1.000000

  N (Nitrogen)
  ------------
            Exponent  Coefficients 
       -------------- ---------------------------------------------------------
  1 S  9.04600000E+03  0.000700
  1 S  1.35700000E+03  0.005389
  1 S  3.09300000E+02  0.027406
  1 S  8.77300000E+01  0.103207
  1 S  2.85600000E+01  0.278723
  1 S  1.02100000E+01  0.448540
  1 S  3.83800000E+00  0.278238
  1 S  7.46600000E-01  0.015440

  2 S  9.04600000E+03 -0.000153
  2 S  1.35700000E+03 -0.001208
  2 S  3.09300000E+02 -0.005992
  2 S  8.77300000E+01 -0.024544
  2 S  2.85600000E+01 -0.067459
  2 S  1.02100000E+01 -0.158078
  2 S  3.83800000E+00 -0.121831
  2 S  7.46600000E-01  0.549003

  3 S  2.24800000E-01  1.000000

  4 S  6.12400000E-02  1.000000

  5 P  1.35500000E+01  0.039919
  5 P  2.91700000E+00  0.217169
  5 P  7.97300000E-01  0.510319

  6 P  2.18500000E-01  1.000000

  7 P  5.61100000E-02  1.000000

  8 D  8.17000000E-01  1.000000

  9 D  2.30000000E-01  1.000000



 Summary of "ao basis" -> "ao basis" (cartesian)
 ------------------------------------------------------------------------------
       Tag                 Description            Shells   Functions and Types
 ---------------- ------------------------------  ------  ---------------------
 H                        aug-cc-pvdz                5        9   3s2p
 C                        aug-cc-pvdz                9       25   4s3p2d
 O                        aug-cc-pvdz                9       25   4s3p2d
 N                        aug-cc-pvdz                9       25   4s3p2d


 ------------------------------------------------------------------------
 scf: no. of closed-shell electrons is not even!                   0
 ------------------------------------------------------------------------
 ------------------------------------------------------------------------
  current input line : 
    55: task scf energy
 ------------------------------------------------------------------------
 ------------------------------------------------------------------------
 There is an error in the input file
 ------------------------------------------------------------------------
 For more information see the NWChem manual at https://nwchemgit.github.io


 For further details see manual section:                                                                                                                                                                                                                                                                
0:scf: no. of closed-shell electrons is not even!:Received an Error in Communication
--------------------------------------------------------------------------
MPI_ABORT was invoked on rank 0 in communicator MPI COMMUNICATOR 3 DUP FROM 0
with errorcode -1.

NOTE: invoking MPI_ABORT causes Open MPI to kill all MPI processes.
You may or may not see output from other processes, depending on
exactly when Open MPI kills them.
--------------------------------------------------------------------------
slurmstepd: error: *** STEP 6606886.8 ON nova21-swift-1 CANCELLED AT 2025-07-08T09:10:28 ***
srun: Job step aborted: Waiting up to 32 seconds for job step to finish.
srun: error: nova21-swift-1: task 0: Exited with exit code 255
