export TMOUT=5400
export TMPDIR=/tmp
export PTMPDIR=/tmp/ptmp
 argument  1 = inputs/ARG_GLY_5.nw



============================== echo of input deck ==============================
start ARG_GLY_5
geometry
H         11.03000       21.30700        5.29100
C         11.10200       20.30800        4.86100
H         12.15000       20.02900        4.77000
H         10.63600       20.30800        3.87600
C         10.38700       19.32700        5.75800
O          9.84200       19.71600        6.79100
N         10.38900       18.04300        5.37400
H         10.84600       17.81500        4.50100
C          9.68700       16.96200        6.09800
H          9.34700       17.41300        7.00300
C          8.41400       16.49000        5.35900
H          8.67100       16.28800        4.31800
H          8.05500       15.55500        5.79200
C          7.23800       17.49400        5.40200
H          7.57900       18.47900        5.07900
H          6.50200       17.15400        4.67200
C          6.50500       17.61900        6.75900
H          5.55900       18.13600        6.58300
H          6.26600       16.62000        7.12700
N          7.27000       18.39500        7.76000
H          7.52000       19.33600        7.49400
C          7.92200       17.92300        8.81100
N          8.88600       18.62200        9.33000
H          9.49700       18.17200        9.99400
H          9.20000       19.44900        8.84000
N          7.75500       16.72100        9.28000
H          8.44100       16.35400        9.92300
H          7.04100       16.13000        8.89800
C         10.55900       15.87200        6.72600
O         10.16000       14.71800        6.81800
N         11.69700       16.28400        7.28500
H         11.95000       17.25000        7.16500
C         12.36000       15.52600        8.35200
H         12.50800       14.49600        8.02300
H         13.33900       15.95900        8.55500
C         11.55000       15.51100        9.66300
O         10.61800       16.29600        9.86700
N         11.89700       14.62100       10.58200
H         12.65200       13.97600       10.40800
H         11.38700       14.59500       11.45100
end

basis
 * library aug-cc-pvdz
end

echo

scf
 direct
end

task scf energy
================================================================================


                                         
                                         


             Northwest Computational Chemistry Package (NWChem) 7.2.0
             --------------------------------------------------------


                    Environmental Molecular Sciences Laboratory
                       Pacific Northwest National Laboratory
                                Richland, WA 99352

                              Copyright (c) 1994-2022
                       Pacific Northwest National Laboratory
                            Battelle Memorial Institute

             NWChem is an open-source computational chemistry package
                        distributed under the terms of the
                      Educational Community License (ECL) 2.0
             A copy of the license is included with this distribution
                              in the LICENSE.TXT file

                                  ACKNOWLEDGMENT
                                  --------------

            This software and its documentation were developed at the
            EMSL at Pacific Northwest National Laboratory, a multiprogram
            national laboratory, operated for the U.S. Department of Energy
            by Battelle under Contract Number DE-AC05-76RL01830. Support
            for this work was provided by the Department of Energy Office
            of Biological and Environmental Research, Office of Basic
            Energy Sciences, and the Office of Advanced Scientific Computing.


           Job information
           ---------------

    hostname        = nova21-swift-4
    program         = /opt/rit/el9/20230413/app/linux-rhel9-x86_64_v3/gcc-11.2.1/nwchem-7.2.0-oxtctbuhfuzyfaoziquq6bki22grib3g/bin/nwchem
    date            = Tue Jul  8 09:10:27 2025

    compiled        = Wed_May_17_23:46:39_2023
    source          = /tmp/root/spack-stage/spack-stage-nwchem-7.2.0-oxtctbuhfuzyfaoziquq6bki22grib3g/spack-src
    nwchem branch   = 7.2.0
    nwchem revision = d0d141fd
    ga revision     = 5.8.0
    use scalapack   = T
    input           = inputs/ARG_GLY_5.nw
    prefix          = ARG_GLY_5.
    data base       = ./ARG_GLY_5.db
    status          = startup
    nproc           =        1
    time left       =     -1s



           Memory information
           ------------------

    heap     =   26214394 doubles =    200.0 Mbytes
    stack    =   26214399 doubles =    200.0 Mbytes
    global   =   52428800 doubles =    400.0 Mbytes (distinct from heap & stack)
    total    =  104857593 doubles =    800.0 Mbytes
    verify   = yes
    hardfail = no 


           Directory information
           ---------------------

  0 permanent = .
  0 scratch   = .




                                NWChem Input Module
                                -------------------



 Scaling coordinates for geometry "geometry" by  1.889725989
 (inverse scale =  0.529177249)

 C1  symmetry detected

          ------
          auto-z
          ------
  no constraints, skipping    0.0000000000000000     
  no constraints, skipping    0.0000000000000000     


                             Geometry "geometry" -> ""
                             -------------------------

 Output coordinates in angstroms (scale by  1.889725989 to convert to a.u.)

  No.       Tag          Charge          X              Y              Z
 ---- ---------------- ---------- -------------- -------------- --------------
    1 H                    1.0000     2.67881058     3.17471734     2.44975498
    2 C                    6.0000     2.88042361     2.80625410     1.44393590
    3 H                    1.0000     3.77226373     2.18272680     1.46008839
    4 H                    1.0000     3.03790643     3.65371471     0.77730956
    5 C                    6.0000     1.69946115     1.99836293     0.96348347
    6 O                    8.0000     0.71501691     1.84988903     1.68754150
    7 N                    7.0000     1.79050163     1.46290528    -0.26171559
    8 H                    1.0000     2.62910939     1.65102928    -0.79492134
    9 C                    6.0000     0.70623419     0.69706485    -0.91240259
   10 H                    1.0000    -0.03182142     0.56641737    -0.15330368
   11 C                    6.0000     0.01434572     1.49883455    -2.03840866
   12 H                    1.0000     0.78244633     1.90611193    -2.69771177
   13 H                    1.0000    -0.61123919     0.83670745    -2.63909678
   14 C                    6.0000    -0.88787202     2.65332201    -1.54242189
   15 H                    1.0000    -0.33313016     3.28525822    -0.84689828
   16 H                    1.0000    -1.12723839     3.26678665    -2.41222697
   17 C                    6.0000    -2.23205461     2.23330318    -0.90123524
   18 H                    1.0000    -2.86934087     3.11882511    -0.84740100
   19 H                    1.0000    -2.72845993     1.51474605    -1.55530207
   20 N                    7.0000    -2.07660539     1.69869091     0.46968681
   21 H                    1.0000    -1.63290799     2.31264064     1.13672155
   22 C                    6.0000    -2.16145045     0.43352048     0.84999470
   23 N                    7.0000    -1.58249858     0.05837744     1.95060382
   24 H                    1.0000    -1.48565327    -0.92997113     2.12526087
   25 H                    1.0000    -0.97304623     0.71308037     2.42236319
   26 N                    7.0000    -2.67331060    -0.50646653     0.11034774
   27 H                    1.0000    -2.49482103    -1.46808709     0.35966957
   28 H                    1.0000    -3.11043828    -0.27441427    -0.76147342
   29 C                    6.0000     0.97810936    -0.78301342    -1.19226006
   30 O                    8.0000     0.48666275    -1.34341540    -2.16375934
   31 N                    7.0000     1.65175763    -1.44182509    -0.24916187
   32 H                    1.0000     2.01975859    -0.90608943     0.51838460
   33 C                    6.0000     1.53990631    -2.89530321    -0.08329251
   34 H                    1.0000     1.74579073    -3.38319008    -1.03755820
   35 H                    1.0000     2.28028227    -3.23973624     0.63805924
   36 C                    6.0000     0.14395625    -3.33337058     0.40092479
   37 O                    8.0000    -0.66585458    -2.53178860     0.87856247
   38 N                    7.0000    -0.16061880    -4.61908971     0.29495140
   39 H                    1.0000     0.49935520    -5.26842917    -0.10394531
   40 H                    1.0000    -1.06516538    -4.93232027     0.61057632

      Atomic Mass 
      ----------- 

      H                  1.007825
      C                 12.000000
      O                 15.994910
      N                 14.003070


 Effective nuclear repulsion energy (a.u.)    1646.2094148795

            Nuclear Dipole moment (a.u.) 
            ----------------------------
        X                 Y               Z
 ---------------- ---------------- ----------------
     0.0000000000     0.0000000000    -0.0000000000



                                Z-matrix (autoz)
                                -------- 

 Units are Angstrom for bonds and degrees for angles

      Type          Name      I     J     K     L     M      Value
      ----------- --------  ----- ----- ----- ----- ----- ----------
    1 Stretch                  1     2                       1.08999
    2 Stretch                  2     3                       1.08831
    3 Stretch                  2     4                       1.08967
    4 Stretch                  2     5                       1.50937
    5 Stretch                  5     6                       1.23103
    6 Stretch                  5     7                       1.34019
    7 Stretch                  7     8                       1.01142
    8 Stretch                  7     9                       1.47836
    9 Stretch                  9    10                       1.06678
   10 Stretch                  9    11                       1.54578
   11 Stretch                  9    29                       1.53064
   12 Stretch                 11    12                       1.09112
   13 Stretch                 11    13                       1.09114
   14 Stretch                 11    14                       1.54688
   15 Stretch                 14    15                       1.09125
   16 Stretch                 14    16                       1.09096
   17 Stretch                 14    17                       1.54737
   18 Stretch                 17    18                       1.09233
   19 Stretch                 17    19                       1.09112
   20 Stretch                 17    20                       1.47966
   21 Stretch                 20    21                       1.00933
   22 Stretch                 20    22                       1.32382
   23 Stretch                 22    23                       1.29894
   24 Stretch                 22    26                       1.30102
   25 Stretch                 23    24                       1.00832
   26 Stretch                 23    25                       1.01125
   27 Stretch                 26    27                       1.00932
   28 Stretch                 26    28                       1.00250
   29 Stretch                 29    30                       1.22449
   30 Stretch                 29    31                       1.33314
   31 Stretch                 31    32                       1.00577
   32 Stretch                 31    33                       1.46718
   33 Stretch                 33    34                       1.09135
   34 Stretch                 33    35                       1.08956
   35 Stretch                 33    36                       1.54112
   36 Stretch                 36    37                       1.23550
   37 Stretch                 36    38                       1.32555
   38 Stretch                 38    39                       1.00813
   39 Stretch                 38    40                       1.00794
   40 Bend                     1     2     3               109.36311
   41 Bend                     1     2     4               109.16896
   42 Bend                     1     2     5               109.26554
   43 Bend                     2     5     6               120.20058
   44 Bend                     2     5     7               116.85302
   45 Bend                     3     2     4               109.64720
   46 Bend                     3     2     5               109.83020
   47 Bend                     4     2     5               109.54946
   48 Bend                     5     7     8               117.64312
   49 Bend                     5     7     9               124.02317
   50 Bend                     6     5     7               122.94549
   51 Bend                     7     9    10               104.93189
   52 Bend                     7     9    11               112.34616
   53 Bend                     7     9    29               116.81575
   54 Bend                     8     7     9               118.19234
   55 Bend                     9    11    12               108.58270
   56 Bend                     9    11    13               110.05299
   57 Bend                     9    11    14               114.49459
   58 Bend                     9    29    30               121.08537
   59 Bend                     9    29    31               115.99322
   60 Bend                    10     9    11               105.79472
   61 Bend                    10     9    29                97.73360
   62 Bend                    11     9    29               116.60687
   63 Bend                    11    14    15               109.88053
   64 Bend                    11    14    16               106.97811
   65 Bend                    11    14    17               115.90877
   66 Bend                    12    11    13               107.30514
   67 Bend                    12    11    14               109.01079
   68 Bend                    13    11    14               107.15808
   69 Bend                    14    17    18               107.88948
   70 Bend                    14    17    19               109.00028
   71 Bend                    14    17    20               112.99994
   72 Bend                    15    14    16               107.10133
   73 Bend                    15    14    17               109.55330
   74 Bend                    16    14    17               107.00222
   75 Bend                    17    20    21               116.02177
   76 Bend                    17    20    22               127.20989
   77 Bend                    18    17    19               107.33661
   78 Bend                    18    17    20               107.97081
   79 Bend                    19    17    20               111.42289
   80 Bend                    20    22    23               119.39726
   81 Bend                    20    22    26               123.53078
   82 Bend                    21    20    22               114.81241
   83 Bend                    22    23    24               118.20711
   84 Bend                    22    23    25               118.48430
   85 Bend                    22    26    27               118.57737
   86 Bend                    22    26    28               119.91519
   87 Bend                    23    22    26               116.64106
   88 Bend                    24    23    25               119.72933
   89 Bend                    27    26    28               120.82805
   90 Bend                    29    31    32               117.48555
   91 Bend                    29    31    33               122.07426
   92 Bend                    30    29    31               122.54088
   93 Bend                    31    33    34               109.24687
   94 Bend                    31    33    35               109.64633
   95 Bend                    31    33    36               112.71661
   96 Bend                    32    31    33               117.98933
   97 Bend                    33    36    37               122.05657
   98 Bend                    33    36    38               117.30472
   99 Bend                    34    33    35               108.02208
  100 Bend                    34    33    36               108.57453
  101 Bend                    35    33    36               108.51991
  102 Bend                    36    38    39               120.39528
  103 Bend                    36    38    40               118.85513
  104 Bend                    37    36    38               120.63715
  105 Bend                    39    38    40               120.74639
  106 Torsion                  1     2     5     6           0.06689
  107 Torsion                  1     2     5     7        -179.59680
  108 Torsion                  2     5     7     8          -1.50563
  109 Torsion                  2     5     7     9        -177.09632
  110 Torsion                  3     2     5     6         120.02754
  111 Torsion                  3     2     5     7         -59.63616
  112 Torsion                  4     2     5     6        -119.48576
  113 Torsion                  4     2     5     7          60.85055
  114 Torsion                  5     7     9    10          -8.13676
  115 Torsion                  5     7     9    11         106.33214
  116 Torsion                  5     7     9    29        -115.04567
  117 Torsion                  6     5     7     8         178.84073
  118 Torsion                  6     5     7     9           3.25004
  119 Torsion                  7     9    11    12          49.88455
  120 Torsion                  7     9    11    13         167.06499
  121 Torsion                  7     9    11    14         -72.17693
  122 Torsion                  7     9    29    30        -147.93776
  123 Torsion                  7     9    29    31          38.96956
  124 Torsion                  8     7     9    10         176.29505
  125 Torsion                  8     7     9    11         -69.23606
  126 Torsion                  8     7     9    29          69.38613
  127 Torsion                  9    11    14    15          51.52434
  128 Torsion                  9    11    14    16         167.45940
  129 Torsion                  9    11    14    17         -73.31786
  130 Torsion                  9    29    31    32          -6.74069
  131 Torsion                  9    29    31    33         155.12660
  132 Torsion                 10     9    11    12         163.82607
  133 Torsion                 10     9    11    13         -78.99349
  134 Torsion                 10     9    11    14          41.76459
  135 Torsion                 10     9    29    30         100.96114
  136 Torsion                 10     9    29    31         -72.13155
  137 Torsion                 11     9    29    30         -11.07864
  138 Torsion                 11     9    29    31         175.82868
  139 Torsion                 11    14    17    18        -165.01560
  140 Torsion                 11    14    17    19         -48.76399
  141 Torsion                 11    14    17    20          75.69499
  142 Torsion                 12    11     9    29         -88.83008
  143 Torsion                 12    11    14    15         -70.30347
  144 Torsion                 12    11    14    16          45.63159
  145 Torsion                 12    11    14    17         164.85433
  146 Torsion                 13    11     9    29          28.35036
  147 Torsion                 13    11    14    15         173.86976
  148 Torsion                 13    11    14    16         -70.19518
  149 Torsion                 13    11    14    17          49.02756
  150 Torsion                 14    11     9    29         149.10844
  151 Torsion                 14    17    20    21          57.49126
  152 Torsion                 14    17    20    22        -105.65630
  153 Torsion                 15    14    17    18          69.97425
  154 Torsion                 15    14    17    19        -173.77414
  155 Torsion                 15    14    17    20         -49.31516
  156 Torsion                 16    14    17    18         -45.80603
  157 Torsion                 16    14    17    19          70.44558
  158 Torsion                 16    14    17    20        -165.09545
  159 Torsion                 17    20    22    23         157.13891
  160 Torsion                 17    20    22    26         -15.06700
  161 Torsion                 18    17    20    21         -61.75119
  162 Torsion                 18    17    20    22         135.10124
  163 Torsion                 19    17    20    21        -179.38258
  164 Torsion                 19    17    20    22          17.46986
  165 Torsion                 20    22    23    24        -167.08865
  166 Torsion                 20    22    23    25          -8.45677
  167 Torsion                 20    22    26    27         164.65288
  168 Torsion                 20    22    26    28          -5.98164
  169 Torsion                 21    20    22    23          -6.18180
  170 Torsion                 21    20    22    26        -178.38771
  171 Torsion                 23    22    26    27          -7.75124
  172 Torsion                 23    22    26    28        -178.38576
  173 Torsion                 24    23    22    26           5.64552
  174 Torsion                 25    23    22    26         164.27739
  175 Torsion                 29    31    33    34          53.36602
  176 Torsion                 29    31    33    35         171.56936
  177 Torsion                 29    31    33    36         -67.42736
  178 Torsion                 30    29    31    32        -179.72311
  179 Torsion                 30    29    31    33         -17.85582
  180 Torsion                 31    33    36    37         -15.31388
  181 Torsion                 31    33    36    38         165.13770
  182 Torsion                 32    31    33    34        -144.85366
  183 Torsion                 32    31    33    35         -26.65033
  184 Torsion                 32    31    33    36          94.35295
  185 Torsion                 33    36    38    39          -1.06639
  186 Torsion                 33    36    38    40         179.57913
  187 Torsion                 34    33    36    37        -136.49083
  188 Torsion                 34    33    36    38          43.96075
  189 Torsion                 35    33    36    37         106.32975
  190 Torsion                 35    33    36    38         -73.21867
  191 Torsion                 37    36    38    39         179.37843
  192 Torsion                 37    36    38    40           0.02395


            XYZ format geometry
            -------------------
    40
 geometry
 H                     2.67881058     3.17471734     2.44975498
 C                     2.88042361     2.80625410     1.44393590
 H                     3.77226373     2.18272680     1.46008839
 H                     3.03790643     3.65371471     0.77730956
 C                     1.69946115     1.99836293     0.96348347
 O                     0.71501691     1.84988903     1.68754150
 N                     1.79050163     1.46290528    -0.26171559
 H                     2.62910939     1.65102928    -0.79492134
 C                     0.70623419     0.69706485    -0.91240259
 H                    -0.03182142     0.56641737    -0.15330368
 C                     0.01434572     1.49883455    -2.03840866
 H                     0.78244633     1.90611193    -2.69771177
 H                    -0.61123919     0.83670745    -2.63909678
 C                    -0.88787202     2.65332201    -1.54242189
 H                    -0.33313016     3.28525822    -0.84689828
 H                    -1.12723839     3.26678665    -2.41222697
 C                    -2.23205461     2.23330318    -0.90123524
 H                    -2.86934087     3.11882511    -0.84740100
 H                    -2.72845993     1.51474605    -1.55530207
 N                    -2.07660539     1.69869091     0.46968681
 H                    -1.63290799     2.31264064     1.13672155
 C                    -2.16145045     0.43352048     0.84999470
 N                    -1.58249858     0.05837744     1.95060382
 H                    -1.48565327    -0.92997113     2.12526087
 H                    -0.97304623     0.71308037     2.42236319
 N                    -2.67331060    -0.50646653     0.11034774
 H                    -2.49482103    -1.46808709     0.35966957
 H                    -3.11043828    -0.27441427    -0.76147342
 C                     0.97810936    -0.78301342    -1.19226006
 O                     0.48666275    -1.34341540    -2.16375934
 N                     1.65175763    -1.44182509    -0.24916187
 H                     2.01975859    -0.90608943     0.51838460
 C                     1.53990631    -2.89530321    -0.08329251
 H                     1.74579073    -3.38319008    -1.03755820
 H                     2.28028227    -3.23973624     0.63805924
 C                     0.14395625    -3.33337058     0.40092479
 O                    -0.66585458    -2.53178860     0.87856247
 N                    -0.16061880    -4.61908971     0.29495140
 H                     0.49935520    -5.26842917    -0.10394531
 H                    -1.06516538    -4.93232027     0.61057632

 ==============================================================================
                                internuclear distances
 ------------------------------------------------------------------------------
       center one      |      center two      | atomic units |  angstroms
 ------------------------------------------------------------------------------
    2 C                |   1 H                |     2.05979  |     1.08999
    3 H                |   2 C                |     2.05661  |     1.08831
    4 H                |   2 C                |     2.05918  |     1.08967
    5 C                |   2 C                |     2.85229  |     1.50937
    6 O                |   5 C                |     2.32631  |     1.23103
    7 N                |   5 C                |     2.53260  |     1.34019
    8 H                |   7 N                |     1.91130  |     1.01142
    9 C                |   7 N                |     2.79369  |     1.47836
   10 H                |   9 C                |     2.01593  |     1.06678
   11 C                |   9 C                |     2.92110  |     1.54578
   12 H                |  11 C                |     2.06191  |     1.09112
   13 H                |  11 C                |     2.06196  |     1.09114
   14 C                |  11 C                |     2.92318  |     1.54688
   15 H                |  14 C                |     2.06217  |     1.09125
   16 H                |  14 C                |     2.06162  |     1.09096
   17 C                |  14 C                |     2.92411  |     1.54737
   18 H                |  17 C                |     2.06420  |     1.09233
   19 H                |  17 C                |     2.06192  |     1.09112
   20 N                |  17 C                |     2.79616  |     1.47966
   21 H                |  20 N                |     1.90735  |     1.00933
   22 C                |  20 N                |     2.50165  |     1.32382
   23 N                |  22 C                |     2.45465  |     1.29894
   24 H                |  23 N                |     1.90546  |     1.00832
   25 H                |  23 N                |     1.91098  |     1.01125
   26 N                |  22 C                |     2.45857  |     1.30102
   27 H                |  26 N                |     1.90734  |     1.00932
   28 H                |  26 N                |     1.89445  |     1.00250
   29 C                |   9 C                |     2.89250  |     1.53064
   30 O                |  29 C                |     2.31395  |     1.22449
   31 N                |  29 C                |     2.51927  |     1.33314
   32 H                |  31 N                |     1.90062  |     1.00577
   33 C                |  31 N                |     2.77257  |     1.46718
   34 H                |  33 C                |     2.06235  |     1.09135
   35 H                |  33 C                |     2.05897  |     1.08956
   36 C                |  33 C                |     2.91229  |     1.54112
   37 O                |  36 C                |     2.33476  |     1.23550
   38 N                |  36 C                |     2.50492  |     1.32555
   39 H                |  38 N                |     1.90509  |     1.00813
   40 H                |  38 N                |     1.90472  |     1.00794
 ------------------------------------------------------------------------------
                         number of included internuclear distances:         39
 ==============================================================================



 ==============================================================================
                                 internuclear angles
 ------------------------------------------------------------------------------
        center 1       |       center 2       |       center 3       |  degrees
 ------------------------------------------------------------------------------
    1 H                |   2 C                |   3 H                |   109.36
    1 H                |   2 C                |   4 H                |   109.17
    1 H                |   2 C                |   5 C                |   109.27
    3 H                |   2 C                |   4 H                |   109.65
    3 H                |   2 C                |   5 C                |   109.83
    4 H                |   2 C                |   5 C                |   109.55
    2 C                |   5 C                |   6 O                |   120.20
    2 C                |   5 C                |   7 N                |   116.85
    6 O                |   5 C                |   7 N                |   122.95
    5 C                |   7 N                |   8 H                |   117.64
    5 C                |   7 N                |   9 C                |   124.02
    8 H                |   7 N                |   9 C                |   118.19
    7 N                |   9 C                |  10 H                |   104.93
    7 N                |   9 C                |  11 C                |   112.35
    7 N                |   9 C                |  29 C                |   116.82
   10 H                |   9 C                |  11 C                |   105.79
   10 H                |   9 C                |  29 C                |    97.73
   11 C                |   9 C                |  29 C                |   116.61
    9 C                |  11 C                |  12 H                |   108.58
    9 C                |  11 C                |  13 H                |   110.05
    9 C                |  11 C                |  14 C                |   114.49
   12 H                |  11 C                |  13 H                |   107.31
   12 H                |  11 C                |  14 C                |   109.01
   13 H                |  11 C                |  14 C                |   107.16
   11 C                |  14 C                |  15 H                |   109.88
   11 C                |  14 C                |  16 H                |   106.98
   11 C                |  14 C                |  17 C                |   115.91
   15 H                |  14 C                |  16 H                |   107.10
   15 H                |  14 C                |  17 C                |   109.55
   16 H                |  14 C                |  17 C                |   107.00
   14 C                |  17 C                |  18 H                |   107.89
   14 C                |  17 C                |  19 H                |   109.00
   14 C                |  17 C                |  20 N                |   113.00
   18 H                |  17 C                |  19 H                |   107.34
   18 H                |  17 C                |  20 N                |   107.97
   19 H                |  17 C                |  20 N                |   111.42
   17 C                |  20 N                |  21 H                |   116.02
   17 C                |  20 N                |  22 C                |   127.21
   21 H                |  20 N                |  22 C                |   114.81
   20 N                |  22 C                |  23 N                |   119.40
   20 N                |  22 C                |  26 N                |   123.53
   23 N                |  22 C                |  26 N                |   116.64
   22 C                |  23 N                |  24 H                |   118.21
   22 C                |  23 N                |  25 H                |   118.48
   24 H                |  23 N                |  25 H                |   119.73
   22 C                |  26 N                |  27 H                |   118.58
   22 C                |  26 N                |  28 H                |   119.92
   27 H                |  26 N                |  28 H                |   120.83
    9 C                |  29 C                |  30 O                |   121.09
    9 C                |  29 C                |  31 N                |   115.99
   30 O                |  29 C                |  31 N                |   122.54
   29 C                |  31 N                |  32 H                |   117.49
   29 C                |  31 N                |  33 C                |   122.07
   32 H                |  31 N                |  33 C                |   117.99
   31 N                |  33 C                |  34 H                |   109.25
   31 N                |  33 C                |  35 H                |   109.65
   31 N                |  33 C                |  36 C                |   112.72
   34 H                |  33 C                |  35 H                |   108.02
   34 H                |  33 C                |  36 C                |   108.57
   35 H                |  33 C                |  36 C                |   108.52
   33 C                |  36 C                |  37 O                |   122.06
   33 C                |  36 C                |  38 N                |   117.30
   37 O                |  36 C                |  38 N                |   120.64
   36 C                |  38 N                |  39 H                |   120.40
   36 C                |  38 N                |  40 H                |   118.86
   39 H                |  38 N                |  40 H                |   120.75
 ------------------------------------------------------------------------------
                            number of included internuclear angles:         66
 ==============================================================================



  library name resolved from: environment
  library file name is: </opt/rit/el9/20230413/app/linux-rhel9-x86_64_v3/gcc-11.2.1/nwchem-7.2.0-oxtctbuhfuzyfaoziquq6bki22grib3g/share/nwchem/libraries/>
  


 Summary of "ao basis" -> "" (cartesian)
 ------------------------------------------------------------------------------
       Tag                 Description            Shells   Functions and Types
 ---------------- ------------------------------  ------  ---------------------
 *                        aug-cc-pvdz                 on all atoms 


                      Basis "ao basis" -> "ao basis" (cartesian)
                      -----
  H (Hydrogen)
  ------------
            Exponent  Coefficients 
       -------------- ---------------------------------------------------------
  1 S  1.30100000E+01  0.019685
  1 S  1.96200000E+00  0.137977
  1 S  4.44600000E-01  0.478148

  2 S  1.22000000E-01  1.000000

  3 S  2.97400000E-02  1.000000

  4 P  7.27000000E-01  1.000000

  5 P  1.41000000E-01  1.000000

  C (Carbon)
  ----------
            Exponent  Coefficients 
       -------------- ---------------------------------------------------------
  1 S  6.66500000E+03  0.000692
  1 S  1.00000000E+03  0.005329
  1 S  2.28000000E+02  0.027077
  1 S  6.47100000E+01  0.101718
  1 S  2.10600000E+01  0.274740
  1 S  7.49500000E+00  0.448564
  1 S  2.79700000E+00  0.285074
  1 S  5.21500000E-01  0.015204

  2 S  6.66500000E+03 -0.000146
  2 S  1.00000000E+03 -0.001154
  2 S  2.28000000E+02 -0.005725
  2 S  6.47100000E+01 -0.023312
  2 S  2.10600000E+01 -0.063955
  2 S  7.49500000E+00 -0.149981
  2 S  2.79700000E+00 -0.127262
  2 S  5.21500000E-01  0.544529

  3 S  1.59600000E-01  1.000000

  4 S  4.69000000E-02  1.000000

  5 P  9.43900000E+00  0.038109
  5 P  2.00200000E+00  0.209480
  5 P  5.45600000E-01  0.508557

  6 P  1.51700000E-01  1.000000

  7 P  4.04100000E-02  1.000000

  8 D  5.50000000E-01  1.000000

  9 D  1.51000000E-01  1.000000

  O (Oxygen)
  ----------
            Exponent  Coefficients 
       -------------- ---------------------------------------------------------
  1 S  1.17200000E+04  0.000710
  1 S  1.75900000E+03  0.005470
  1 S  4.00800000E+02  0.027837
  1 S  1.13700000E+02  0.104800
  1 S  3.70300000E+01  0.283062
  1 S  1.32700000E+01  0.448719
  1 S  5.02500000E+00  0.270952
  1 S  1.01300000E+00  0.015458

  2 S  1.17200000E+04 -0.000160
  2 S  1.75900000E+03 -0.001263
  2 S  4.00800000E+02 -0.006267
  2 S  1.13700000E+02 -0.025716
  2 S  3.70300000E+01 -0.070924
  2 S  1.32700000E+01 -0.165411
  2 S  5.02500000E+00 -0.116955
  2 S  1.01300000E+00  0.557368

  3 S  3.02300000E-01  1.000000

  4 S  7.89600000E-02  1.000000

  5 P  1.77000000E+01  0.043018
  5 P  3.85400000E+00  0.228913
  5 P  1.04600000E+00  0.508728

  6 P  2.75300000E-01  1.000000

  7 P  6.85600000E-02  1.000000

  8 D  1.18500000E+00  1.000000

  9 D  3.32000000E-01  1.000000

  N (Nitrogen)
  ------------
            Exponent  Coefficients 
       -------------- ---------------------------------------------------------
  1 S  9.04600000E+03  0.000700
  1 S  1.35700000E+03  0.005389
  1 S  3.09300000E+02  0.027406
  1 S  8.77300000E+01  0.103207
  1 S  2.85600000E+01  0.278723
  1 S  1.02100000E+01  0.448540
  1 S  3.83800000E+00  0.278238
  1 S  7.46600000E-01  0.015440

  2 S  9.04600000E+03 -0.000153
  2 S  1.35700000E+03 -0.001208
  2 S  3.09300000E+02 -0.005992
  2 S  8.77300000E+01 -0.024544
  2 S  2.85600000E+01 -0.067459
  2 S  1.02100000E+01 -0.158078
  2 S  3.83800000E+00 -0.121831
  2 S  7.46600000E-01  0.549003

  3 S  2.24800000E-01  1.000000

  4 S  6.12400000E-02  1.000000

  5 P  1.35500000E+01  0.039919
  5 P  2.91700000E+00  0.217169
  5 P  7.97300000E-01  0.510319

  6 P  2.18500000E-01  1.000000

  7 P  5.61100000E-02  1.000000

  8 D  8.17000000E-01  1.000000

  9 D  2.30000000E-01  1.000000



 Summary of "ao basis" -> "ao basis" (cartesian)
 ------------------------------------------------------------------------------
       Tag                 Description            Shells   Functions and Types
 ---------------- ------------------------------  ------  ---------------------
 H                        aug-cc-pvdz                5        9   3s2p
 C                        aug-cc-pvdz                9       25   4s3p2d
 O                        aug-cc-pvdz                9       25   4s3p2d
 N                        aug-cc-pvdz                9       25   4s3p2d


 ------------------------------------------------------------------------
 scf: no. of closed-shell electrons is not even!                   0
 ------------------------------------------------------------------------
 ------------------------------------------------------------------------
  current input line : 
    55: task scf energy
 ------------------------------------------------------------------------
 ------------------------------------------------------------------------
 There is an error in the input file
 ------------------------------------------------------------------------
 For more information see the NWChem manual at https://nwchemgit.github.io


 For further details see manual section:                                                                                                                                                                                                                                                                
0:scf: no. of closed-shell electrons is not even!:Received an Error in Communication
--------------------------------------------------------------------------
MPI_ABORT was invoked on rank 0 in communicator MPI COMMUNICATOR 3 DUP FROM 0
with errorcode -1.

NOTE: invoking MPI_ABORT causes Open MPI to kill all MPI processes.
You may or may not see output from other processes, depending on
exactly when Open MPI kills them.
--------------------------------------------------------------------------
slurmstepd: error: *** STEP 6606886.11 ON nova21-swift-4 CANCELLED AT 2025-07-08T09:10:28 ***
srun: Job step aborted: Waiting up to 32 seconds for job step to finish.
srun: error: nova21-swift-4: task 0: Exited with exit code 255
