export TMOUT=5400
export TMPDIR=/tmp
export PTMPDIR=/tmp/ptmp
 argument  1 = inputs/ASN_MET_0.nw



============================== echo of input deck ==============================
start ASN_MET_0
geometry
H          4.78700       10.93000        6.89200
C          5.01900       10.56000        5.89400
H          5.16300       11.40200        5.21900
H          4.20100        9.93700        5.53600
C          6.28400        9.74000        5.95200
O          6.86800        9.57600        7.01800
N          6.73300        9.24500        4.79900
H          6.21500        9.47800        3.96100
C          7.89600        8.35600        4.63000
H          7.81100        7.56200        5.37500
C          7.79800        7.70600        3.23800
H          8.59600        6.97400        3.11500
H          6.84800        7.18100        3.14600
C          7.88200        8.73400        2.12600
O          6.89300        9.32100        1.72700
N          9.06300        9.02600        1.63800
H          9.10200        9.70300        0.90000
H          9.88500        8.65300        2.09400
C          9.27800        9.01700        4.87800
O         10.27500        8.62800        4.27100
N          9.33000       10.03700        5.73400
H          8.45600       10.29100        6.17600
C         10.51400       10.82500        6.09400
H         11.38800       10.17700        6.01500
C         10.69600       11.98100        5.08900
H         11.69000       12.40400        5.24300
H         10.67200       11.58500        4.07400
C          9.68000       13.13200        5.21400
H          9.75200       13.55000        6.21800
H          9.98300       13.91900        4.52200
S          7.93000       12.75400        4.88800
C          7.99000       12.33100        3.12600
H          8.63600       11.46800        2.97400
H          6.98700       12.08900        2.77400
H          8.37500       13.17800        2.55700
C         10.47600       11.33300        7.55000
O         11.37600       12.04200        7.98100
N          9.45600       11.00200        8.33500
H          9.45300       11.35100        9.27900
H          8.70600       10.41900        7.99400
end

basis
 * library aug-cc-pvdz
end

echo

scf
 direct
end

task scf energy
================================================================================


                                         
                                         


             Northwest Computational Chemistry Package (NWChem) 7.2.0
             --------------------------------------------------------


                    Environmental Molecular Sciences Laboratory
                       Pacific Northwest National Laboratory
                                Richland, WA 99352

                              Copyright (c) 1994-2022
                       Pacific Northwest National Laboratory
                            Battelle Memorial Institute

             NWChem is an open-source computational chemistry package
                        distributed under the terms of the
                      Educational Community License (ECL) 2.0
             A copy of the license is included with this distribution
                              in the LICENSE.TXT file

                                  ACKNOWLEDGMENT
                                  --------------

            This software and its documentation were developed at the
            EMSL at Pacific Northwest National Laboratory, a multiprogram
            national laboratory, operated for the U.S. Department of Energy
            by Battelle under Contract Number DE-AC05-76RL01830. Support
            for this work was provided by the Department of Energy Office
            of Biological and Environmental Research, Office of Basic
            Energy Sciences, and the Office of Advanced Scientific Computing.


           Job information
           ---------------

    hostname        = nova21-swift-1
    program         = /opt/rit/el9/20230413/app/linux-rhel9-x86_64_v3/gcc-11.2.1/nwchem-7.2.0-oxtctbuhfuzyfaoziquq6bki22grib3g/bin/nwchem
    date            = Thu Jul 10 07:29:43 2025

    compiled        = Wed_May_17_23:46:39_2023
    source          = /tmp/root/spack-stage/spack-stage-nwchem-7.2.0-oxtctbuhfuzyfaoziquq6bki22grib3g/spack-src
    nwchem branch   = 7.2.0
    nwchem revision = d0d141fd
    ga revision     = 5.8.0
    use scalapack   = T
    input           = inputs/ASN_MET_0.nw
    prefix          = ASN_MET_0.
    data base       = ./ASN_MET_0.db
    status          = startup
    nproc           =        8
    time left       =     -1s



           Memory information
           ------------------

    heap     =   26214396 doubles =    200.0 Mbytes
    stack    =   26214401 doubles =    200.0 Mbytes
    global   =   52428800 doubles =    400.0 Mbytes (distinct from heap & stack)
    total    =  104857597 doubles =    800.0 Mbytes
    verify   = yes
    hardfail = no 


           Directory information
           ---------------------

  0 permanent = .
  0 scratch   = .




                                NWChem Input Module
                                -------------------



 Scaling coordinates for geometry "geometry" by  1.889725989
 (inverse scale =  0.529177249)

 C1  symmetry detected

          ------
          auto-z
          ------
  no constraints, skipping    0.0000000000000000     
  no constraints, skipping    0.0000000000000000     


                             Geometry "geometry" -> ""
                             -------------------------

 Output coordinates in angstroms (scale by  1.889725989 to convert to a.u.)

  No.       Tag          Charge          X              Y              Z
 ---- ---------------- ---------- -------------- -------------- --------------
    1 H                    1.0000    -4.15384988     0.05331933     0.75862776
    2 C                    6.0000    -3.42644872     0.86384816     0.78429026
    3 H                    1.0000    -2.91155920     0.85936907     1.74355754
    4 H                    1.0000    -3.93539269     1.81609034     0.64419072
    5 C                    6.0000    -2.42402684     0.66436087    -0.32536924
    6 O                    8.0000    -2.52165124    -0.29454860    -1.08383486
    7 N                    7.0000    -1.43418440     1.55282686    -0.40828562
    8 H                    1.0000    -1.40355990     2.28026686     0.29509919
    9 C                    6.0000    -0.39545679     1.60048899    -1.45242368
   10 H                    1.0000    -0.89764794     1.50253362    -2.41725258
   11 C                    6.0000     0.26191389     2.99165313    -1.40452684
   12 H                    1.0000     0.97471743     3.09187860    -2.22283177
   13 H                    1.0000    -0.49968540     3.76015846    -1.53084022
   14 C                    6.0000     0.97073734     3.23776320    -0.08642852
   15 O                    8.0000     0.37831865     3.67903000     0.88115336
   16 N                    7.0000     2.23505874     2.90566283     0.01036895
   17 H                    1.0000     2.69129483     3.07931787     0.88568978
   18 H                    1.0000     2.66312846     2.38954981    -0.74668630
   19 C                    6.0000     0.64700668     0.45188455    -1.40418710
   20 O                    8.0000     1.80113823     0.63860098    -1.78745767
   21 N                    7.0000     0.25499255    -0.71704478    -0.89845086
   22 H                    1.0000    -0.71027145    -0.77058067    -0.59986200
   23 C                    6.0000     1.07445015    -1.92194307    -0.72783625
   24 H                    1.0000     1.82948670    -1.93136927    -1.51514302
   25 C                    6.0000     1.81091484    -1.86390972     0.62631917
   26 H                    1.0000     2.57238418    -2.64547570     0.62608848
   27 H                    1.0000     2.33239914    -0.91101755     0.71388422
   28 C                    6.0000     0.92739095    -2.08050321     1.86936172
   29 H                    1.0000     0.45278589    -3.05851031     1.79077318
   30 H                    1.0000     1.58301404    -2.11694170     2.74049466
   31 S                   16.0000    -0.37196094    -0.85206774     2.20743116
   32 C                    6.0000     0.62661890     0.62054567     2.55588636
   33 H                    1.0000     1.22390691     0.87817061     1.68292277
   34 H                    1.0000    -0.02876504     1.45789757     2.79628328
   35 H                    1.0000     1.28565428     0.42644158     3.40287572
   36 C                    6.0000     0.26388044    -3.22512690    -0.88318318
   37 O                    8.0000     0.80432077    -4.31190517    -0.72418875
   38 N                    7.0000    -1.02886500    -3.16283323    -1.18503534
   39 H                    1.0000    -1.53567246    -4.02765911    -1.27541452
   40 H                    1.0000    -1.48890229    -2.27442524    -1.31832807

      Atomic Mass 
      ----------- 

      H                  1.007825
      C                 12.000000
      O                 15.994910
      N                 14.003070
      S                 31.972070


 Effective nuclear repulsion energy (a.u.)    1939.4614880629

            Nuclear Dipole moment (a.u.) 
            ----------------------------
        X                 Y               Z
 ---------------- ---------------- ----------------
     0.0000000000    -0.0000000000     0.0000000000



                                Z-matrix (autoz)
                                -------- 

 Units are Angstrom for bonds and degrees for angles

      Type          Name      I     J     K     L     M      Value
      ----------- --------  ----- ----- ----- ----- ----- ----------
    1 Stretch                  1     2                       1.08937
    2 Stretch                  2     3                       1.08873
    3 Stretch                  2     4                       1.08877
    4 Stretch                  2     5                       1.50864
    5 Stretch                  5     6                       1.22650
    6 Stretch                  5     7                       1.33268
    7 Stretch                  7     8                       1.01235
    8 Stretch                  7     9                       1.47358
    9 Stretch                  9    10                       1.09210
   10 Stretch                  9    11                       1.53941
   11 Stretch                  9    19                       1.55189
   12 Stretch                 11    12                       1.08984
   13 Stretch                 11    13                       1.08931
   14 Stretch                 11    14                       1.51670
   15 Stretch                 14    15                       1.21733
   16 Stretch                 14    16                       1.31079
   17 Stretch                 16    17                       1.00224
   18 Stretch                 16    18                       1.01131
   19 Stretch                 19    20                       1.23036
   20 Stretch                 19    21                       1.33261
   21 Stretch                 21    22                       1.01181
   22 Stretch                 21    23                       1.46711
   23 Stretch                 23    24                       1.09088
   24 Stretch                 23    25                       1.54256
   25 Stretch                 23    36                       1.54254
   26 Stretch                 25    26                       1.09118
   27 Stretch                 25    27                       1.08978
   28 Stretch                 25    28                       1.54035
   29 Stretch                 28    29                       1.08992
   30 Stretch                 28    30                       1.09089
   31 Stretch                 28    31                       1.81980
   32 Stretch                 31    32                       1.81306
   33 Stretch                 32    33                       1.08866
   34 Stretch                 32    34                       1.09017
   35 Stretch                 32    35                       1.09059
   36 Stretch                 36    37                       1.22411
   37 Stretch                 36    38                       1.32898
   38 Stretch                 38    39                       1.00645
   39 Stretch                 38    40                       1.00929
   40 Bend                     1     2     3               109.48023
   41 Bend                     1     2     4               109.60760
   42 Bend                     1     2     5               109.14519
   43 Bend                     2     5     6               120.35439
   44 Bend                     2     5     7               116.81621
   45 Bend                     3     2     4               109.75777
   46 Bend                     3     2     5               109.46870
   47 Bend                     4     2     5               109.36599
   48 Bend                     5     7     8               117.27678
   49 Bend                     5     7     9               126.10093
   50 Bend                     6     5     7               122.81089
   51 Bend                     7     9    10               107.39472
   52 Bend                     7     9    11               107.95052
   53 Bend                     7     9    19               115.31187
   54 Bend                     8     7     9               116.59949
   55 Bend                     9    11    12               109.81845
   56 Bend                     9    11    13               109.59639
   57 Bend                     9    11    14               111.91622
   58 Bend                     9    19    20               120.53862
   59 Bend                     9    19    21               117.60786
   60 Bend                    10     9    11               107.75273
   61 Bend                    10     9    19               105.66228
   62 Bend                    11     9    19               112.39824
   63 Bend                    11    14    15               121.47618
   64 Bend                    11    14    16               118.28404
   65 Bend                    12    11    13               107.77825
   66 Bend                    12    11    14               109.38666
   67 Bend                    13    11    14               108.24275
   68 Bend                    14    16    17               117.36601
   69 Bend                    14    16    18               118.83542
   70 Bend                    15    14    16               120.16855
   71 Bend                    17    16    18               123.33465
   72 Bend                    19    21    22               116.04301
   73 Bend                    19    21    23               126.88613
   74 Bend                    20    19    21               121.82224
   75 Bend                    21    23    24               108.04478
   76 Bend                    21    23    25               109.74672
   77 Bend                    21    23    36               112.86853
   78 Bend                    22    21    23               117.07050
   79 Bend                    23    25    26               107.82058
   80 Bend                    23    25    27               109.38384
   81 Bend                    23    25    28               115.42227
   82 Bend                    23    36    37               120.32944
   83 Bend                    23    36    38               119.63171
   84 Bend                    24    23    25               107.66477
   85 Bend                    24    23    36               106.48218
   86 Bend                    25    23    36               111.78162
   87 Bend                    25    28    29               108.52722
   88 Bend                    25    28    30               107.72168
   89 Bend                    25    28    31               117.68064
   90 Bend                    26    25    27               107.00004
   91 Bend                    26    25    28               107.44114
   92 Bend                    27    25    28               109.42560
   93 Bend                    28    31    32               100.99561
   94 Bend                    29    28    30               106.81672
   95 Bend                    29    28    31               107.95123
   96 Bend                    30    28    31               107.65692
   97 Bend                    31    32    33               109.89348
   98 Bend                    31    32    34               109.58077
   99 Bend                    31    32    35               109.72634
  100 Bend                    33    32    34               108.95882
  101 Bend                    33    32    35               109.47120
  102 Bend                    34    32    35               109.19182
  103 Bend                    36    38    39               118.03093
  104 Bend                    36    38    40               120.97275
  105 Bend                    37    36    38               120.03809
  106 Bend                    39    38    40               120.99627
  107 Torsion                  1     2     5     6           0.52103
  108 Torsion                  1     2     5     7        -177.95757
  109 Torsion                  2     5     7     8           2.04061
  110 Torsion                  2     5     7     9        -176.15559
  111 Torsion                  3     2     5     6         120.33185
  112 Torsion                  3     2     5     7         -58.14675
  113 Torsion                  4     2     5     6        -119.38322
  114 Torsion                  4     2     5     7          62.13818
  115 Torsion                  5     7     9    10          47.33654
  116 Torsion                  5     7     9    11         163.27229
  117 Torsion                  5     7     9    19         -70.12258
  118 Torsion                  6     5     7     8        -176.39734
  119 Torsion                  6     5     7     9           5.40646
  120 Torsion                  7     9    11    12        -174.98022
  121 Torsion                  7     9    11    13         -56.76314
  122 Torsion                  7     9    11    14          63.33012
  123 Torsion                  7     9    19    20        -149.32024
  124 Torsion                  7     9    19    21          28.68185
  125 Torsion                  8     7     9    10        -130.87047
  126 Torsion                  8     7     9    11         -14.93472
  127 Torsion                  8     7     9    19         111.67041
  128 Torsion                  9    11    14    15         -86.34824
  129 Torsion                  9    11    14    16          90.58667
  130 Torsion                  9    19    21    22           1.28046
  131 Torsion                  9    19    21    23        -178.49397
  132 Torsion                 10     9    11    12         -59.27883
  133 Torsion                 10     9    11    13          58.93825
  134 Torsion                 10     9    11    14         179.03151
  135 Torsion                 10     9    19    20          92.25140
  136 Torsion                 10     9    19    21         -89.74651
  137 Torsion                 11     9    19    20         -25.01060
  138 Torsion                 11     9    19    21         152.99149
  139 Torsion                 11    14    16    17         179.64535
  140 Torsion                 11    14    16    18          -7.90580
  141 Torsion                 12    11     9    19          56.73206
  142 Torsion                 12    11    14    15         151.71421
  143 Torsion                 12    11    14    16         -31.35088
  144 Torsion                 13    11     9    19         174.94914
  145 Torsion                 13    11    14    15          34.53311
  146 Torsion                 13    11    14    16        -148.53198
  147 Torsion                 14    11     9    19         -64.95760
  148 Torsion                 15    14    16    17          -3.37825
  149 Torsion                 15    14    16    18         169.07060
  150 Torsion                 19    21    23    24         -30.41227
  151 Torsion                 19    21    23    25          86.71906
  152 Torsion                 19    21    23    36        -147.88034
  153 Torsion                 20    19    21    22         179.25527
  154 Torsion                 20    19    21    23          -0.51916
  155 Torsion                 21    23    25    26        -167.44202
  156 Torsion                 21    23    25    27         -51.42335
  157 Torsion                 21    23    25    28          72.46664
  158 Torsion                 21    23    36    37        -177.61185
  159 Torsion                 21    23    36    38           2.07140
  160 Torsion                 22    21    23    24         149.81533
  161 Torsion                 22    21    23    25         -93.05334
  162 Torsion                 22    21    23    36          32.34726
  163 Torsion                 23    25    28    29          58.97627
  164 Torsion                 23    25    28    30         174.28001
  165 Torsion                 23    25    28    31         -63.90252
  166 Torsion                 23    36    38    39        -179.65537
  167 Torsion                 23    36    38    40           0.25695
  168 Torsion                 24    23    25    26         -50.07302
  169 Torsion                 24    23    25    27          65.94564
  170 Torsion                 24    23    25    28        -170.16436
  171 Torsion                 24    23    36    37          64.00391
  172 Torsion                 24    23    36    38        -116.31284
  173 Torsion                 25    23    36    37         -53.31950
  174 Torsion                 25    23    36    38         126.36375
  175 Torsion                 25    28    31    32         -65.27221
  176 Torsion                 26    25    23    36          66.53649
  177 Torsion                 26    25    28    29         -61.32230
  178 Torsion                 26    25    28    30          53.98144
  179 Torsion                 26    25    28    31         175.79891
  180 Torsion                 27    25    23    36        -177.44484
  181 Torsion                 27    25    28    29        -177.15565
  182 Torsion                 27    25    28    30         -61.85190
  183 Torsion                 27    25    28    31          59.96556
  184 Torsion                 28    25    23    36         -53.55485
  185 Torsion                 28    31    32    33          61.11709
  186 Torsion                 28    31    32    34        -179.18475
  187 Torsion                 28    31    32    35         -59.30331
  188 Torsion                 29    28    31    32         171.55699
  189 Torsion                 30    28    31    32          56.57852
  190 Torsion                 37    36    38    39           0.02882
  191 Torsion                 37    36    38    40         179.94114


            XYZ format geometry
            -------------------
    40
 geometry
 H                    -4.15384988     0.05331933     0.75862776
 C                    -3.42644872     0.86384816     0.78429026
 H                    -2.91155920     0.85936907     1.74355754
 H                    -3.93539269     1.81609034     0.64419072
 C                    -2.42402684     0.66436087    -0.32536924
 O                    -2.52165124    -0.29454860    -1.08383486
 N                    -1.43418440     1.55282686    -0.40828562
 H                    -1.40355990     2.28026686     0.29509919
 C                    -0.39545679     1.60048899    -1.45242368
 H                    -0.89764794     1.50253362    -2.41725258
 C                     0.26191389     2.99165313    -1.40452684
 H                     0.97471743     3.09187860    -2.22283177
 H                    -0.49968540     3.76015846    -1.53084022
 C                     0.97073734     3.23776320    -0.08642852
 O                     0.37831865     3.67903000     0.88115336
 N                     2.23505874     2.90566283     0.01036895
 H                     2.69129483     3.07931787     0.88568978
 H                     2.66312846     2.38954981    -0.74668630
 C                     0.64700668     0.45188455    -1.40418710
 O                     1.80113823     0.63860098    -1.78745767
 N                     0.25499255    -0.71704478    -0.89845086
 H                    -0.71027145    -0.77058067    -0.59986200
 C                     1.07445015    -1.92194307    -0.72783625
 H                     1.82948670    -1.93136927    -1.51514302
 C                     1.81091484    -1.86390972     0.62631917
 H                     2.57238418    -2.64547570     0.62608848
 H                     2.33239914    -0.91101755     0.71388422
 C                     0.92739095    -2.08050321     1.86936172
 H                     0.45278589    -3.05851031     1.79077318
 H                     1.58301404    -2.11694170     2.74049466
 S                    -0.37196094    -0.85206774     2.20743116
 C                     0.62661890     0.62054567     2.55588636
 H                     1.22390691     0.87817061     1.68292277
 H                    -0.02876504     1.45789757     2.79628328
 H                     1.28565428     0.42644158     3.40287572
 C                     0.26388044    -3.22512690    -0.88318318
 O                     0.80432077    -4.31190517    -0.72418875
 N                    -1.02886500    -3.16283323    -1.18503534
 H                    -1.53567246    -4.02765911    -1.27541452
 H                    -1.48890229    -2.27442524    -1.31832807

 ==============================================================================
                                internuclear distances
 ------------------------------------------------------------------------------
       center one      |      center two      | atomic units |  angstroms
 ------------------------------------------------------------------------------
    2 C                |   1 H                |     2.05861  |     1.08937
    3 H                |   2 C                |     2.05739  |     1.08873
    4 H                |   2 C                |     2.05747  |     1.08877
    5 C                |   2 C                |     2.85091  |     1.50864
    6 O                |   5 C                |     2.31775  |     1.22650
    7 N                |   5 C                |     2.51840  |     1.33268
    8 H                |   7 N                |     1.91307  |     1.01235
    9 C                |   7 N                |     2.78467  |     1.47358
   10 H                |   9 C                |     2.06377  |     1.09210
   11 C                |   9 C                |     2.90905  |     1.53941
   12 H                |  11 C                |     2.05950  |     1.08984
   13 H                |  11 C                |     2.05849  |     1.08931
   14 C                |  11 C                |     2.86615  |     1.51670
   15 O                |  14 C                |     2.30042  |     1.21733
   16 N                |  14 C                |     2.47703  |     1.31079
   17 H                |  16 N                |     1.89397  |     1.00224
   18 H                |  16 N                |     1.91110  |     1.01131
   19 C                |   9 C                |     2.93264  |     1.55189
   20 O                |  19 C                |     2.32504  |     1.23036
   21 N                |  19 C                |     2.51826  |     1.33261
   22 H                |  21 N                |     1.91204  |     1.01181
   23 C                |  21 N                |     2.77243  |     1.46711
   24 H                |  23 C                |     2.06147  |     1.09088
   25 C                |  23 C                |     2.91501  |     1.54256
   26 H                |  25 C                |     2.06204  |     1.09118
   27 H                |  25 C                |     2.05938  |     1.08978
   28 C                |  25 C                |     2.91084  |     1.54035
   29 H                |  28 C                |     2.05965  |     1.08992
   30 H                |  28 C                |     2.06148  |     1.09089
   31 S                |  28 C                |     3.43892  |     1.81980
   32 C                |  31 S                |     3.42618  |     1.81306
   33 H                |  32 C                |     2.05728  |     1.08866
   34 H                |  32 C                |     2.06013  |     1.09017
   35 H                |  32 C                |     2.06092  |     1.09059
   36 C                |  23 C                |     2.91499  |     1.54254
   37 O                |  36 C                |     2.31323  |     1.22411
   38 N                |  36 C                |     2.51141  |     1.32898
   39 H                |  38 N                |     1.90192  |     1.00645
   40 H                |  38 N                |     1.90729  |     1.00929
 ------------------------------------------------------------------------------
                         number of included internuclear distances:         39
 ==============================================================================



 ==============================================================================
                                 internuclear angles
 ------------------------------------------------------------------------------
        center 1       |       center 2       |       center 3       |  degrees
 ------------------------------------------------------------------------------
    1 H                |   2 C                |   3 H                |   109.48
    1 H                |   2 C                |   4 H                |   109.61
    1 H                |   2 C                |   5 C                |   109.15
    3 H                |   2 C                |   4 H                |   109.76
    3 H                |   2 C                |   5 C                |   109.47
    4 H                |   2 C                |   5 C                |   109.37
    2 C                |   5 C                |   6 O                |   120.35
    2 C                |   5 C                |   7 N                |   116.82
    6 O                |   5 C                |   7 N                |   122.81
    5 C                |   7 N                |   8 H                |   117.28
    5 C                |   7 N                |   9 C                |   126.10
    8 H                |   7 N                |   9 C                |   116.60
    7 N                |   9 C                |  10 H                |   107.39
    7 N                |   9 C                |  11 C                |   107.95
    7 N                |   9 C                |  19 C                |   115.31
   10 H                |   9 C                |  11 C                |   107.75
   10 H                |   9 C                |  19 C                |   105.66
   11 C                |   9 C                |  19 C                |   112.40
    9 C                |  11 C                |  12 H                |   109.82
    9 C                |  11 C                |  13 H                |   109.60
    9 C                |  11 C                |  14 C                |   111.92
   12 H                |  11 C                |  13 H                |   107.78
   12 H                |  11 C                |  14 C                |   109.39
   13 H                |  11 C                |  14 C                |   108.24
   11 C                |  14 C                |  15 O                |   121.48
   11 C                |  14 C                |  16 N                |   118.28
   15 O                |  14 C                |  16 N                |   120.17
   14 C                |  16 N                |  17 H                |   117.37
   14 C                |  16 N                |  18 H                |   118.84
   17 H                |  16 N                |  18 H                |   123.33
    9 C                |  19 C                |  20 O                |   120.54
    9 C                |  19 C                |  21 N                |   117.61
   20 O                |  19 C                |  21 N                |   121.82
   19 C                |  21 N                |  22 H                |   116.04
   19 C                |  21 N                |  23 C                |   126.89
   22 H                |  21 N                |  23 C                |   117.07
   21 N                |  23 C                |  24 H                |   108.04
   21 N                |  23 C                |  25 C                |   109.75
   21 N                |  23 C                |  36 C                |   112.87
   24 H                |  23 C                |  25 C                |   107.66
   24 H                |  23 C                |  36 C                |   106.48
   25 C                |  23 C                |  36 C                |   111.78
   23 C                |  25 C                |  26 H                |   107.82
   23 C                |  25 C                |  27 H                |   109.38
   23 C                |  25 C                |  28 C                |   115.42
   26 H                |  25 C                |  27 H                |   107.00
   26 H                |  25 C                |  28 C                |   107.44
   27 H                |  25 C                |  28 C                |   109.43
   25 C                |  28 C                |  29 H                |   108.53
   25 C                |  28 C                |  30 H                |   107.72
   25 C                |  28 C                |  31 S                |   117.68
   29 H                |  28 C                |  30 H                |   106.82
   29 H                |  28 C                |  31 S                |   107.95
   30 H                |  28 C                |  31 S                |   107.66
   28 C                |  31 S                |  32 C                |   101.00
   31 S                |  32 C                |  33 H                |   109.89
   31 S                |  32 C                |  34 H                |   109.58
   31 S                |  32 C                |  35 H                |   109.73
   33 H                |  32 C                |  34 H                |   108.96
   33 H                |  32 C                |  35 H                |   109.47
   34 H                |  32 C                |  35 H                |   109.19
   23 C                |  36 C                |  37 O                |   120.33
   23 C                |  36 C                |  38 N                |   119.63
   37 O                |  36 C                |  38 N                |   120.04
   36 C                |  38 N                |  39 H                |   118.03
   36 C                |  38 N                |  40 H                |   120.97
   39 H                |  38 N                |  40 H                |   121.00
 ------------------------------------------------------------------------------
                            number of included internuclear angles:         67
 ==============================================================================



  library name resolved from: environment
  library file name is: </opt/rit/el9/20230413/app/linux-rhel9-x86_64_v3/gcc-11.2.1/nwchem-7.2.0-oxtctbuhfuzyfaoziquq6bki22grib3g/share/nwchem/libraries/>
  


 Summary of "ao basis" -> "" (cartesian)
 ------------------------------------------------------------------------------
       Tag                 Description            Shells   Functions and Types
 ---------------- ------------------------------  ------  ---------------------
 *                        aug-cc-pvdz                 on all atoms 


                      Basis "ao basis" -> "ao basis" (cartesian)
                      -----
  H (Hydrogen)
  ------------
            Exponent  Coefficients 
       -------------- ---------------------------------------------------------
  1 S  1.30100000E+01  0.019685
  1 S  1.96200000E+00  0.137977
  1 S  4.44600000E-01  0.478148

  2 S  1.22000000E-01  1.000000

  3 S  2.97400000E-02  1.000000

  4 P  7.27000000E-01  1.000000

  5 P  1.41000000E-01  1.000000

  C (Carbon)
  ----------
            Exponent  Coefficients 
       -------------- ---------------------------------------------------------
  1 S  6.66500000E+03  0.000692
  1 S  1.00000000E+03  0.005329
  1 S  2.28000000E+02  0.027077
  1 S  6.47100000E+01  0.101718
  1 S  2.10600000E+01  0.274740
  1 S  7.49500000E+00  0.448564
  1 S  2.79700000E+00  0.285074
  1 S  5.21500000E-01  0.015204

  2 S  6.66500000E+03 -0.000146
  2 S  1.00000000E+03 -0.001154
  2 S  2.28000000E+02 -0.005725
  2 S  6.47100000E+01 -0.023312
  2 S  2.10600000E+01 -0.063955
  2 S  7.49500000E+00 -0.149981
  2 S  2.79700000E+00 -0.127262
  2 S  5.21500000E-01  0.544529

  3 S  1.59600000E-01  1.000000

  4 S  4.69000000E-02  1.000000

  5 P  9.43900000E+00  0.038109
  5 P  2.00200000E+00  0.209480
  5 P  5.45600000E-01  0.508557

  6 P  1.51700000E-01  1.000000

  7 P  4.04100000E-02  1.000000

  8 D  5.50000000E-01  1.000000

  9 D  1.51000000E-01  1.000000

  O (Oxygen)
  ----------
            Exponent  Coefficients 
       -------------- ---------------------------------------------------------
  1 S  1.17200000E+04  0.000710
  1 S  1.75900000E+03  0.005470
  1 S  4.00800000E+02  0.027837
  1 S  1.13700000E+02  0.104800
  1 S  3.70300000E+01  0.283062
  1 S  1.32700000E+01  0.448719
  1 S  5.02500000E+00  0.270952
  1 S  1.01300000E+00  0.015458

  2 S  1.17200000E+04 -0.000160
  2 S  1.75900000E+03 -0.001263
  2 S  4.00800000E+02 -0.006267
  2 S  1.13700000E+02 -0.025716
  2 S  3.70300000E+01 -0.070924
  2 S  1.32700000E+01 -0.165411
  2 S  5.02500000E+00 -0.116955
  2 S  1.01300000E+00  0.557368

  3 S  3.02300000E-01  1.000000

  4 S  7.89600000E-02  1.000000

  5 P  1.77000000E+01  0.043018
  5 P  3.85400000E+00  0.228913
  5 P  1.04600000E+00  0.508728

  6 P  2.75300000E-01  1.000000

  7 P  6.85600000E-02  1.000000

  8 D  1.18500000E+00  1.000000

  9 D  3.32000000E-01  1.000000

  N (Nitrogen)
  ------------
            Exponent  Coefficients 
       -------------- ---------------------------------------------------------
  1 S  9.04600000E+03  0.000700
  1 S  1.35700000E+03  0.005389
  1 S  3.09300000E+02  0.027406
  1 S  8.77300000E+01  0.103207
  1 S  2.85600000E+01  0.278723
  1 S  1.02100000E+01  0.448540
  1 S  3.83800000E+00  0.278238
  1 S  7.46600000E-01  0.015440

  2 S  9.04600000E+03 -0.000153
  2 S  1.35700000E+03 -0.001208
  2 S  3.09300000E+02 -0.005992
  2 S  8.77300000E+01 -0.024544
  2 S  2.85600000E+01 -0.067459
  2 S  1.02100000E+01 -0.158078
  2 S  3.83800000E+00 -0.121831
  2 S  7.46600000E-01  0.549003

  3 S  2.24800000E-01  1.000000

  4 S  6.12400000E-02  1.000000

  5 P  1.35500000E+01  0.039919
  5 P  2.91700000E+00  0.217169
  5 P  7.97300000E-01  0.510319

  6 P  2.18500000E-01  1.000000

  7 P  5.61100000E-02  1.000000

  8 D  8.17000000E-01  1.000000

  9 D  2.30000000E-01  1.000000

  S (Sulphur)
  -----------
            Exponent  Coefficients 
       -------------- ---------------------------------------------------------
  1 S  1.10800000E+05  0.000248
  1 S  1.66100000E+04  0.001920
  1 S  3.78100000E+03  0.009962
  1 S  1.07100000E+03  0.040298
  1 S  3.49800000E+02  0.128604
  1 S  1.26300000E+02  0.303480
  1 S  4.92600000E+01  0.421432
  1 S  2.01600000E+01  0.230781
  1 S  5.72000000E+00  0.017897
  1 S  2.18200000E+00 -0.002975
  1 S  4.32700000E-01  0.000850

  2 S  1.10800000E+05 -0.000069
  2 S  1.66100000E+04 -0.000528
  2 S  3.78100000E+03 -0.002797
  2 S  1.07100000E+03 -0.011265
  2 S  3.49800000E+02 -0.038883
  2 S  1.26300000E+02 -0.099503
  2 S  4.92600000E+01 -0.199740
  2 S  2.01600000E+01 -0.123360
  2 S  5.72000000E+00  0.513194
  2 S  2.18200000E+00  0.607120
  2 S  4.32700000E-01  0.039675

  3 S  1.10800000E+05  0.000020
  3 S  1.66100000E+04  0.000153
  3 S  3.78100000E+03  0.000810
  3 S  1.07100000E+03  0.003290
  3 S  3.49800000E+02  0.011297
  3 S  1.26300000E+02  0.029639
  3 S  4.92600000E+01  0.059985
  3 S  2.01600000E+01  0.041325
  3 S  5.72000000E+00 -0.207474
  3 S  2.18200000E+00 -0.392889
  3 S  4.32700000E-01  0.632840

  4 S  1.57000000E-01  1.000000

  5 S  5.07000000E-02  1.000000

  6 P  3.99700000E+02  0.004475
  6 P  9.41900000E+01  0.034171
  6 P  2.97500000E+01  0.144250
  6 P  1.07700000E+01  0.353928
  6 P  4.11900000E+00  0.459085
  6 P  1.62500000E+00  0.206383
  6 P  4.72600000E-01  0.010214

  7 P  3.99700000E+02 -0.001163
  7 P  9.41900000E+01 -0.008657
  7 P  2.97500000E+01 -0.039089
  7 P  1.07700000E+01 -0.093463
  7 P  4.11900000E+00 -0.147994
  7 P  1.62500000E+00  0.030190
  7 P  4.72600000E-01  0.561573

  8 P  1.40700000E-01  1.000000

  9 P  3.99000000E-02  1.000000

 10 D  4.79000000E-01  1.000000

 11 D  1.52000000E-01  1.000000



 Summary of "ao basis" -> "ao basis" (cartesian)
 ------------------------------------------------------------------------------
       Tag                 Description            Shells   Functions and Types
 ---------------- ------------------------------  ------  ---------------------
 H                        aug-cc-pvdz                5        9   3s2p
 C                        aug-cc-pvdz                9       25   4s3p2d
 O                        aug-cc-pvdz                9       25   4s3p2d
 N                        aug-cc-pvdz                9       25   4s3p2d
 S                        aug-cc-pvdz               11       29   5s4p2d


                                 NWChem SCF Module
                                 -----------------



  ao basis        = "ao basis"
  functions       =   684
  atoms           =    40
  closed shells   =    81
  open shells     =     0
  charge          =   0.00
  wavefunction    = RHF 
  input vectors   = atomic
  output vectors  = ./ASN_MET_0.movecs
  use symmetry    = F
  symmetry adapt  = F


 Summary of "ao basis" -> "ao basis" (cartesian)
 ------------------------------------------------------------------------------
       Tag                 Description            Shells   Functions and Types
 ---------------- ------------------------------  ------  ---------------------
 H                        aug-cc-pvdz                5        9   3s2p
 C                        aug-cc-pvdz                9       25   4s3p2d
 O                        aug-cc-pvdz                9       25   4s3p2d
 N                        aug-cc-pvdz                9       25   4s3p2d
 S                        aug-cc-pvdz               11       29   5s4p2d



 Forming initial guess at       0.9s


 !! The overlap matrix has   6 vectors deemed linearly dependent with
    eigenvalues:
 2.64D-06 3.34D-06 5.51D-06 8.57D-06 9.30D-06 9.41D-06


      Superposition of Atomic Density Guess
      -------------------------------------

 Sum of atomic energies:       -1338.08087253

      Non-variational initial energy
      ------------------------------

 Total energy =   -1350.833150
 1-e energy   =   -5687.209312
 2-e energy   =    2396.914674
 HOMO         =      -0.256048
 LUMO         =       0.007840


 Starting SCF solution at     380.1s



 ----------------------------------------------
         Quadratically convergent ROHF

 Convergence threshold     :          1.000E-04
 Maximum no. of iterations :           30
 Final Fock-matrix accuracy:          1.000E-10
 ----------------------------------------------


              iter       energy          gnorm     gmax       time
             ----- ------------------- --------- --------- --------
                 1    -1342.7349196123  2.70D+00  1.16D-01    788.0
                 2    -1343.1202940473  9.07D-01  4.41D-02   1606.5
                 3    -1343.1932010521  7.13D-02  4.01D-03   2770.9
                 4    -1343.1939515444  4.53D-03  3.36D-04   4312.3
                 5    -1343.1939555067  1.06D-05  6.93D-07   6985.4


       Final RHF  results 
       ------------------ 

         Total SCF energy =  -1343.193955506655
      One-electron energy =  -5700.770304199064
      Two-electron energy =   2418.114860629526
 Nuclear repulsion energy =   1939.461488062883

        Time for solution =   6606.7s


             Final eigenvalues
             -----------------

              1      
    1  -91.9526
    2  -20.5517
    3  -20.5439
    4  -20.5382
    5  -20.5231
    6  -15.6198
    7  -15.6008
    8  -15.6005
    9  -15.5930
   10  -11.3805
   11  -11.3773
   12  -11.3680
   13  -11.3615
   14  -11.3286
   15  -11.3007
   16  -11.2741
   17  -11.2693
   18  -11.2638
   19  -11.2546
   20  -11.2476
   21   -8.9536
   22   -6.6360
   23   -6.6346
   24   -6.6327
   25   -1.4185
   26   -1.4096
   27   -1.4022
   28   -1.3867
   29   -1.2714
   30   -1.2554
   31   -1.2377
   32   -1.2146
   33   -1.1014
   34   -1.0882
   35   -1.0404
   36   -1.0161
   37   -0.9744
   38   -0.9350
   39   -0.8872
   40   -0.8376
   41   -0.8171
   42   -0.8125
   43   -0.8034
   44   -0.7788
   45   -0.7629
   46   -0.7470
   47   -0.7253
   48   -0.7046
   49   -0.7013
   50   -0.6841
   51   -0.6658
   52   -0.6595
   53   -0.6372
   54   -0.6341
   55   -0.6268
   56   -0.6218
   57   -0.6033
   58   -0.5981
   59   -0.5971
   60   -0.5911
   61   -0.5867
   62   -0.5819
   63   -0.5666
   64   -0.5642
   65   -0.5589
   66   -0.5494
   67   -0.5442
   68   -0.5357
   69   -0.5267
   70   -0.5069
   71   -0.4856
   72   -0.4648
   73   -0.4514
   74   -0.4420
   75   -0.4346
   76   -0.4335
   77   -0.4242
   78   -0.4131
   79   -0.4099
   80   -0.3962
   81   -0.3390
   82    0.0272
   83    0.0320
   84    0.0376
   85    0.0422
   86    0.0483
   87    0.0526
   88    0.0556
   89    0.0563
   90    0.0608
   91    0.0697

                       ROHF Final Molecular Orbital Analysis
                       -------------------------------------

 Vector   25  Occ=2.000000D+00  E=-1.418484D+00
              MO Center= -1.8D+00,  4.0D-01, -8.0D-01, r^2= 3.3D+00
   Bfn.  Coefficient  Atom+Function         Bfn.  Coefficient  Atom+Function  
  ----- ------------  ---------------      ----- ------------  ---------------
    80      0.327611   6 O  s                79      0.316491   6 O  s         
    54      0.220750   5 C  s         

 Vector   26  Occ=2.000000D+00  E=-1.409554D+00
              MO Center=  4.3D-01,  3.0D+00,  2.8D-01, r^2= 3.4D+00
   Bfn.  Coefficient  Atom+Function         Bfn.  Coefficient  Atom+Function  
  ----- ------------  ---------------      ----- ------------  ---------------
   241      0.345312  15 O  s               240      0.324008  15 O  s         
   215      0.232127  14 C  s         

 Vector   27  Occ=2.000000D+00  E=-1.402205D+00
              MO Center=  9.7D-01,  5.9D-01, -1.3D+00, r^2= 3.3D+00
   Bfn.  Coefficient  Atom+Function         Bfn.  Coefficient  Atom+Function  
  ----- ------------  ---------------      ----- ------------  ---------------
   334      0.357813  20 O  s               333      0.323848  20 O  s         
   308      0.221154  19 C  s               335      0.151121  20 O  s         

 Vector   28  Occ=2.000000D+00  E=-1.386682D+00
              MO Center=  4.9D-01, -3.7D+00, -8.4D-01, r^2= 1.4D+00
   Bfn.  Coefficient  Atom+Function         Bfn.  Coefficient  Atom+Function  
  ----- ------------  ---------------      ----- ------------  ---------------
   619      0.374216  37 O  s               618      0.346827  37 O  s         
   593      0.245920  36 C  s         

 Vector   29  Occ=2.000000D+00  E=-1.271428D+00
              MO Center= -1.2D+00,  1.0D+00, -6.8D-01, r^2= 2.7D+00
   Bfn.  Coefficient  Atom+Function         Bfn.  Coefficient  Atom+Function  
  ----- ------------  ---------------      ----- ------------  ---------------
   105      0.358257   7 N  s               104      0.315371   7 N  s         
    80     -0.212278   6 O  s                79     -0.171372   6 O  s         

 Vector   30  Occ=2.000000D+00  E=-1.255434D+00
              MO Center=  1.5D-01, -6.5D-01, -8.9D-01, r^2= 3.8D+00
   Bfn.  Coefficient  Atom+Function         Bfn.  Coefficient  Atom+Function  
  ----- ------------  ---------------      ----- ------------  ---------------
   359      0.368378  21 N  s               358      0.303176  21 N  s         
   105     -0.192216   7 N  s               393     -0.173345  23 C  s         
   334     -0.170316  20 O  s         

 Vector   31  Occ=2.000000D+00  E=-1.237676D+00
              MO Center=  1.8D+00,  3.0D+00,  5.3D-02, r^2= 1.6D+00
   Bfn.  Coefficient  Atom+Function         Bfn.  Coefficient  Atom+Function  
  ----- ------------  ---------------      ----- ------------  ---------------
   265      0.364325  16 N  s               266      0.341087  16 N  s         
   241     -0.217575  15 O  s               218      0.192477  14 C  px        
   240     -0.186966  15 O  s               298      0.160342  18 H  s         
   289      0.154388  17 H  s         

 Vector   32  Occ=2.000000D+00  E=-1.214644D+00
              MO Center= -5.4D-01, -2.9D+00, -1.1D+00, r^2= 2.4D+00
   Bfn.  Coefficient  Atom+Function         Bfn.  Coefficient  Atom+Function  
  ----- ------------  ---------------      ----- ------------  ---------------
   644      0.374877  38 N  s               643      0.356460  38 N  s         
   393     -0.189719  23 C  s               619     -0.190288  37 O  s         
   596     -0.179055  36 C  px              618     -0.160955  37 O  s         
   676      0.158145  40 H  s               667      0.154445  39 H  s         
   359     -0.153332  21 N  s         

 Vector   33  Occ=2.000000D+00  E=-1.101443D+00
              MO Center=  4.3D-01, -4.3D-01,  3.7D-01, r^2= 7.3D+00
   Bfn.  Coefficient  Atom+Function         Bfn.  Coefficient  Atom+Function  
  ----- ------------  ---------------      ----- ------------  ---------------
   469      0.177423  28 C  s               426      0.176255  25 C  s         

 Vector   34  Occ=2.000000D+00  E=-1.088236D+00
              MO Center= -1.7D-02,  8.8D-01, -9.1D-02, r^2= 8.0D+00
   Bfn.  Coefficient  Atom+Function         Bfn.  Coefficient  Atom+Function  
  ----- ------------  ---------------      ----- ------------  ---------------
   173      0.222694  11 C  s               172      0.209674  11 C  s         
   138      0.181723   9 C  s         

 Vector   35  Occ=2.000000D+00  E=-1.040353D+00
              MO Center=  6.3D-01, -7.0D-01,  8.9D-01, r^2= 5.7D+00
   Bfn.  Coefficient  Atom+Function         Bfn.  Coefficient  Atom+Function  
  ----- ------------  ---------------      ----- ------------  ---------------
   513     -0.217350  31 S  s               392      0.199524  23 C  s         
   541     -0.197305  32 C  s         

 Vector   36  Occ=2.000000D+00  E=-1.016076D+00
              MO Center= -2.4D+00,  1.2D+00,  2.4D-01, r^2= 4.9D+00
   Bfn.  Coefficient  Atom+Function         Bfn.  Coefficient  Atom+Function  
  ----- ------------  ---------------      ----- ------------  ---------------
    11      0.320449   2 C  s               173      0.287197  11 C  s         
   172      0.151690  11 C  s         

 Vector   37  Occ=2.000000D+00  E=-9.744231D-01
              MO Center=  6.0D-01, -6.3D-01,  8.2D-01, r^2= 7.1D+00
   Bfn.  Coefficient  Atom+Function         Bfn.  Coefficient  Atom+Function  
  ----- ------------  ---------------      ----- ------------  ---------------
   139      0.211110   9 C  s               541     -0.200885  32 C  s         
   469      0.189906  28 C  s               434      0.174422  25 C  pz        
   392     -0.158665  23 C  s               145     -0.155698   9 C  py        

 Vector   38  Occ=2.000000D+00  E=-9.349559D-01
              MO Center= -1.3D-02,  1.2D+00, -4.8D-01, r^2= 7.7D+00
   Bfn.  Coefficient  Atom+Function         Bfn.  Coefficient  Atom+Function  
  ----- ------------  ---------------      ----- ------------  ---------------
   173      0.279859  11 C  s               138     -0.213621   9 C  s         
   172      0.151828  11 C  s         

 Vector   39  Occ=2.000000D+00  E=-8.872370D-01
              MO Center=  7.4D-01, -1.2D+00,  8.1D-01, r^2= 6.3D+00
   Bfn.  Coefficient  Atom+Function         Bfn.  Coefficient  Atom+Function  
  ----- ------------  ---------------      ----- ------------  ---------------
   426      0.210855  25 C  s               513     -0.183724  31 S  s         
   398      0.172425  23 C  px              541      0.156247  32 C  s         

 Vector   40  Occ=2.000000D+00  E=-8.375506D-01
              MO Center= -6.4D-01,  6.9D-01, -5.7D-01, r^2= 7.4D+00
   Bfn.  Coefficient  Atom+Function         Bfn.  Coefficient  Atom+Function  
  ----- ------------  ---------------      ----- ------------  ---------------
   139      0.298419   9 C  s               108     -0.217415   7 N  py        
   393      0.188720  23 C  s               128     -0.179608   8 H  s         
    54      0.167025   5 C  s                60      0.166531   5 C  px        
   107     -0.158867   7 N  px              105     -0.152334   7 N  s         

 Vector   41  Occ=2.000000D+00  E=-8.171305D-01
              MO Center=  2.1D-01,  1.9D+00, -4.8D-01, r^2= 6.8D+00
   Bfn.  Coefficient  Atom+Function         Bfn.  Coefficient  Atom+Function  
  ----- ------------  ---------------      ----- ------------  ---------------
   268      0.235269  16 N  px              215     -0.172418  14 C  s         
   145      0.169885   9 C  py              105     -0.157107   7 N  s         
   108     -0.156107   7 N  py              128     -0.152441   8 H  s         

 Vector   42  Occ=2.000000D+00  E=-8.124595D-01
              MO Center=  1.7D-01, -1.5D+00,  5.6D-01, r^2= 7.1D+00
   Bfn.  Coefficient  Atom+Function         Bfn.  Coefficient  Atom+Function  
  ----- ------------  ---------------      ----- ------------  ---------------
   514      0.317989  31 S  s               513      0.244511  31 S  s         
   646     -0.193063  38 N  px              399      0.189854  23 C  py        
   309      0.183442  19 C  s               542     -0.170861  32 C  s         
   599      0.168227  36 C  px              667      0.152830  39 H  s         

 Vector   43  Occ=2.000000D+00  E=-8.034033D-01
              MO Center=  3.9D-01,  3.5D-01, -7.2D-01, r^2= 7.4D+00
   Bfn.  Coefficient  Atom+Function         Bfn.  Coefficient  Atom+Function  
  ----- ------------  ---------------      ----- ------------  ---------------
   309      0.302306  19 C  s               382     -0.214226  22 H  s         
   361      0.195625  21 N  px              268      0.192399  16 N  px        
   359     -0.188106  21 N  s               383     -0.161791  22 H  s         
   362      0.158709  21 N  py        

 Vector   44  Occ=2.000000D+00  E=-7.787544D-01
              MO Center=  5.1D-01, -1.1D+00,  3.8D-01, r^2= 7.8D+00
   Bfn.  Coefficient  Atom+Function         Bfn.  Coefficient  Atom+Function  
  ----- ------------  ---------------      ----- ------------  ---------------
   514      0.287419  31 S  s               513      0.171561  31 S  s         
   309     -0.164876  19 C  s               542     -0.162574  32 C  s         
   646      0.159350  38 N  px              361     -0.151307  21 N  px        

 Vector   45  Occ=2.000000D+00  E=-7.629314D-01
              MO Center=  1.8D-01, -3.2D-01, -7.8D-01, r^2= 9.8D+00
   Bfn.  Coefficient  Atom+Function         Bfn.  Coefficient  Atom+Function  
  ----- ------------  ---------------      ----- ------------  ---------------
   595      0.237379  36 C  s               676      0.204881  40 H  s         
   139      0.194142   9 C  s               144      0.188120   9 C  px        
   646     -0.176545  38 N  px              309     -0.170738  19 C  s         
   647      0.168565  38 N  py              596      0.167227  36 C  px        
   298      0.160694  18 H  s               145     -0.155720   9 C  py        

 Vector   46  Occ=2.000000D+00  E=-7.469740D-01
              MO Center=  1.0D+00,  1.5D+00, -3.8D-01, r^2= 9.2D+00
   Bfn.  Coefficient  Atom+Function         Bfn.  Coefficient  Atom+Function  
  ----- ------------  ---------------      ----- ------------  ---------------
   270      0.300026  16 N  pz              298     -0.250201  18 H  s         
   289      0.227960  17 H  s               647      0.155762  38 N  py        
   173      0.153589  11 C  s         

 Vector   47  Occ=2.000000D+00  E=-7.252759D-01
              MO Center= -6.8D-01,  3.3D-01, -7.0D-01, r^2= 7.7D+00
   Bfn.  Coefficient  Atom+Function         Bfn.  Coefficient  Atom+Function  
  ----- ------------  ---------------      ----- ------------  ---------------
   309     -0.271273  19 C  s               144      0.256744   9 C  px        
    55     -0.202967   5 C  s               109      0.193062   7 N  pz        
   312      0.190380  19 C  py              141      0.183405   9 C  px        
   647     -0.168950  38 N  py              128      0.154672   8 H  s         

 Vector   48  Occ=2.000000D+00  E=-7.045527D-01
              MO Center=  5.7D-03,  2.9D-01, -6.1D-01, r^2= 1.1D+01
   Bfn.  Coefficient  Atom+Function         Bfn.  Coefficient  Atom+Function  
  ----- ------------  ---------------      ----- ------------  ---------------
   647      0.187600  38 N  py              667     -0.184309  39 H  s         
   289     -0.162970  17 H  s               218      0.159996  14 C  px        
   143     -0.157527   9 C  pz              270     -0.153893  16 N  pz        

 Vector   49  Occ=2.000000D+00  E=-7.013366D-01
              MO Center= -1.5D+00, -3.8D-01, -7.2D-01, r^2= 8.4D+00
   Bfn.  Coefficient  Atom+Function         Bfn.  Coefficient  Atom+Function  
  ----- ------------  ---------------      ----- ------------  ---------------
   647     -0.219768  38 N  py               80      0.205262   6 O  s         
    84     -0.204370   6 O  pz              667      0.168732  39 H  s         
    83     -0.167322   6 O  py        

 Vector   50  Occ=2.000000D+00  E=-6.841209D-01
              MO Center=  1.4D-02,  9.8D-02, -6.1D-01, r^2= 9.6D+00
   Bfn.  Coefficient  Atom+Function         Bfn.  Coefficient  Atom+Function  
  ----- ------------  ---------------      ----- ------------  ---------------
   399     -0.176875  23 C  py              336      0.171178  20 O  px        
   334      0.164069  20 O  s         

 Vector   51  Occ=2.000000D+00  E=-6.658370D-01
              MO Center=  5.4D-02,  1.4D+00, -2.7D-01, r^2= 8.7D+00
   Bfn.  Coefficient  Atom+Function         Bfn.  Coefficient  Atom+Function  
  ----- ------------  ---------------      ----- ------------  ---------------
   245      0.250261  15 O  pz              218      0.181766  14 C  px        
   241      0.181653  15 O  s               143      0.153507   9 C  pz        

 Vector   52  Occ=2.000000D+00  E=-6.595112D-01
              MO Center=  3.6D-01, -8.3D-01, -2.3D-01, r^2= 9.0D+00
   Bfn.  Coefficient  Atom+Function         Bfn.  Coefficient  Atom+Function  
  ----- ------------  ---------------      ----- ------------  ---------------
   397      0.192660  23 C  pz              416     -0.183079  24 H  s         
    56      0.161145   5 C  s         

 Vector   53  Occ=2.000000D+00  E=-6.372462D-01
              MO Center=  3.0D-01, -3.9D-01, -3.2D-01, r^2= 9.3D+00
   Bfn.  Coefficient  Atom+Function         Bfn.  Coefficient  Atom+Function  
  ----- ------------  ---------------      ----- ------------  ---------------
   336      0.273989  20 O  px              427     -0.221573  25 C  s         
   334      0.167366  20 O  s               139      0.157483   9 C  s         
   311     -0.155509  19 C  px              339      0.150922  20 O  px        

 Vector   54  Occ=2.000000D+00  E=-6.341019D-01
              MO Center=  3.5D-02,  8.8D-03, -3.6D-02, r^2= 1.1D+01
   Bfn.  Coefficient  Atom+Function         Bfn.  Coefficient  Atom+Function  
  ----- ------------  ---------------      ----- ------------  ---------------
   460      0.231592  27 H  s               427     -0.199112  25 C  s         
   622      0.170125  37 O  py              336      0.155273  20 O  px        

 Vector   55  Occ=2.000000D+00  E=-6.268187D-01
              MO Center= -9.5D-01, -3.7D-02, -2.3D-01, r^2= 1.1D+01
   Bfn.  Coefficient  Atom+Function         Bfn.  Coefficient  Atom+Function  
  ----- ------------  ---------------      ----- ------------  ---------------
   173      0.224806  11 C  s               622     -0.198050  37 O  py        
    12      0.190918   2 C  s                44      0.167076   4 H  s         
    14     -0.162006   2 C  px               35     -0.160322   3 H  s         
   384      0.157153  22 H  s         

 Vector   56  Occ=2.000000D+00  E=-6.217562D-01
              MO Center=  4.3D-01,  1.0D+00,  1.7D-01, r^2= 9.3D+00
   Bfn.  Coefficient  Atom+Function         Bfn.  Coefficient  Atom+Function  
  ----- ------------  ---------------      ----- ------------  ---------------
   393      0.221654  23 C  s               427     -0.186805  25 C  s         
   219      0.180932  14 C  py              460      0.174257  27 H  s         
   142     -0.167831   9 C  py              216     -0.157376  14 C  s         
   179      0.155896  11 C  py              176      0.154922  11 C  py        
   450     -0.154115  26 H  s         

 Vector   57  Occ=2.000000D+00  E=-6.033423D-01
              MO Center= -8.2D-01,  6.5D-01,  2.3D-01, r^2= 8.8D+00
   Bfn.  Coefficient  Atom+Function         Bfn.  Coefficient  Atom+Function  
  ----- ------------  ---------------      ----- ------------  ---------------
    83      0.228290   6 O  py               59     -0.188547   5 C  pz        
   566      0.179113  33 H  s               546     -0.169354  32 C  pz        
   565      0.155902  33 H  s         

 Vector   58  Occ=2.000000D+00  E=-5.980913D-01
              MO Center=  6.0D-01,  1.6D+00,  6.3D-01, r^2= 7.8D+00
   Bfn.  Coefficient  Atom+Function         Bfn.  Coefficient  Atom+Function  
  ----- ------------  ---------------      ----- ------------  ---------------
   220      0.238930  14 C  pz              243      0.229201  15 O  px        
   546      0.209446  32 C  pz              565     -0.171756  33 H  s         
   584      0.171637  35 H  s               177     -0.170178  11 C  pz        
   139     -0.165545   9 C  s               368     -0.162535  21 N  py        
   245     -0.160186  15 O  pz              241     -0.153970  15 O  s         

 Vector   59  Occ=2.000000D+00  E=-5.970552D-01
              MO Center=  4.2D-01,  2.4D-01, -3.8D-01, r^2= 1.0D+01
   Bfn.  Coefficient  Atom+Function         Bfn.  Coefficient  Atom+Function  
  ----- ------------  ---------------      ----- ------------  ---------------
   175      0.183868  11 C  px              575      0.179633  34 H  s         
   139      0.177938   9 C  s               205     -0.173887  13 H  s         
   622      0.161970  37 O  py              427      0.160263  25 C  s         

 Vector   60  Occ=2.000000D+00  E=-5.911452D-01
              MO Center=  5.8D-02,  3.4D-01,  1.2D+00, r^2= 9.9D+00
   Bfn.  Coefficient  Atom+Function         Bfn.  Coefficient  Atom+Function  
  ----- ------------  ---------------      ----- ------------  ---------------
   583     -0.238971  35 H  s               575      0.234805  34 H  s         
   584     -0.192810  35 H  s               470      0.176513  28 C  s         
   546     -0.176967  32 C  pz              544     -0.172668  32 C  px        
   566      0.162644  33 H  s               574      0.161711  34 H  s         
   545      0.153481  32 C  py        

 Vector   61  Occ=2.000000D+00  E=-5.867309D-01
              MO Center=  2.8D-01, -2.0D+00, -1.4D-01, r^2= 7.9D+00
   Bfn.  Coefficient  Atom+Function         Bfn.  Coefficient  Atom+Function  
  ----- ------------  ---------------      ----- ------------  ---------------
   597      0.253014  36 C  py              398     -0.214107  23 C  px        
   395     -0.199042  23 C  px              621      0.191484  37 O  px        
   427      0.175985  25 C  s               622     -0.172498  37 O  py        
   594     -0.167487  36 C  s               472      0.158793  28 C  px        
   566      0.154924  33 H  s               542     -0.153654  32 C  s         

 Vector   62  Occ=2.000000D+00  E=-5.819286D-01
              MO Center= -1.3D+00,  8.6D-01,  4.6D-01, r^2= 1.0D+01
   Bfn.  Coefficient  Atom+Function         Bfn.  Coefficient  Atom+Function  
  ----- ------------  ---------------      ----- ------------  ---------------
     2      0.296675   1 H  s                 1      0.256903   1 H  s         
    15     -0.240068   2 C  py              575     -0.236179  34 H  s         
    56     -0.193427   5 C  s                13     -0.184222   2 C  s         
   106      0.162286   7 N  s               460     -0.157839  27 H  s         
   114     -0.154871   7 N  py        

 Vector   63  Occ=2.000000D+00  E=-5.666305D-01
              MO Center= -1.9D-01,  3.5D-01,  4.6D-01, r^2= 1.2D+01
   Bfn.  Coefficient  Atom+Function         Bfn.  Coefficient  Atom+Function  
  ----- ------------  ---------------      ----- ------------  ---------------
   360      0.258623  21 N  s               575     -0.257795  34 H  s         
   217      0.228702  14 C  s               174     -0.211754  11 C  s         
   542      0.200063  32 C  s               543      0.193241  32 C  s         
   197      0.186206  12 H  s                 1     -0.180453   1 H  s         
   140     -0.175161   9 C  s                 2     -0.172173   1 H  s         

 Vector   64  Occ=2.000000D+00  E=-5.642134D-01
              MO Center=  3.0D-01, -1.6D+00,  3.2D-01, r^2= 1.0D+01
   Bfn.  Coefficient  Atom+Function         Bfn.  Coefficient  Atom+Function  
  ----- ------------  ---------------      ----- ------------  ---------------
   427      0.272203  25 C  s               393     -0.230515  23 C  s         
   474     -0.217154  28 C  pz              623     -0.210030  37 O  pz        
   648     -0.207860  38 N  pz              502     -0.203344  30 H  s         
   598     -0.202213  36 C  pz              503     -0.187034  30 H  s         
   566     -0.180273  33 H  s               460     -0.170883  27 H  s         

 Vector   65  Occ=2.000000D+00  E=-5.589196D-01
              MO Center= -2.1D-01,  8.3D-01, -5.9D-01, r^2= 8.9D+00
   Bfn.  Coefficient  Atom+Function         Bfn.  Coefficient  Atom+Function  
  ----- ------------  ---------------      ----- ------------  ---------------
   173      0.241800  11 C  s               338     -0.200886  20 O  pz        
   427      0.197135  25 C  s               145     -0.181222   9 C  py        
   542     -0.173656  32 C  s               363     -0.158685  21 N  pz        
   205      0.154324  13 H  s               341     -0.151904  20 O  pz        

 Vector   66  Occ=2.000000D+00  E=-5.494468D-01
              MO Center=  8.2D-02,  3.4D-01, -2.4D-01, r^2= 1.0D+01
   Bfn.  Coefficient  Atom+Function         Bfn.  Coefficient  Atom+Function  
  ----- ------------  ---------------      ----- ------------  ---------------
   139      0.238903   9 C  s               460      0.234052  27 H  s         
   575      0.200135  34 H  s               337     -0.177460  20 O  py        
   175      0.170641  11 C  px              173     -0.163999  11 C  s         
   205     -0.156541  13 H  s         

 Vector   67  Occ=2.000000D+00  E=-5.441586D-01
              MO Center= -8.2D-01,  1.4D+00, -1.7D-01, r^2= 8.2D+00
   Bfn.  Coefficient  Atom+Function         Bfn.  Coefficient  Atom+Function  
  ----- ------------  ---------------      ----- ------------  ---------------
    14      0.187321   2 C  px               35      0.167009   3 H  s         
   176      0.166543  11 C  py               82     -0.163844   6 O  px        
   142     -0.156914   9 C  py              244     -0.154543  15 O  py        

 Vector   68  Occ=2.000000D+00  E=-5.356844D-01
              MO Center= -2.2D-02,  3.3D-01, -1.1D-01, r^2= 9.8D+00
   Bfn.  Coefficient  Atom+Function         Bfn.  Coefficient  Atom+Function  
  ----- ------------  ---------------      ----- ------------  ---------------
   460      0.188929  27 H  s               430      0.172371  25 C  py        
   459      0.164501  27 H  s               176     -0.151853  11 C  py        

 Vector   69  Occ=2.000000D+00  E=-5.266903D-01
              MO Center=  7.0D-01, -1.3D+00,  4.1D-01, r^2= 6.9D+00
   Bfn.  Coefficient  Atom+Function         Bfn.  Coefficient  Atom+Function  
  ----- ------------  ---------------      ----- ------------  ---------------
   427      0.295950  25 C  s               429      0.240543  25 C  px        
   393     -0.227275  23 C  s               459      0.208781  27 H  s         
   395     -0.191084  23 C  px              400     -0.187504  23 C  pz        
   472     -0.156997  28 C  px        

 Vector   70  Occ=2.000000D+00  E=-5.068637D-01
              MO Center=  1.1D+00, -1.3D+00, -2.0D-01, r^2= 6.2D+00
   Bfn.  Coefficient  Atom+Function         Bfn.  Coefficient  Atom+Function  
  ----- ------------  ---------------      ----- ------------  ---------------
   397      0.272672  23 C  pz              417     -0.254842  24 H  s         
   431     -0.246836  25 C  pz              338     -0.230602  20 O  pz        
   474      0.229343  28 C  pz              503      0.205507  30 H  s         
   416     -0.199009  24 H  s               341     -0.177631  20 O  pz        
   470     -0.170275  28 C  s               477      0.165393  28 C  pz        

 Vector   71  Occ=2.000000D+00  E=-4.856061D-01
              MO Center=  7.4D-01, -1.2D+00,  1.7D+00, r^2= 4.3D+00
   Bfn.  Coefficient  Atom+Function         Bfn.  Coefficient  Atom+Function  
  ----- ------------  ---------------      ----- ------------  ---------------
   494      0.289091  29 H  s               473     -0.274658  28 C  py        
   520      0.273018  31 S  py              460      0.260172  27 H  s         
   545     -0.240432  32 C  py              493      0.239173  29 H  s         
   451     -0.211659  26 H  s               430      0.199360  25 C  py        
   548     -0.189530  32 C  py              459      0.171355  27 H  s         

 Vector   72  Occ=2.000000D+00  E=-4.648245D-01
              MO Center= -7.2D-02,  5.6D-01, -1.2D+00, r^2= 5.6D+00
   Bfn.  Coefficient  Atom+Function         Bfn.  Coefficient  Atom+Function  
  ----- ------------  ---------------      ----- ------------  ---------------
   337      0.407710  20 O  py              340      0.326654  20 O  py        
   139     -0.288663   9 C  s                84      0.233958   6 O  pz        
    87      0.184999   6 O  pz               83     -0.181820   6 O  py        
   109     -0.172216   7 N  pz              309      0.150811  19 C  s         

 Vector   73  Occ=2.000000D+00  E=-4.513984D-01
              MO Center= -2.0D+00,  2.7D-02, -6.8D-01, r^2= 4.5D+00
   Bfn.  Coefficient  Atom+Function         Bfn.  Coefficient  Atom+Function  
  ----- ------------  ---------------      ----- ------------  ---------------
    82      0.440331   6 O  px               85      0.365929   6 O  px        
    84     -0.202586   6 O  pz              105     -0.187476   7 N  s         
    16     -0.160706   2 C  pz               87     -0.152739   6 O  pz        

 Vector   74  Occ=2.000000D+00  E=-4.420020D-01
              MO Center=  3.4D-01,  1.8D+00,  2.2D-02, r^2= 9.8D+00
   Bfn.  Coefficient  Atom+Function         Bfn.  Coefficient  Atom+Function  
  ----- ------------  ---------------      ----- ------------  ---------------
   243      0.360385  15 O  px              246      0.291391  15 O  px        
   245      0.220597  15 O  pz              360      0.211962  21 N  s         
   173     -0.196713  11 C  s               217      0.188023  14 C  s         
   384     -0.176261  22 H  s               248      0.166984  15 O  pz        
   216      0.165894  14 C  s               621     -0.165361  37 O  px        

 Vector   75  Occ=2.000000D+00  E=-4.345693D-01
              MO Center=  3.8D-01, -6.3D-01,  4.4D-01, r^2= 1.3D+01
   Bfn.  Coefficient  Atom+Function         Bfn.  Coefficient  Atom+Function  
  ----- ------------  ---------------      ----- ------------  ---------------
   621      0.283278  37 O  px              519      0.229695  31 S  px        
   514     -0.224782  31 S  s               624      0.223268  37 O  px        
   243      0.220566  15 O  px              427      0.212827  25 C  s         
   245      0.187503  15 O  pz              542     -0.187990  32 C  s         
   575      0.182642  34 H  s               246      0.180303  15 O  px        

 Vector   76  Occ=2.000000D+00  E=-4.335337D-01
              MO Center=  1.1D-01, -8.1D-01,  9.5D-01, r^2= 7.6D+00
   Bfn.  Coefficient  Atom+Function         Bfn.  Coefficient  Atom+Function  
  ----- ------------  ---------------      ----- ------------  ---------------
   514      0.324556  31 S  s               519     -0.321641  31 S  px        
   522     -0.201861  31 S  px              575     -0.202845  34 H  s         
   475      0.189685  28 C  px              472      0.181040  28 C  px        
   139     -0.176313   9 C  s               621      0.166173  37 O  px        

 Vector   77  Occ=2.000000D+00  E=-4.241926D-01
              MO Center=  1.3D+00,  2.4D+00,  2.1D-01, r^2= 7.0D+00
   Bfn.  Coefficient  Atom+Function         Bfn.  Coefficient  Atom+Function  
  ----- ------------  ---------------      ----- ------------  ---------------
   269     -0.362302  16 N  py              244      0.352141  15 O  py        
   272     -0.308830  16 N  py              247      0.284947  15 O  py        
   267     -0.282776  16 N  s               271     -0.156921  16 N  px        
   270      0.152994  16 N  pz        

 Vector   78  Occ=2.000000D+00  E=-4.130573D-01
              MO Center= -3.5D-01, -8.3D-01, -9.4D-01, r^2= 8.7D+00
   Bfn.  Coefficient  Atom+Function         Bfn.  Coefficient  Atom+Function  
  ----- ------------  ---------------      ----- ------------  ---------------
   648      0.257284  38 N  pz              623     -0.230094  37 O  pz        
   337     -0.226862  20 O  py              651      0.224196  38 N  pz        
   340     -0.187698  20 O  py              626     -0.181161  37 O  pz        
   111      0.170615   7 N  py              106      0.168868   7 N  s         
   108      0.169399   7 N  py              107     -0.167056   7 N  px        

 Vector   79  Occ=2.000000D+00  E=-4.099319D-01
              MO Center= -1.6D-01, -1.9D+00, -8.7D-01, r^2= 8.3D+00
   Bfn.  Coefficient  Atom+Function         Bfn.  Coefficient  Atom+Function  
  ----- ------------  ---------------      ----- ------------  ---------------
   623      0.311243  37 O  pz              648     -0.295661  38 N  pz        
   651     -0.264333  38 N  pz              626      0.249491  37 O  pz        
   106      0.191035   7 N  s               360      0.190459  21 N  s         
   595     -0.184048  36 C  s               337     -0.151584  20 O  py        

 Vector   80  Occ=2.000000D+00  E=-3.961558D-01
              MO Center=  5.8D-01, -1.2D+00, -6.4D-01, r^2= 6.4D+00
   Bfn.  Coefficient  Atom+Function         Bfn.  Coefficient  Atom+Function  
  ----- ------------  ---------------      ----- ------------  ---------------
   360      0.322142  21 N  s               363     -0.309968  21 N  pz        
   366     -0.293343  21 N  pz              140     -0.266507   9 C  s         
   139      0.247227   9 C  s               338      0.239706  20 O  pz        
   309     -0.217486  19 C  s               621      0.208335  37 O  px        
   341      0.193748  20 O  pz              417      0.172196  24 H  s         

 Vector   81  Occ=2.000000D+00  E=-3.389885D-01
              MO Center= -9.1D-02, -8.4D-01,  1.9D+00, r^2= 3.2D+00
   Bfn.  Coefficient  Atom+Function         Bfn.  Coefficient  Atom+Function  
  ----- ------------  ---------------      ----- ------------  ---------------
   524      0.506833  31 S  pz              521      0.486309  31 S  pz        
   566      0.236524  33 H  s               584     -0.168499  35 H  s         

 Vector   82  Occ=0.000000D+00  E= 2.719234D-02
              MO Center= -4.8D-01,  3.0D+00, -3.6D-01, r^2= 3.4D+01
   Bfn.  Coefficient  Atom+Function         Bfn.  Coefficient  Atom+Function  
  ----- ------------  ---------------      ----- ------------  ---------------
   567      4.833426  33 H  s               384      4.021579  22 H  s         
   318      3.059680  19 C  py              471      2.201892  28 C  s         
   207     -2.186000  13 H  s               130      2.098850   8 H  s         
   595     -1.972181  36 C  s                46     -1.925859   4 H  s         
   182      1.848246  11 C  py              267     -1.784819  16 N  s         

 Vector   83  Occ=0.000000D+00  E= 3.201828D-02
              MO Center=  1.3D+00,  1.8D+00,  1.1D+00, r^2= 3.7D+01
   Bfn.  Coefficient  Atom+Function         Bfn.  Coefficient  Atom+Function  
  ----- ------------  ---------------      ----- ------------  ---------------
   567      5.995544  33 H  s               267     -4.515055  16 N  s         
   217      3.719694  14 C  s               384     -3.047457  22 H  s         
   585     -2.843788  35 H  s               291     -2.549024  17 H  s         
   595      2.561367  36 C  s               318     -2.475362  19 C  py        
   461     -2.482421  27 H  s               207      2.027977  13 H  s         

 Vector   84  Occ=0.000000D+00  E= 3.757127D-02
              MO Center= -1.7D+00,  1.2D+00,  4.8D-02, r^2= 4.0D+01
   Bfn.  Coefficient  Atom+Function         Bfn.  Coefficient  Atom+Function  
  ----- ------------  ---------------      ----- ------------  ---------------
    63      5.689064   5 C  px              148      4.004454   9 C  py        
    56      3.853943   5 C  s                65     -3.277803   5 C  pz        
    13      3.095118   2 C  s               140     -3.090659   9 C  s         
   149     -2.863217   9 C  pz              198     -2.704755  12 H  s         
   147      2.666500   9 C  px              174     -2.460607  11 C  s         

 Vector   85  Occ=0.000000D+00  E= 4.217075D-02
              MO Center= -1.6D+00, -1.6D+00, -7.6D-01, r^2= 3.8D+01
   Bfn.  Coefficient  Atom+Function         Bfn.  Coefficient  Atom+Function  
  ----- ------------  ---------------      ----- ------------  ---------------
   402      3.801752  23 C  py              318      2.801894  19 C  py        
   164      2.721139  10 H  s               149      2.509895   9 C  pz        
   471      2.474089  28 C  s               602      2.402474  36 C  px        
   543     -2.381230  32 C  s               567      2.335447  33 H  s         
   207     -2.205372  13 H  s               669      2.154803  39 H  s         

 Vector   86  Occ=0.000000D+00  E= 4.828734D-02
              MO Center=  1.4D+00, -1.2D-01,  1.6D+00, r^2= 4.1D+01
   Bfn.  Coefficient  Atom+Function         Bfn.  Coefficient  Atom+Function  
  ----- ------------  ---------------      ----- ------------  ---------------
   595     -4.418912  36 C  s               217      4.114100  14 C  s         
   267     -3.829138  16 N  s                56     -3.646692   5 C  s         
   504      3.339838  30 H  s               318      2.911045  19 C  py        
   543     -2.809055  32 C  s               471      2.665118  28 C  s         
    63     -2.462032   5 C  px              480     -2.467852  28 C  pz        

 Vector   87  Occ=0.000000D+00  E= 5.259889D-02
              MO Center=  1.3D+00, -1.0D-01,  6.6D-01, r^2= 4.2D+01
   Bfn.  Coefficient  Atom+Function         Bfn.  Coefficient  Atom+Function  
  ----- ------------  ---------------      ----- ------------  ---------------
   567      3.823157  33 H  s               595      3.653027  36 C  s         
[...]
    45     -6.892147   4 H  s               317      6.428844  19 C  px        

 Vector  198  Occ=0.000000D+00  E= 4.428610D-01
              MO Center= -1.0D+00, -1.7D-01,  7.2D-01, r^2= 2.3D+01
   Bfn.  Coefficient  Atom+Function         Bfn.  Coefficient  Atom+Function  
  ----- ------------  ---------------      ----- ------------  ---------------
   384    -14.530206  22 H  s                56     13.736132   5 C  s         
   402     11.360547  23 C  py              317     -9.648877  19 C  px        
   148      7.973073   9 C  py              595      7.654833  36 C  s         
   174     -6.584380  11 C  s                63      5.654379   5 C  px        
   678      5.498346  40 H  s               428     -5.348406  25 C  s         

 Vector  199  Occ=0.000000D+00  E= 4.442814D-01
              MO Center= -1.1D-01,  5.6D-01,  2.1D-01, r^2= 2.1D+01
   Bfn.  Coefficient  Atom+Function         Bfn.  Coefficient  Atom+Function  
  ----- ------------  ---------------      ----- ------------  ---------------
   318     -9.483931  19 C  py               56      8.940233   5 C  s         
   267      8.424793  16 N  s               148      7.871887   9 C  py        
   174     -6.877149  11 C  s               402     -6.172650  23 C  py        
    12      5.652388   2 C  s               224     -5.142416  14 C  px        
   403      5.054471  23 C  pz               81     -4.890074   6 O  s         

 Vector  200  Occ=0.000000D+00  E= 4.485058D-01
              MO Center= -8.1D-01,  1.6D-02,  7.4D-01, r^2= 2.0D+01
   Bfn.  Coefficient  Atom+Function         Bfn.  Coefficient  Atom+Function  
  ----- ------------  ---------------      ----- ------------  ---------------
   318     11.978185  19 C  py              595    -10.389549  36 C  s         
   384     10.123404  22 H  s               360      9.898858  21 N  s         
   401     -9.592812  23 C  px              543      8.071914  32 C  s         
   140     -7.344041   9 C  s               437     -7.234561  25 C  pz        
    56     -6.838191   5 C  s               403     -6.630101  23 C  pz        

 Vector  201  Occ=0.000000D+00  E= 4.515758D-01
              MO Center= -2.6D-01,  1.9D-02, -2.1D-01, r^2= 2.1D+01
   Bfn.  Coefficient  Atom+Function         Bfn.  Coefficient  Atom+Function  
  ----- ------------  ---------------      ----- ------------  ---------------
   360     11.643800  21 N  s               217     10.583364  14 C  s         
   368     -8.106181  21 N  py              595     -7.989177  36 C  s         
   401      5.747315  23 C  px              567      5.535290  33 H  s         
   149      5.371025   9 C  pz              173      5.187249  11 C  s         
    56     -5.120004   5 C  s               461     -5.036755  27 H  s         

 Vector  202  Occ=0.000000D+00  E= 4.547241D-01
              MO Center=  6.1D-02, -1.2D+00,  3.7D-01, r^2= 2.0D+01
   Bfn.  Coefficient  Atom+Function         Bfn.  Coefficient  Atom+Function  
  ----- ------------  ---------------      ----- ------------  ---------------
   567    -12.621595  33 H  s               318     12.391632  19 C  py        
   595    -11.982404  36 C  s               471      8.734440  28 C  s         
   384      8.085551  22 H  s               217     -7.155942  14 C  s         
   645      6.999952  38 N  s               461      6.286052  27 H  s         
    56     -5.981592   5 C  s               106      5.617192   7 N  s         

 Vector  203  Occ=0.000000D+00  E= 4.598045D-01
              MO Center=  6.3D-01,  2.5D-01,  3.2D-01, r^2= 2.0D+01
   Bfn.  Coefficient  Atom+Function         Bfn.  Coefficient  Atom+Function  
  ----- ------------  ---------------      ----- ------------  ---------------
   567    -12.995952  33 H  s               471     12.782293  28 C  s         
   645     10.762013  38 N  s                56     10.579081   5 C  s         
   174    -10.184074  11 C  s                13      9.432374   2 C  s         
   148      9.075314   9 C  py              595     -8.299747  36 C  s         
   149     -8.017950   9 C  pz              318     -7.968325  19 C  py        

 Vector  204  Occ=0.000000D+00  E= 4.658336D-01
              MO Center= -6.0D-02,  1.4D-01, -1.4D-01, r^2= 2.2D+01
   Bfn.  Coefficient  Atom+Function         Bfn.  Coefficient  Atom+Function  
  ----- ------------  ---------------      ----- ------------  ---------------
   384     27.338633  22 H  s               217    -20.560833  14 C  s         
   595    -15.623672  36 C  s                56    -11.780876   5 C  s         
   471    -11.004520  28 C  s               174     10.457329  11 C  s         
    13     -9.346912   2 C  s               140      8.854013   9 C  s         
   317      8.819479  19 C  px              567     -7.770130  33 H  s         

 Vector  205  Occ=0.000000D+00  E= 4.693606D-01
              MO Center=  3.1D-01,  6.4D-01, -2.3D-01, r^2= 1.9D+01
   Bfn.  Coefficient  Atom+Function         Bfn.  Coefficient  Atom+Function  
  ----- ------------  ---------------      ----- ------------  ---------------
   595     18.975562  36 C  s               267     17.580523  16 N  s         
   317    -16.244304  19 C  px              217    -13.141564  14 C  s         
   148     11.141211   9 C  py              402     10.252736  23 C  py        
   149      9.364669   9 C  pz              401      8.424818  23 C  px        
   367      7.818994  21 N  px              394      7.726208  23 C  s         

 Vector  206  Occ=0.000000D+00  E= 4.711195D-01
              MO Center=  3.5D-01,  3.1D-01,  5.7D-01, r^2= 1.9D+01
   Bfn.  Coefficient  Atom+Function         Bfn.  Coefficient  Atom+Function  
  ----- ------------  ---------------      ----- ------------  ---------------
   217     13.664327  14 C  s               543    -11.651568  32 C  s         
   367      8.774685  21 N  px              106     -7.742557   7 N  s         
   148     -7.078554   9 C  py              147     -6.116598   9 C  px        
   566      5.896974  33 H  s                12      5.591355   2 C  s         
   182     -5.479209  11 C  py              335     -5.332140  20 O  s         

 Vector  207  Occ=0.000000D+00  E= 4.764417D-01
              MO Center=  3.8D-01,  6.7D-01,  5.7D-01, r^2= 2.1D+01
   Bfn.  Coefficient  Atom+Function         Bfn.  Coefficient  Atom+Function  
  ----- ------------  ---------------      ----- ------------  ---------------
    56     13.714414   5 C  s               367      9.866872  21 N  px        
   174     -9.724233  11 C  s               384     -8.532459  22 H  s         
   318     -8.351022  19 C  py              113      7.287503   7 N  px        
   217     -6.846117  14 C  s                12      6.403792   2 C  s         
   148      6.240954   9 C  py              147      5.539694   9 C  px        

 Vector  208  Occ=0.000000D+00  E= 4.785406D-01
              MO Center=  1.2D-01, -2.2D-01,  3.8D-01, r^2= 2.0D+01
   Bfn.  Coefficient  Atom+Function         Bfn.  Coefficient  Atom+Function  
  ----- ------------  ---------------      ----- ------------  ---------------
   384     17.461423  22 H  s               217     13.616073  14 C  s         
    56    -10.547686   5 C  s               267    -10.237827  16 N  s         
   174      9.598820  11 C  s               173      9.123782  11 C  s         
   567     -8.030917  33 H  s               543      7.881775  32 C  s         
   360     -7.699801  21 N  s               106     -7.562004   7 N  s         

 Vector  209  Occ=0.000000D+00  E= 4.826027D-01
              MO Center= -1.4D-01, -2.3D-01, -2.8D-01, r^2= 2.0D+01
   Bfn.  Coefficient  Atom+Function         Bfn.  Coefficient  Atom+Function  
  ----- ------------  ---------------      ----- ------------  ---------------
   318     20.832718  19 C  py               56    -15.473873   5 C  s         
   149     14.329267   9 C  pz              147    -10.956502   9 C  px        
   317    -10.199907  19 C  px              402      9.468829  23 C  py        
   174      8.840830  11 C  s               106     -8.732249   7 N  s         
   543      8.657428  32 C  s               542      7.804417  32 C  s         

 Vector  210  Occ=0.000000D+00  E= 4.874931D-01
              MO Center=  5.5D-01,  1.6D-02,  6.9D-01, r^2= 2.0D+01
   Bfn.  Coefficient  Atom+Function         Bfn.  Coefficient  Atom+Function  
  ----- ------------  ---------------      ----- ------------  ---------------
   595     14.176538  36 C  s               645    -10.125379  38 N  s         
    56      9.439192   5 C  s               471     -8.059160  28 C  s         
   461      6.963322  27 H  s               384     -6.893667  22 H  s         
   106     -6.563002   7 N  s               417     -5.713655  24 H  s         
   576      5.561047  34 H  s               436     -5.524320  25 C  py        

 Vector  211  Occ=0.000000D+00  E= 4.883861D-01
              MO Center= -4.9D-01,  7.4D-02, -1.8D-01, r^2= 1.9D+01
   Bfn.  Coefficient  Atom+Function         Bfn.  Coefficient  Atom+Function  
  ----- ------------  ---------------      ----- ------------  ---------------
   595     22.839854  36 C  s                56     17.753871   5 C  s         
   384    -11.528351  22 H  s               217    -10.292409  14 C  s         
   471     -7.995241  28 C  s               148      7.837882   9 C  py        
   401      7.784852  23 C  px              403      7.653589  23 C  pz        
    81     -6.662739   6 O  s               367      6.063863  21 N  px        

 Vector  212  Occ=0.000000D+00  E= 4.962613D-01
              MO Center=  4.1D-02,  1.0D+00, -2.6D-02, r^2= 1.9D+01
   Bfn.  Coefficient  Atom+Function         Bfn.  Coefficient  Atom+Function  
  ----- ------------  ---------------      ----- ------------  ---------------
   174     17.310907  11 C  s               360    -17.302815  21 N  s         
   384     14.511874  22 H  s               543    -10.158283  32 C  s         
   197     -7.781375  12 H  s               267     -7.815161  16 N  s         
   217      7.367436  14 C  s               106     -6.345848   7 N  s         
   163     -5.958568  10 H  s               471     -5.871506  28 C  s         

 Vector  213  Occ=0.000000D+00  E= 4.996255D-01
              MO Center= -7.6D-01, -2.2D-01, -3.7D-01, r^2= 1.9D+01
   Bfn.  Coefficient  Atom+Function         Bfn.  Coefficient  Atom+Function  
  ----- ------------  ---------------      ----- ------------  ---------------
   595     13.623741  36 C  s                56     11.835756   5 C  s         
   318    -11.307642  19 C  py              384    -10.177128  22 H  s         
   217      9.849228  14 C  s               360     -7.672340  21 N  s         
   542      6.321349  32 C  s               147      5.920235   9 C  px        
   471     -5.727903  28 C  s               113      5.555607   7 N  px        

 Vector  214  Occ=0.000000D+00  E= 5.049577D-01
              MO Center= -1.8D-01,  1.7D-01,  3.0D-01, r^2= 2.0D+01
   Bfn.  Coefficient  Atom+Function         Bfn.  Coefficient  Atom+Function  
  ----- ------------  ---------------      ----- ------------  ---------------
   360     17.494058  21 N  s               595    -16.761730  36 C  s         
   543     15.285808  32 C  s               174    -14.516487  11 C  s         
   427     -8.948547  25 C  s               645      8.826038  38 N  s         
   267      8.115924  16 N  s               460      7.834448  27 H  s         
    63      7.336119   5 C  px              140     -7.138381   9 C  s         


 center of mass
 --------------
 x =  -0.00021752 y =  -0.02362323 z =  -0.04013506

 moments of inertia (a.u.)
 ------------------
        7337.151845912736           0.000000000001          -0.000000000000
           0.000000000001        4399.224012791454          -0.000000000002
          -0.000000000000          -0.000000000002        7731.699362959345

  Mulliken analysis of the total density
  --------------------------------------

    Atom       Charge   Shell Charges
 -----------   ------   -------------------------------------------------------
    1 H    1     1.02   0.77  0.28  0.01  0.03 -0.06
    2 C    6     6.09   2.01  0.66  0.21  0.04  2.07  0.94  0.00  0.06  0.10
    3 H    1     0.90   0.76  0.17  0.00  0.03 -0.06
    4 H    1     0.83   0.76  0.09  0.00  0.03 -0.06
    5 C    6     5.45   2.01  0.68  0.13  0.04  1.89  0.38  0.07  0.24  0.00
    6 O    8     8.90   2.01  0.81  1.02  0.20  2.80  1.88  0.17  0.02 -0.00
    7 N    7     7.31   2.01  0.72  0.79 -0.20  2.45  1.42  0.04  0.05  0.03
    8 H    1     0.93   0.75  0.18 -0.02  0.06 -0.03
    9 C    6     6.57   2.01  0.66  0.07  0.10  1.99  1.45  0.05  0.14  0.11
   10 H    1     0.99   0.78  0.15  0.03  0.03 -0.00
   11 C    6     6.43   2.01  0.66  0.77 -0.08  2.06  0.81 -0.03  0.09  0.15
   12 H    1     0.85   0.77  0.12 -0.01  0.03 -0.06
   13 H    1     0.81   0.77  0.09 -0.01  0.03 -0.08
   14 C    6     4.54   2.01  0.68 -0.01  0.03  1.91 -0.20  0.02  0.24 -0.14
   15 O    8     8.86   2.01  0.82  1.03  0.19  2.80  1.85  0.15  0.02 -0.00
   16 N    7     7.24   2.01  0.72  0.76 -0.10  2.47  1.25  0.10  0.04 -0.02
   17 H    1     0.99   0.76  0.21 -0.00  0.05 -0.03
   18 H    1     0.87   0.73  0.15 -0.01  0.06 -0.05
   19 C    6     4.62   2.01  0.68  0.05 -0.04  1.88  0.12  0.04  0.24 -0.37
   20 O    8     9.02   2.01  0.82  1.06  0.24  2.80  1.89  0.19  0.01  0.00
   21 N    7     7.08   2.01  0.72  0.87 -0.23  2.46  1.40 -0.26  0.06  0.07
   22 H    1     0.93   0.75  0.32 -0.10  0.06 -0.10
   23 C    6     6.18   2.01  0.66 -0.04  0.02  1.99  1.34  0.11  0.14 -0.04
   24 H    1     1.21   0.77  0.41 -0.01  0.03  0.00
   25 C    6     5.73   2.01  0.66  0.25 -0.06  2.03  0.65 -0.03  0.09  0.13
   26 H    1     1.04   0.78  0.28  0.02  0.03 -0.06
   27 H    1     1.16   0.78  0.46 -0.05  0.03 -0.06
   28 C    6     5.67   2.01  0.66  0.11 -0.24  1.99  1.08  0.02  0.10 -0.06
   29 H    1     1.21   0.77  0.45 -0.03  0.03 -0.01
   30 H    1     1.15   0.77  0.40 -0.01  0.03 -0.04
   31 S   16    15.48   2.00  2.03  0.86  0.70  0.10  6.00  2.31  1.46  0.13  0.13 -0.23
   32 C    6     5.80   2.01  0.65  0.48 -0.13  2.00  0.75  0.00  0.07 -0.04
   33 H    1     1.13   0.77  0.26  0.07  0.03  0.01
   34 H    1     1.24   0.76  0.52 -0.00  0.03 -0.06
   35 H    1     1.11   0.77  0.37 -0.02  0.03 -0.04
   36 C    6     4.63   2.01  0.68  0.13 -0.08  1.89 -0.16  0.01  0.24 -0.08
   37 O    8     8.85   2.01  0.82  1.04  0.20  2.79  1.84  0.15  0.01 -0.00
   38 N    7     7.25   2.01  0.72  0.80 -0.13  2.46  1.25  0.11  0.04 -0.02
   39 H    1     0.99   0.75  0.22 -0.00  0.05 -0.03
   40 H    1     0.94   0.74  0.22 -0.01  0.06 -0.08

       Multipole analysis of the density wrt the origin
       ------------------------------------------------

     L   x y z        total         open         nuclear
     -   - - -        -----         ----         -------
     0   0 0 0      0.000000      0.000000    162.000000

     1   1 0 0     -0.371867      0.000000      0.000000
     1   0 1 0      1.551717      0.000000     -0.000000
     1   0 0 1      0.185352      0.000000      0.000000

     2   2 0 0    -89.069119      0.000000   1350.634473
     2   1 1 0      4.432671      0.000000     -7.347972
     2   1 0 1      4.844237      0.000000     11.177986
     2   0 2 0   -110.333686      0.000000   2846.367946
     2   0 1 1     -6.281962      0.000000    -12.306473
     2   0 0 2    -96.861247      0.000000   1105.255810


 Task  times  cpu:     6987.4s     wall:     7007.5s


                                NWChem Input Module
                                -------------------


 Summary of allocated global arrays
-----------------------------------
  No active global arrays


MA_summarize_allocated_blocks: starting scan ...
MA_summarize_allocated_blocks: scan completed: 0 heap blocks, 0 stack blocks
MA usage statistics:

	allocation statistics:
					      heap	     stack
					      ----	     -----
	current number of blocks	         0	         0
	maximum number of blocks	        16	        14
	current total bytes		         0	         0
	maximum total bytes		    156872	  37111464
	maximum total K-bytes		       157	     37112
	maximum total M-bytes		         1	        38


                                     CITATION
                                     --------
                Please cite the following reference when publishing
                           results obtained with NWChem:

          E. Apra, E. J. Bylaska, W. A. de Jong, N. Govind, K. Kowalski,
       T. P. Straatsma, M. Valiev, H. J. J. van Dam, Y. Alexeev, J. Anchell,
       V. Anisimov, F. W. Aquino, R. Atta-Fynn, J. Autschbach, N. P. Bauman,
     J. C. Becca, D. E. Bernholdt, K. Bhaskaran-Nair, S. Bogatko, P. Borowski,
         J. Boschen, J. Brabec, A. Bruner, E. Cauet, Y. Chen, G. N. Chuev,
      C. J. Cramer, J. Daily, M. J. O. Deegan, T. H. Dunning Jr., M. Dupuis,
   K. G. Dyall, G. I. Fann, S. A. Fischer, A. Fonari, H. Fruchtl, L. Gagliardi,
      J. Garza, N. Gawande, S. Ghosh, K. Glaesemann, A. W. Gotz, J. Hammond,
       V. Helms, E. D. Hermes, K. Hirao, S. Hirata, M. Jacquelin, L. Jensen,
   B. G. Johnson, H. Jonsson, R. A. Kendall, M. Klemm, R. Kobayashi, V. Konkov,
      S. Krishnamoorthy, M. Krishnan, Z. Lin, R. D. Lins, R. J. Littlefield,
      A. J. Logsdail, K. Lopata, W. Ma, A. V. Marenich, J. Martin del Campo,
   D. Mejia-Rodriguez, J. E. Moore, J. M. Mullin, T. Nakajima, D. R. Nascimento,
    J. A. Nichols, P. J. Nichols, J. Nieplocha, A. Otero-de-la-Roza, B. Palmer,
    A. Panyala, T. Pirojsirikul, B. Peng, R. Peverati, J. Pittner, L. Pollack,
   R. M. Richard, P. Sadayappan, G. C. Schatz, W. A. Shelton, D. W. Silverstein,
   D. M. A. Smith, T. A. Soares, D. Song, M. Swart, H. L. Taylor, G. S. Thomas,
            V. Tipparaju, D. G. Truhlar, K. Tsemekhman, T. Van Voorhis,
      A. Vazquez-Mayagoitia, P. Verma, O. Villa, A. Vishnu, K. D. Vogiatzis,
        D. Wang, J. H. Weare, M. J. Williamson, T. L. Windus, K. Wolinski,
        A. T. Wong, Q. Wu, C. Yang, Q. Yu, M. Zacharias, Z. Zhang, Y. Zhao,
                                and R. J. Harrison
                        "NWChem: Past, present, and future
                         J. Chem. Phys. 152, 184102 (2020)
                               doi:10.1063/5.0004997

                                      AUTHORS
                                      -------
  E. Apra, E. J. Bylaska, N. Govind, K. Kowalski, M. Valiev, D. Mejia-Rodriguez,
       A. Kunitsa, N. P. Bauman, A. Panyala, W. A. de Jong, T. P. Straatsma,
   H. J. J. van Dam, D. Wang, T. L. Windus, J. Hammond, J. Autschbach, A. Woods,
    K. Bhaskaran-Nair, J. Brabec, K. Lopata, S. A. Fischer, S. Krishnamoorthy,
     M. Jacquelin, W. Ma, M. Klemm, O. Villa, Y. Chen, V. Anisimov, F. Aquino,
     S. Hirata, M. T. Hackler, E. Hermes, L. Jensen, J. E. Moore, J. C. Becca,
      V. Konjkov, T. Risthaus, M. Malagoli, A. Marenich, A. Otero-de-la-Roza,
        J. Mullin, P. Nichols, R. Peverati, J. Pittner, Y. Zhao, P.-D. Fan,
        A. Fonari, M. J. Williamson, R. J. Harrison, J. R. Rehr, M. Dupuis,
     D. Silverstein, D. M. A. Smith, J. Nieplocha, V. Tipparaju, M. Krishnan,
     B. E. Van Kuiken, A. Vazquez-Mayagoitia, M. Swart, Q. Wu, T. Van Voorhis,
     A. A. Auer, M. Nooijen, L. D. Crosby, E. Brown, G. Cisneros, G. I. Fann,
   H. Fruchtl, J. Garza, K. Hirao, R. A. Kendall, J. A. Nichols, K. Tsemekhman,
    K. Wolinski, J. Anchell, D. E. Bernholdt, P. Borowski, T. Clark, D. Clerc,
   H. Dachsel, M. J. O. Deegan, K. Dyall, D. Elwood, E. Glendening, M. Gutowski,
   A. C. Hess, J. Jaffe, B. G. Johnson, J. Ju, R. Kobayashi, R. Kutteh, Z. Lin,
   R. Littlefield, X. Long, B. Meng, T. Nakajima, S. Niu, L. Pollack, M. Rosing,
   K. Glaesemann, G. Sandrone, M. Stave, H. Taylor, G. Thomas, J. H. van Lenthe,
                               A. T. Wong, Z. Zhang.

 Total times  cpu:     6987.5s     wall:     7008.0s
