export TMOUT=5400
export TMPDIR=/tmp
export PTMPDIR=/tmp/ptmp
 argument  1 = inputs/ASN_ASN_4.nw



============================== echo of input deck ==============================
start ASN_ASN_4
geometry
H          4.31600       -0.57300       -1.53700
C          5.24300       -1.13400       -1.43900
H          5.06300       -2.18100       -1.67900
H          5.61700       -1.05400       -0.41900
C          6.27000       -0.57900       -2.39500
O          6.71600       -1.26900       -3.30300
N          6.64400        0.68500       -2.20800
H          6.19200        1.19700       -1.46600
C          7.67700        1.37300       -3.00600
H          8.15700        0.65500       -3.67400
C          7.02000        2.46100       -3.88200
H          6.49800        3.17200       -3.24300
H          7.80800        3.00300       -4.40600
C          6.04400        1.99000       -4.95500
O          5.33600        2.78700       -5.53900
N          5.94200        0.71800       -5.27000
H          5.27900        0.49700       -5.98900
H          6.43600        0.00100       -4.75400
C          8.82900        1.93300       -2.14100
O          9.73600        2.58900       -2.64500
N          8.80600        1.66500       -0.83400
H          8.04800        1.08300       -0.50000
C          9.76600        2.11400        0.18100
H          9.99600        3.16400       -0.00600
C          9.06300        2.01300        1.55000
H          9.75900        2.26000        2.35200
H          8.24500        2.73100        1.58600
C          8.47800        0.63000        1.78500
O          7.36600        0.33800        1.37700
N          9.23200       -0.27300        2.35900
H          8.84700       -1.19200        2.47300
H         10.21100       -0.06400        2.50900
C         11.12000        1.36000        0.13800
O         11.61700        0.88500        1.15600
N         11.72100        1.20200       -1.03300
H         11.31100        1.61400       -1.86100
H         12.59500        0.70500       -1.06600
end

basis
 * library aug-cc-pvdz
end

echo

scf
 direct
end

task scf energy
================================================================================


                                         
                                         


             Northwest Computational Chemistry Package (NWChem) 7.2.0
             --------------------------------------------------------


                    Environmental Molecular Sciences Laboratory
                       Pacific Northwest National Laboratory
                                Richland, WA 99352

                              Copyright (c) 1994-2022
                       Pacific Northwest National Laboratory
                            Battelle Memorial Institute

             NWChem is an open-source computational chemistry package
                        distributed under the terms of the
                      Educational Community License (ECL) 2.0
             A copy of the license is included with this distribution
                              in the LICENSE.TXT file

                                  ACKNOWLEDGMENT
                                  --------------

            This software and its documentation were developed at the
            EMSL at Pacific Northwest National Laboratory, a multiprogram
            national laboratory, operated for the U.S. Department of Energy
            by Battelle under Contract Number DE-AC05-76RL01830. Support
            for this work was provided by the Department of Energy Office
            of Biological and Environmental Research, Office of Basic
            Energy Sciences, and the Office of Advanced Scientific Computing.


           Job information
           ---------------

    hostname        = nova21-speedy-11
    program         = /opt/rit/el9/20230413/app/linux-rhel9-x86_64_v3/gcc-11.2.1/nwchem-7.2.0-oxtctbuhfuzyfaoziquq6bki22grib3g/bin/nwchem
    date            = Thu Jul 10 03:59:43 2025

    compiled        = Wed_May_17_23:46:39_2023
    source          = /tmp/root/spack-stage/spack-stage-nwchem-7.2.0-oxtctbuhfuzyfaoziquq6bki22grib3g/spack-src
    nwchem branch   = 7.2.0
    nwchem revision = d0d141fd
    ga revision     = 5.8.0
    use scalapack   = T
    input           = inputs/ASN_ASN_4.nw
    prefix          = ASN_ASN_4.
    data base       = ./ASN_ASN_4.db
    status          = startup
    nproc           =        8
    time left       =     -1s



           Memory information
           ------------------

    heap     =   26214394 doubles =    200.0 Mbytes
    stack    =   26214399 doubles =    200.0 Mbytes
    global   =   52428800 doubles =    400.0 Mbytes (distinct from heap & stack)
    total    =  104857593 doubles =    800.0 Mbytes
    verify   = yes
    hardfail = no 


           Directory information
           ---------------------

  0 permanent = .
  0 scratch   = .




                                NWChem Input Module
                                -------------------



 Scaling coordinates for geometry "geometry" by  1.889725989
 (inverse scale =  0.529177249)

 C1  symmetry detected

          ------
          auto-z
          ------
  no constraints, skipping    0.0000000000000000     
  no constraints, skipping    0.0000000000000000     


                             Geometry "geometry" -> ""
                             -------------------------

 Output coordinates in angstroms (scale by  1.889725989 to convert to a.u.)

  No.       Tag          Charge          X              Y              Z
 ---- ---------------- ---------- -------------- -------------- --------------
    1 H                    1.0000    -3.42806711     2.23766719     0.56153906
    2 C                    6.0000    -3.22376370     1.59255427    -0.29036671
    3 H                    1.0000    -3.88049486     1.86060169    -1.11684342
    4 H                    1.0000    -3.39249574     0.55226332    -0.01468528
    5 C                    6.0000    -1.78934166     1.77062221    -0.72328151
    6 O                    8.0000    -1.52177961     2.21643061    -1.83194982
    7 N                    7.0000    -0.84952177     1.43690336     0.15871129
    8 H                    1.0000    -1.15659836     1.12288169     1.06651433
    9 C                    6.0000     0.60012195     1.48825815    -0.11171942
   10 H                    1.0000     0.76423651     1.71986093    -1.16603179
   11 C                    6.0000     1.24603685     2.61575472     0.72153589
   12 H                    1.0000     1.06362064     2.43216770     1.77952745
   13 H                    1.0000     2.32439356     2.58723448     0.56148149
   14 C                    6.0000     0.80915358     4.04347693     0.41091023
   15 O                    8.0000     1.11056226     4.95727284     1.15364763
   16 N                    7.0000     0.09685883     4.31886001    -0.65886234
   17 H                    1.0000    -0.14303594     5.28375804    -0.78845122
   18 H                    1.0000    -0.26198817     3.58901655    -1.26130600
   19 C                    6.0000     1.29890538     0.12642348     0.10284302
   20 O                    8.0000     2.51544578     0.01476627    -0.01783481
   21 N                    7.0000     0.53009513    -0.92029520     0.40929498
   22 H                    1.0000    -0.46829740    -0.75780260     0.44994611
   23 C                    6.0000     0.96914337    -2.29251377     0.68800420
   24 H                    1.0000     1.85195806    -2.24633372     1.32743725
   25 C                    6.0000    -0.16131490    -2.98122435     1.47940348
   26 H                    1.0000     0.07858039    -4.03170207     1.64546314
   27 H                    1.0000    -0.25849243    -2.50379408     2.45334438
   28 C                    6.0000    -1.50039658    -2.86585072     0.76969356
   29 O                    8.0000    -2.21291617    -1.88748195     0.92260658
   30 N                    7.0000    -1.83342700    -3.80206730    -0.08235706
   31 H                    1.0000    -2.70188127    -3.69367362    -0.57207124
   32 H                    1.0000    -1.14182301    -4.49646096    -0.33558298
   33 C                    6.0000     1.39182614    -3.08294185    -0.57700321
   34 O                    8.0000     0.95909366    -4.21134861    -0.79700048
   35 N                    7.0000     2.20709988    -2.50107133    -1.44542789
   36 H                    1.0000     2.57126357    -1.57907916    -1.24357830
   37 H                    1.0000     2.47591602    -3.00737985    -2.27208595

      Atomic Mass 
      ----------- 

      H                  1.007825
      C                 12.000000
      O                 15.994910
      N                 14.003070


 Effective nuclear repulsion energy (a.u.)    1677.3101043155

            Nuclear Dipole moment (a.u.) 
            ----------------------------
        X                 Y               Z
 ---------------- ---------------- ----------------
    -0.0000000000     0.0000000000    -0.0000000000



                                Z-matrix (autoz)
                                -------- 

 Units are Angstrom for bonds and degrees for angles

      Type          Name      I     J     K     L     M      Value
      ----------- --------  ----- ----- ----- ----- ----- ----------
    1 Stretch                  1     2                       1.08796
    2 Stretch                  2     3                       1.08913
    3 Stretch                  2     4                       1.08935
    4 Stretch                  2     5                       1.50887
    5 Stretch                  5     6                       1.22453
    6 Stretch                  5     7                       1.33137
    7 Stretch                  7     8                       1.00847
    8 Stretch                  7     9                       1.47555
    9 Stretch                  9    10                       1.09186
   10 Stretch                  9    11                       1.54362
   11 Stretch                  9    19                       1.54562
   12 Stretch                 11    12                       1.08919
   13 Stretch                 11    13                       1.09054
   14 Stretch                 11    14                       1.52504
   15 Stretch                 14    15                       1.21554
   16 Stretch                 14    16                       1.31439
   17 Stretch                 16    17                       1.00268
   18 Stretch                 16    18                       1.01212
   19 Stretch                 19    20                       1.22760
   20 Stretch                 19    21                       1.33439
   21 Stretch                 21    22                       1.01235
   22 Stretch                 21    23                       1.46746
   23 Stretch                 23    24                       1.09104
   24 Stretch                 23    25                       1.54226
   25 Stretch                 23    33                       1.55038
   26 Stretch                 25    26                       1.09024
   27 Stretch                 25    27                       1.08901
   28 Stretch                 25    28                       1.51991
   29 Stretch                 28    29                       1.21995
   30 Stretch                 28    30                       1.30897
   31 Stretch                 30    31                       1.00289
   32 Stretch                 30    32                       1.01224
   33 Stretch                 33    34                       1.22840
   34 Stretch                 33    35                       1.32567
   35 Stretch                 35    36                       1.01165
   36 Stretch                 35    37                       1.00597
   37 Bend                     1     2     3               109.57434
   38 Bend                     1     2     4               109.81634
   39 Bend                     1     2     5               109.46344
   40 Bend                     2     5     6               120.69386
   41 Bend                     2     5     7               116.83500
   42 Bend                     3     2     4               109.49167
   43 Bend                     3     2     5               109.05456
   44 Bend                     4     2     5               109.42419
   45 Bend                     5     7     8               117.35142
   46 Bend                     5     7     9               124.28954
   47 Bend                     6     5     7               122.46628
   48 Bend                     7     9    10               109.39174
   49 Bend                     7     9    11               109.72977
   50 Bend                     7     9    19               112.83399
   51 Bend                     8     7     9               118.35738
   52 Bend                     9    11    12               109.33853
   53 Bend                     9    11    13               108.38726
   54 Bend                     9    11    14               117.00000
   55 Bend                     9    19    20               120.96590
   56 Bend                     9    19    21               117.55144
   57 Bend                    10     9    11               107.66272
   58 Bend                    10     9    19               104.65440
   59 Bend                    11     9    19               112.29999
   60 Bend                    11    14    15               120.55053
   61 Bend                    11    14    16               121.14247
   62 Bend                    12    11    13               107.68371
   63 Bend                    12    11    14               107.91888
   64 Bend                    13    11    14               106.13264
   65 Bend                    14    16    17               115.87858
   66 Bend                    14    16    18               121.70273
   67 Bend                    15    14    16               118.30669
   68 Bend                    17    16    18               122.15260
   69 Bend                    19    21    22               116.84148
   70 Bend                    19    21    23               127.21067
   71 Bend                    20    19    21               121.47918
   72 Bend                    21    23    24               108.28969
   73 Bend                    21    23    25               107.20157
   74 Bend                    21    23    33               113.78726
   75 Bend                    22    21    23               115.94663
   76 Bend                    23    25    26               110.31278
   77 Bend                    23    25    27               109.18106
   78 Bend                    23    25    28               111.85602
   79 Bend                    23    33    34               121.22605
   80 Bend                    23    33    35               118.58049
   81 Bend                    24    23    25               108.13501
   82 Bend                    24    23    33               106.21121
   83 Bend                    25    23    33               113.00782
   84 Bend                    25    28    29               121.12569
   85 Bend                    25    28    30               118.28170
   86 Bend                    26    25    27               107.80823
   87 Bend                    26    25    28               109.76240
   88 Bend                    27    25    28               107.80059
   89 Bend                    28    30    31               117.44310
   90 Bend                    28    30    32               118.66301
   91 Bend                    29    28    30               120.43711
   92 Bend                    31    30    32               122.93213
   93 Bend                    33    35    36               119.38655
   94 Bend                    33    35    37               118.79919
   95 Bend                    34    33    35               120.16694
   96 Bend                    36    35    37               121.76722
   97 Torsion                  1     2     5     6        -116.67791
   98 Torsion                  1     2     5     7          62.53950
   99 Torsion                  2     5     7     8          -2.33077
  100 Torsion                  2     5     7     9         177.19119
  101 Torsion                  3     2     5     6           3.18958
  102 Torsion                  3     2     5     7        -177.59300
  103 Torsion                  4     2     5     6         122.93277
  104 Torsion                  4     2     5     7         -57.84981
  105 Torsion                  5     7     9    10          -6.82226
  106 Torsion                  5     7     9    11         111.07967
  107 Torsion                  5     7     9    19        -122.87631
  108 Torsion                  6     5     7     8         176.87161
  109 Torsion                  6     5     7     9          -3.60642
  110 Torsion                  7     9    11    12          58.79110
  111 Torsion                  7     9    11    13         175.91424
  112 Torsion                  7     9    11    14         -64.21798
  113 Torsion                  7     9    19    20        -176.47008
  114 Torsion                  7     9    19    21           4.19841
  115 Torsion                  8     7     9    10         172.69525
  116 Torsion                  8     7     9    11         -69.40282
  117 Torsion                  8     7     9    19          56.64120
  118 Torsion                  9    11    14    15         168.51034
  119 Torsion                  9    11    14    16         -11.28193
  120 Torsion                  9    19    21    22           2.03128
  121 Torsion                  9    19    21    23        -178.38902
  122 Torsion                 10     9    11    12         177.76307
  123 Torsion                 10     9    11    13         -65.11379
  124 Torsion                 10     9    11    14          54.75399
  125 Torsion                 10     9    19    20          64.68271
  126 Torsion                 10     9    19    21        -114.64880
  127 Torsion                 11     9    19    20         -51.81828
  128 Torsion                 11     9    19    21         128.85021
  129 Torsion                 11    14    16    17        -179.71177
  130 Torsion                 11    14    16    18           6.09378
  131 Torsion                 12    11     9    19         -67.55619
  132 Torsion                 12    11    14    15          44.77470
  133 Torsion                 12    11    14    16        -135.01757
  134 Torsion                 13    11     9    19          49.56695
  135 Torsion                 13    11    14    15         -70.43080
  136 Torsion                 13    11    14    16         109.77693
  137 Torsion                 14    11     9    19         169.43473
  138 Torsion                 15    14    16    17           0.49143
  139 Torsion                 15    14    16    18        -173.70303
  140 Torsion                 19    21    23    24          42.82842
  141 Torsion                 19    21    23    25         159.28313
  142 Torsion                 19    21    23    33         -75.01251
  143 Torsion                 20    19    21    22        -177.29659
  144 Torsion                 20    19    21    23           2.28311
  145 Torsion                 21    23    25    26         175.49325
  146 Torsion                 21    23    25    27         -66.20933
  147 Torsion                 21    23    25    28          53.01772
  148 Torsion                 21    23    33    34        -130.72098
  149 Torsion                 21    23    33    35          47.40849
  150 Torsion                 22    21    23    24        -137.58864
  151 Torsion                 22    21    23    25         -21.13393
  152 Torsion                 22    21    23    33         104.57044
  153 Torsion                 23    25    28    29         -85.80355
  154 Torsion                 23    25    28    30          89.68269
  155 Torsion                 23    33    35    36           3.07344
  156 Torsion                 23    33    35    37        -179.37648
  157 Torsion                 24    23    25    26         -67.94999
  158 Torsion                 24    23    25    27          50.34742
  159 Torsion                 24    23    25    28         169.57448
  160 Torsion                 24    23    33    34         110.24620
  161 Torsion                 24    23    33    35         -71.62433
  162 Torsion                 25    23    33    34          -8.15336
  163 Torsion                 25    23    33    35         169.97611
  164 Torsion                 25    28    30    31        -177.48596
  165 Torsion                 25    28    30    32          -8.37129
  166 Torsion                 26    25    23    33          49.32362
  167 Torsion                 26    25    28    29         151.40745
  168 Torsion                 26    25    28    30         -33.10632
  169 Torsion                 27    25    23    33         167.62104
  170 Torsion                 27    25    28    29          34.23511
  171 Torsion                 27    25    28    30        -150.27866
  172 Torsion                 28    25    23    33         -73.15191
  173 Torsion                 29    28    30    31          -1.96746
  174 Torsion                 29    28    30    32         167.14721
  175 Torsion                 34    33    35    36        -178.77666
  176 Torsion                 34    33    35    37          -1.22658


            XYZ format geometry
            -------------------
    37
 geometry
 H                    -3.42806711     2.23766719     0.56153906
 C                    -3.22376370     1.59255427    -0.29036671
 H                    -3.88049486     1.86060169    -1.11684342
 H                    -3.39249574     0.55226332    -0.01468528
 C                    -1.78934166     1.77062221    -0.72328151
 O                    -1.52177961     2.21643061    -1.83194982
 N                    -0.84952177     1.43690336     0.15871129
 H                    -1.15659836     1.12288169     1.06651433
 C                     0.60012195     1.48825815    -0.11171942
 H                     0.76423651     1.71986093    -1.16603179
 C                     1.24603685     2.61575472     0.72153589
 H                     1.06362064     2.43216770     1.77952745
 H                     2.32439356     2.58723448     0.56148149
 C                     0.80915358     4.04347693     0.41091023
 O                     1.11056226     4.95727284     1.15364763
 N                     0.09685883     4.31886001    -0.65886234
 H                    -0.14303594     5.28375804    -0.78845122
 H                    -0.26198817     3.58901655    -1.26130600
 C                     1.29890538     0.12642348     0.10284302
 O                     2.51544578     0.01476627    -0.01783481
 N                     0.53009513    -0.92029520     0.40929498
 H                    -0.46829740    -0.75780260     0.44994611
 C                     0.96914337    -2.29251377     0.68800420
 H                     1.85195806    -2.24633372     1.32743725
 C                    -0.16131490    -2.98122435     1.47940348
 H                     0.07858039    -4.03170207     1.64546314
 H                    -0.25849243    -2.50379408     2.45334438
 C                    -1.50039658    -2.86585072     0.76969356
 O                    -2.21291617    -1.88748195     0.92260658
 N                    -1.83342700    -3.80206730    -0.08235706
 H                    -2.70188127    -3.69367362    -0.57207124
 H                    -1.14182301    -4.49646096    -0.33558298
 C                     1.39182614    -3.08294185    -0.57700321
 O                     0.95909366    -4.21134861    -0.79700048
 N                     2.20709988    -2.50107133    -1.44542789
 H                     2.57126357    -1.57907916    -1.24357830
 H                     2.47591602    -3.00737985    -2.27208595

 ==============================================================================
                                internuclear distances
 ------------------------------------------------------------------------------
       center one      |      center two      | atomic units |  angstroms
 ------------------------------------------------------------------------------
    2 C                |   1 H                |     2.05594  |     1.08796
    3 H                |   2 C                |     2.05816  |     1.08913
    4 H                |   2 C                |     2.05857  |     1.08935
    5 C                |   2 C                |     2.85135  |     1.50887
    6 O                |   5 C                |     2.31403  |     1.22453
    7 N                |   5 C                |     2.51592  |     1.33137
    8 H                |   7 N                |     1.90573  |     1.00847
    9 C                |   7 N                |     2.78838  |     1.47555
   10 H                |   9 C                |     2.06331  |     1.09186
   11 C                |   9 C                |     2.91702  |     1.54362
   12 H                |  11 C                |     2.05826  |     1.08919
   13 H                |  11 C                |     2.06083  |     1.09054
   14 C                |  11 C                |     2.88191  |     1.52504
   15 O                |  14 C                |     2.29703  |     1.21554
   16 N                |  14 C                |     2.48383  |     1.31439
   17 H                |  16 N                |     1.89479  |     1.00268
   18 H                |  16 N                |     1.91262  |     1.01212
   19 C                |   9 C                |     2.92079  |     1.54562
   20 O                |  19 C                |     2.31983  |     1.22760
   21 N                |  19 C                |     2.52164  |     1.33439
   22 H                |  21 N                |     1.91306  |     1.01235
   23 C                |  21 N                |     2.77309  |     1.46746
   24 H                |  23 C                |     2.06177  |     1.09104
   25 C                |  23 C                |     2.91445  |     1.54226
   26 H                |  25 C                |     2.06026  |     1.09024
   27 H                |  25 C                |     2.05793  |     1.08901
   28 C                |  25 C                |     2.87222  |     1.51991
   29 O                |  28 C                |     2.30537  |     1.21995
   30 N                |  28 C                |     2.47359  |     1.30897
   31 H                |  30 N                |     1.89518  |     1.00289
   32 H                |  30 N                |     1.91285  |     1.01224
   33 C                |  23 C                |     2.92980  |     1.55038
   34 O                |  33 C                |     2.32133  |     1.22840
   35 N                |  33 C                |     2.50516  |     1.32567
   36 H                |  35 N                |     1.91173  |     1.01165
   37 H                |  35 N                |     1.90101  |     1.00597
 ------------------------------------------------------------------------------
                         number of included internuclear distances:         36
 ==============================================================================



 ==============================================================================
                                 internuclear angles
 ------------------------------------------------------------------------------
        center 1       |       center 2       |       center 3       |  degrees
 ------------------------------------------------------------------------------
    1 H                |   2 C                |   3 H                |   109.57
    1 H                |   2 C                |   4 H                |   109.82
    1 H                |   2 C                |   5 C                |   109.46
    3 H                |   2 C                |   4 H                |   109.49
    3 H                |   2 C                |   5 C                |   109.05
    4 H                |   2 C                |   5 C                |   109.42
    2 C                |   5 C                |   6 O                |   120.69
    2 C                |   5 C                |   7 N                |   116.84
    6 O                |   5 C                |   7 N                |   122.47
    5 C                |   7 N                |   8 H                |   117.35
    5 C                |   7 N                |   9 C                |   124.29
    8 H                |   7 N                |   9 C                |   118.36
    7 N                |   9 C                |  10 H                |   109.39
    7 N                |   9 C                |  11 C                |   109.73
    7 N                |   9 C                |  19 C                |   112.83
   10 H                |   9 C                |  11 C                |   107.66
   10 H                |   9 C                |  19 C                |   104.65
   11 C                |   9 C                |  19 C                |   112.30
    9 C                |  11 C                |  12 H                |   109.34
    9 C                |  11 C                |  13 H                |   108.39
    9 C                |  11 C                |  14 C                |   117.00
   12 H                |  11 C                |  13 H                |   107.68
   12 H                |  11 C                |  14 C                |   107.92
   13 H                |  11 C                |  14 C                |   106.13
   11 C                |  14 C                |  15 O                |   120.55
   11 C                |  14 C                |  16 N                |   121.14
   15 O                |  14 C                |  16 N                |   118.31
   14 C                |  16 N                |  17 H                |   115.88
   14 C                |  16 N                |  18 H                |   121.70
   17 H                |  16 N                |  18 H                |   122.15
    9 C                |  19 C                |  20 O                |   120.97
    9 C                |  19 C                |  21 N                |   117.55
   20 O                |  19 C                |  21 N                |   121.48
   19 C                |  21 N                |  22 H                |   116.84
   19 C                |  21 N                |  23 C                |   127.21
   22 H                |  21 N                |  23 C                |   115.95
   21 N                |  23 C                |  24 H                |   108.29
   21 N                |  23 C                |  25 C                |   107.20
   21 N                |  23 C                |  33 C                |   113.79
   24 H                |  23 C                |  25 C                |   108.14
   24 H                |  23 C                |  33 C                |   106.21
   25 C                |  23 C                |  33 C                |   113.01
   23 C                |  25 C                |  26 H                |   110.31
   23 C                |  25 C                |  27 H                |   109.18
   23 C                |  25 C                |  28 C                |   111.86
   26 H                |  25 C                |  27 H                |   107.81
   26 H                |  25 C                |  28 C                |   109.76
   27 H                |  25 C                |  28 C                |   107.80
   25 C                |  28 C                |  29 O                |   121.13
   25 C                |  28 C                |  30 N                |   118.28
   29 O                |  28 C                |  30 N                |   120.44
   28 C                |  30 N                |  31 H                |   117.44
   28 C                |  30 N                |  32 H                |   118.66
   31 H                |  30 N                |  32 H                |   122.93
   23 C                |  33 C                |  34 O                |   121.23
   23 C                |  33 C                |  35 N                |   118.58
   34 O                |  33 C                |  35 N                |   120.17
   33 C                |  35 N                |  36 H                |   119.39
   33 C                |  35 N                |  37 H                |   118.80
   36 H                |  35 N                |  37 H                |   121.77
 ------------------------------------------------------------------------------
                            number of included internuclear angles:         60
 ==============================================================================



  library name resolved from: environment
  library file name is: </opt/rit/el9/20230413/app/linux-rhel9-x86_64_v3/gcc-11.2.1/nwchem-7.2.0-oxtctbuhfuzyfaoziquq6bki22grib3g/share/nwchem/libraries/>
  


 Summary of "ao basis" -> "" (cartesian)
 ------------------------------------------------------------------------------
       Tag                 Description            Shells   Functions and Types
 ---------------- ------------------------------  ------  ---------------------
 *                        aug-cc-pvdz                 on all atoms 


                      Basis "ao basis" -> "ao basis" (cartesian)
                      -----
  H (Hydrogen)
  ------------
            Exponent  Coefficients 
       -------------- ---------------------------------------------------------
  1 S  1.30100000E+01  0.019685
  1 S  1.96200000E+00  0.137977
  1 S  4.44600000E-01  0.478148

  2 S  1.22000000E-01  1.000000

  3 S  2.97400000E-02  1.000000

  4 P  7.27000000E-01  1.000000

  5 P  1.41000000E-01  1.000000

  C (Carbon)
  ----------
            Exponent  Coefficients 
       -------------- ---------------------------------------------------------
  1 S  6.66500000E+03  0.000692
  1 S  1.00000000E+03  0.005329
  1 S  2.28000000E+02  0.027077
  1 S  6.47100000E+01  0.101718
  1 S  2.10600000E+01  0.274740
  1 S  7.49500000E+00  0.448564
  1 S  2.79700000E+00  0.285074
  1 S  5.21500000E-01  0.015204

  2 S  6.66500000E+03 -0.000146
  2 S  1.00000000E+03 -0.001154
  2 S  2.28000000E+02 -0.005725
  2 S  6.47100000E+01 -0.023312
  2 S  2.10600000E+01 -0.063955
  2 S  7.49500000E+00 -0.149981
  2 S  2.79700000E+00 -0.127262
  2 S  5.21500000E-01  0.544529

  3 S  1.59600000E-01  1.000000

  4 S  4.69000000E-02  1.000000

  5 P  9.43900000E+00  0.038109
  5 P  2.00200000E+00  0.209480
  5 P  5.45600000E-01  0.508557

  6 P  1.51700000E-01  1.000000

  7 P  4.04100000E-02  1.000000

  8 D  5.50000000E-01  1.000000

  9 D  1.51000000E-01  1.000000

  O (Oxygen)
  ----------
            Exponent  Coefficients 
       -------------- ---------------------------------------------------------
  1 S  1.17200000E+04  0.000710
  1 S  1.75900000E+03  0.005470
  1 S  4.00800000E+02  0.027837
  1 S  1.13700000E+02  0.104800
  1 S  3.70300000E+01  0.283062
  1 S  1.32700000E+01  0.448719
  1 S  5.02500000E+00  0.270952
  1 S  1.01300000E+00  0.015458

  2 S  1.17200000E+04 -0.000160
  2 S  1.75900000E+03 -0.001263
  2 S  4.00800000E+02 -0.006267
  2 S  1.13700000E+02 -0.025716
  2 S  3.70300000E+01 -0.070924
  2 S  1.32700000E+01 -0.165411
  2 S  5.02500000E+00 -0.116955
  2 S  1.01300000E+00  0.557368

  3 S  3.02300000E-01  1.000000

  4 S  7.89600000E-02  1.000000

  5 P  1.77000000E+01  0.043018
  5 P  3.85400000E+00  0.228913
  5 P  1.04600000E+00  0.508728

  6 P  2.75300000E-01  1.000000

  7 P  6.85600000E-02  1.000000

  8 D  1.18500000E+00  1.000000

  9 D  3.32000000E-01  1.000000

  N (Nitrogen)
  ------------
            Exponent  Coefficients 
       -------------- ---------------------------------------------------------
  1 S  9.04600000E+03  0.000700
  1 S  1.35700000E+03  0.005389
  1 S  3.09300000E+02  0.027406
  1 S  8.77300000E+01  0.103207
  1 S  2.85600000E+01  0.278723
  1 S  1.02100000E+01  0.448540
  1 S  3.83800000E+00  0.278238
  1 S  7.46600000E-01  0.015440

  2 S  9.04600000E+03 -0.000153
  2 S  1.35700000E+03 -0.001208
  2 S  3.09300000E+02 -0.005992
  2 S  8.77300000E+01 -0.024544
  2 S  2.85600000E+01 -0.067459
  2 S  1.02100000E+01 -0.158078
  2 S  3.83800000E+00 -0.121831
  2 S  7.46600000E-01  0.549003

  3 S  2.24800000E-01  1.000000

  4 S  6.12400000E-02  1.000000

  5 P  1.35500000E+01  0.039919
  5 P  2.91700000E+00  0.217169
  5 P  7.97300000E-01  0.510319

  6 P  2.18500000E-01  1.000000

  7 P  5.61100000E-02  1.000000

  8 D  8.17000000E-01  1.000000

  9 D  2.30000000E-01  1.000000



 Summary of "ao basis" -> "ao basis" (cartesian)
 ------------------------------------------------------------------------------
       Tag                 Description            Shells   Functions and Types
 ---------------- ------------------------------  ------  ---------------------
 H                        aug-cc-pvdz                5        9   3s2p
 C                        aug-cc-pvdz                9       25   4s3p2d
 O                        aug-cc-pvdz                9       25   4s3p2d
 N                        aug-cc-pvdz                9       25   4s3p2d


                                 NWChem SCF Module
                                 -----------------



  ao basis        = "ao basis"
  functions       =   653
  atoms           =    37
  closed shells   =    76
  open shells     =     0
  charge          =   0.00
  wavefunction    = RHF 
  input vectors   = atomic
  output vectors  = ./ASN_ASN_4.movecs
  use symmetry    = F
  symmetry adapt  = F


 Summary of "ao basis" -> "ao basis" (cartesian)
 ------------------------------------------------------------------------------
       Tag                 Description            Shells   Functions and Types
 ---------------- ------------------------------  ------  ---------------------
 H                        aug-cc-pvdz                5        9   3s2p
 C                        aug-cc-pvdz                9       25   4s3p2d
 O                        aug-cc-pvdz                9       25   4s3p2d
 N                        aug-cc-pvdz                9       25   4s3p2d



 Forming initial guess at       0.8s


 !! The overlap matrix has   6 vectors deemed linearly dependent with
    eigenvalues:
 1.83D-06 4.27D-06 5.23D-06 6.78D-06 8.86D-06 9.57D-06


      Superposition of Atomic Density Guess
      -------------------------------------

 Sum of atomic energies:       -1030.50653915

      Non-variational initial energy
      ------------------------------

 Total energy =   -1043.194329
 1-e energy   =   -4738.444695
 2-e energy   =    2017.940261
 HOMO         =      -0.310419
 LUMO         =       0.004819


 Starting SCF solution at     284.6s



 ----------------------------------------------
         Quadratically convergent ROHF

 Convergence threshold     :          1.000E-04
 Maximum no. of iterations :           30
 Final Fock-matrix accuracy:          1.000E-10
 ----------------------------------------------


              iter       energy          gnorm     gmax       time
             ----- ------------------- --------- --------- --------
                 1    -1034.8894187238  2.94D+00  1.46D-01    574.2
                 2    -1035.3335817777  9.21D-01  4.14D-02   1169.3
                 3    -1035.4088360535  7.63D-02  5.94D-03   2019.7
                 4    -1035.4097169901  4.92D-03  3.74D-04   3141.0
                 5    -1035.4097214067  9.68D-06  7.26D-07   5102.6


       Final RHF  results 
       ------------------ 

         Total SCF energy =  -1035.409721406676
      One-electron energy =  -4750.530092086805
      Two-electron energy =   2037.810266364665
 Nuclear repulsion energy =   1677.310104315463

        Time for solution =   4819.7s


             Final eigenvalues
             -----------------

              1      
    1  -20.5603
    2  -20.5502
    3  -20.5482
    4  -20.5479
    5  -20.5097
    6  -15.6291
    7  -15.6272
    8  -15.6060
    9  -15.6053
   10  -15.5785
   11  -11.3938
   12  -11.3838
   13  -11.3792
   14  -11.3772
   15  -11.3494
   16  -11.3362
   17  -11.3273
   18  -11.2805
   19  -11.2647
   20  -11.2522
   21   -1.4263
   22   -1.4180
   23   -1.4137
   24   -1.4094
   25   -1.3839
   26   -1.2872
   27   -1.2660
   28   -1.2446
   29   -1.2341
   30   -1.2126
   31   -1.1008
   32   -1.0777
   33   -1.0134
   34   -0.9704
   35   -0.9327
   36   -0.8501
   37   -0.8325
   38   -0.8261
   39   -0.8047
   40   -0.7976
   41   -0.7709
   42   -0.7663
   43   -0.7448
   44   -0.7330
   45   -0.7161
   46   -0.6986
   47   -0.6930
   48   -0.6771
   49   -0.6676
   50   -0.6634
   51   -0.6386
   52   -0.6320
   53   -0.6242
   54   -0.6226
   55   -0.6167
   56   -0.6059
   57   -0.5996
   58   -0.5897
   59   -0.5771
   60   -0.5709
   61   -0.5683
   62   -0.5590
   63   -0.5543
   64   -0.5477
   65   -0.5301
   66   -0.5220
   67   -0.4770
   68   -0.4653
   69   -0.4499
   70   -0.4468
   71   -0.4361
   72   -0.4303
   73   -0.4255
   74   -0.4194
   75   -0.4078
   76   -0.3985
   77    0.0250
   78    0.0324
   79    0.0356
   80    0.0385
   81    0.0487
   82    0.0535
   83    0.0540
   84    0.0579
   85    0.0634
   86    0.0695

                       ROHF Final Molecular Orbital Analysis
                       -------------------------------------

 Vector   21  Occ=2.000000D+00  E=-1.426313D+00
              MO Center=  1.3D+00, -4.8D-01,  1.3D-02, r^2= 4.3D+00
   Bfn.  Coefficient  Atom+Function         Bfn.  Coefficient  Atom+Function  
  ----- ------------  ---------------      ----- ------------  ---------------
   334      0.318292  20 O  s               333      0.299389  20 O  s         
   308      0.215635  19 C  s         

 Vector   22  Occ=2.000000D+00  E=-1.417982D+00
              MO Center= -1.4D+00, -2.0D+00,  5.8D-01, r^2= 4.0D+00
   Bfn.  Coefficient  Atom+Function         Bfn.  Coefficient  Atom+Function  
  ----- ------------  ---------------      ----- ------------  ---------------
   495      0.340297  29 O  s               494      0.319888  29 O  s         
   469      0.226087  28 C  s         

 Vector   23  Occ=2.000000D+00  E=-1.413661D+00
              MO Center= -1.2D+00,  1.5D+00, -1.1D+00, r^2= 4.0D+00
   Bfn.  Coefficient  Atom+Function         Bfn.  Coefficient  Atom+Function  
  ----- ------------  ---------------      ----- ------------  ---------------
    80      0.336560   6 O  s                79      0.326311   6 O  s         
    54      0.228925   5 C  s                12      0.165040   2 C  s         

 Vector   24  Occ=2.000000D+00  E=-1.409418D+00
              MO Center=  1.0D+00, -3.2D+00, -6.6D-01, r^2= 3.5D+00
   Bfn.  Coefficient  Atom+Function         Bfn.  Coefficient  Atom+Function  
  ----- ------------  ---------------      ----- ------------  ---------------
   588      0.360128  34 O  s               587      0.331504  34 O  s         
   562      0.224302  33 C  s         

 Vector   25  Occ=2.000000D+00  E=-1.383921D+00
              MO Center=  8.9D-01,  4.6D+00,  7.2D-01, r^2= 9.5D-01
   Bfn.  Coefficient  Atom+Function         Bfn.  Coefficient  Atom+Function  
  ----- ------------  ---------------      ----- ------------  ---------------
   241      0.366584  15 O  s               240      0.346920  15 O  s         
   215      0.250518  14 C  s         

 Vector   26  Occ=2.000000D+00  E=-1.287246D+00
              MO Center=  2.2D-01,  1.4D-01,  1.0D-01, r^2= 4.0D+00
   Bfn.  Coefficient  Atom+Function         Bfn.  Coefficient  Atom+Function  
  ----- ------------  ---------------      ----- ------------  ---------------
   358      0.252131  21 N  s               359      0.252717  21 N  s         
   105      0.249139   7 N  s               104      0.212749   7 N  s         
   334     -0.205367  20 O  s               333     -0.164616  20 O  s         
   311     -0.152785  19 C  px        

 Vector   27  Occ=2.000000D+00  E=-1.266012D+00
              MO Center= -1.7D-01,  3.9D-01,  1.1D-02, r^2= 4.7D+00
   Bfn.  Coefficient  Atom+Function         Bfn.  Coefficient  Atom+Function  
  ----- ------------  ---------------      ----- ------------  ---------------
   105      0.341709   7 N  s               359     -0.291659  21 N  s         
   104      0.266493   7 N  s               358     -0.220384  21 N  s         
    80     -0.172635   6 O  s         

 Vector   28  Occ=2.000000D+00  E=-1.244606D+00
              MO Center= -1.6D+00, -3.4D+00,  1.1D-01, r^2= 2.1D+00
   Bfn.  Coefficient  Atom+Function         Bfn.  Coefficient  Atom+Function  
  ----- ------------  ---------------      ----- ------------  ---------------
   519      0.356306  30 N  s               520      0.324795  30 N  s         
   495     -0.209274  29 O  s               473     -0.189290  28 C  py        
   494     -0.182957  29 O  s               427     -0.182046  25 C  s         
   552      0.156632  32 H  s         

 Vector   29  Occ=2.000000D+00  E=-1.234141D+00
              MO Center=  1.7D+00, -2.6D+00, -1.1D+00, r^2= 2.6D+00
   Bfn.  Coefficient  Atom+Function         Bfn.  Coefficient  Atom+Function  
  ----- ------------  ---------------      ----- ------------  ---------------
   613      0.382993  35 N  s               612      0.356103  35 N  s         
   588     -0.202571  34 O  s               587     -0.165407  34 O  s         
   636      0.157218  36 H  s               359     -0.155246  21 N  s         
   564      0.151985  33 C  s               645      0.151650  37 H  s         

 Vector   30  Occ=2.000000D+00  E=-1.212648D+00
              MO Center=  3.2D-01,  4.3D+00, -2.5D-01, r^2= 1.4D+00
   Bfn.  Coefficient  Atom+Function         Bfn.  Coefficient  Atom+Function  
  ----- ------------  ---------------      ----- ------------  ---------------
   266      0.379587  16 N  s               265      0.364812  16 N  s         
   241     -0.226607  15 O  s               240     -0.193660  15 O  s         
   220     -0.187861  14 C  pz              173     -0.186418  11 C  s         
   298      0.161819  18 H  s               289      0.155173  17 H  s         

 Vector   31  Occ=2.000000D+00  E=-1.100817D+00
              MO Center=  2.6D-01, -6.1D-01,  4.8D-01, r^2= 7.2D+00
   Bfn.  Coefficient  Atom+Function         Bfn.  Coefficient  Atom+Function  
  ----- ------------  ---------------      ----- ------------  ---------------
   426      0.192383  25 C  s               392      0.189277  23 C  s         
   138     -0.164150   9 C  s               427      0.161345  25 C  s         
   173     -0.153360  11 C  s         

 Vector   32  Occ=2.000000D+00  E=-1.077664D+00
              MO Center=  2.1D-01,  2.1D-01,  4.9D-01, r^2= 8.6D+00
   Bfn.  Coefficient  Atom+Function         Bfn.  Coefficient  Atom+Function  
  ----- ------------  ---------------      ----- ------------  ---------------
   173      0.235649  11 C  s               172      0.197712  11 C  s         
   426      0.186594  25 C  s               138      0.181718   9 C  s         
   427      0.163389  25 C  s         

 Vector   33  Occ=2.000000D+00  E=-1.013447D+00
              MO Center= -2.0D+00,  1.9D+00, -1.5D-01, r^2= 4.6D+00
   Bfn.  Coefficient  Atom+Function         Bfn.  Coefficient  Atom+Function  
  ----- ------------  ---------------      ----- ------------  ---------------
    11      0.318543   2 C  s                55      0.174683   5 C  s         
   173      0.174093  11 C  s                57     -0.163461   5 C  px        
   172      0.163566  11 C  s         

 Vector   34  Occ=2.000000D+00  E=-9.704165D-01
              MO Center=  2.1D-01, -1.5D+00,  5.8D-01, r^2= 7.8D+00
   Bfn.  Coefficient  Atom+Function         Bfn.  Coefficient  Atom+Function  
  ----- ------------  ---------------      ----- ------------  ---------------
   427      0.341909  25 C  s               426      0.205711  25 C  s         
   432     -0.181374  25 C  px              392     -0.174630  23 C  s         
   173     -0.164642  11 C  s               400      0.164634  23 C  pz        

 Vector   35  Occ=2.000000D+00  E=-9.327431D-01
              MO Center=  5.2D-01,  6.4D-01,  1.7D-01, r^2= 8.9D+00
   Bfn.  Coefficient  Atom+Function         Bfn.  Coefficient  Atom+Function  
  ----- ------------  ---------------      ----- ------------  ---------------
   173      0.233619  11 C  s               179      0.202701  11 C  py        
   138     -0.188584   9 C  s               393     -0.177194  23 C  s         
   172      0.169440  11 C  s         

 Vector   36  Occ=2.000000D+00  E=-8.501215D-01
              MO Center=  4.5D-01, -1.3D+00, -8.3D-02, r^2= 7.2D+00
   Bfn.  Coefficient  Atom+Function         Bfn.  Coefficient  Atom+Function  
  ----- ------------  ---------------      ----- ------------  ---------------
   393      0.343601  23 C  s               309      0.257211  19 C  s         
   173      0.196328  11 C  s               361      0.182368  21 N  px        
   570     -0.174336  33 C  pz              362      0.167558  21 N  py        
   308      0.157308  19 C  s               334     -0.152801  20 O  s         
   382     -0.152962  22 H  s               562      0.152249  33 C  s         

 Vector   37  Occ=2.000000D+00  E=-8.325297D-01
              MO Center= -5.8D-01,  1.9D-01, -9.4D-02, r^2= 7.6D+00
   Bfn.  Coefficient  Atom+Function         Bfn.  Coefficient  Atom+Function  
  ----- ------------  ---------------      ----- ------------  ---------------
   109      0.271321   7 N  pz              128      0.239123   8 H  s         
   105      0.201957   7 N  s                54     -0.167855   5 C  s         
    55     -0.167436   5 C  s         

 Vector   38  Occ=2.000000D+00  E=-8.260943D-01
              MO Center= -4.2D-01, -1.2D+00,  3.0D-01, r^2= 7.8D+00
   Bfn.  Coefficient  Atom+Function         Bfn.  Coefficient  Atom+Function  
  ----- ------------  ---------------      ----- ------------  ---------------
   309      0.235147  19 C  s               109      0.169576   7 N  pz        
   128      0.163056   8 H  s               469     -0.155687  28 C  s         
    55     -0.154909   5 C  s         

 Vector   39  Occ=2.000000D+00  E=-8.046565D-01
              MO Center=  3.6D-01, -2.3D+00, -2.5D-01, r^2= 6.7D+00
   Bfn.  Coefficient  Atom+Function         Bfn.  Coefficient  Atom+Function  
  ----- ------------  ---------------      ----- ------------  ---------------
   361      0.190668  21 N  px              382     -0.168499  22 H  s         
   615      0.157358  35 N  px              562     -0.154734  33 C  s         
   523      0.152888  30 N  py              564      0.152840  33 C  s         
   636      0.152167  36 H  s         

 Vector   40  Occ=2.000000D+00  E=-7.976164D-01
              MO Center=  3.9D-01,  3.8D+00, -1.5D-01, r^2= 3.4D+00
   Bfn.  Coefficient  Atom+Function         Bfn.  Coefficient  Atom+Function  
  ----- ------------  ---------------      ----- ------------  ---------------
   270      0.269509  16 N  pz              215      0.231405  14 C  s         
   289     -0.200399  17 H  s               268      0.195725  16 N  px        
   179      0.192571  11 C  py              266     -0.191202  16 N  s         
   298     -0.176013  18 H  s               223     -0.170999  14 C  pz        
   241     -0.168953  15 O  s               217     -0.151028  14 C  s         

 Vector   41  Occ=2.000000D+00  E=-7.708833D-01
              MO Center=  2.2D-01, -2.1D+00, -3.2D-01, r^2= 9.3D+00
   Bfn.  Coefficient  Atom+Function         Bfn.  Coefficient  Atom+Function  
  ----- ------------  ---------------      ----- ------------  ---------------
   552      0.208488  32 H  s               616      0.209322  35 N  py        
   522      0.180719  30 N  px              636      0.181451  36 H  s         
   523     -0.170591  30 N  py        

 Vector   42  Occ=2.000000D+00  E=-7.662860D-01
              MO Center=  2.5D-01,  3.5D-01, -1.9D-01, r^2= 1.0D+01
   Bfn.  Coefficient  Atom+Function         Bfn.  Coefficient  Atom+Function  
  ----- ------------  ---------------      ----- ------------  ---------------
   312      0.171950  19 C  py              563     -0.166696  33 C  s         
   399     -0.156102  23 C  py        

 Vector   43  Occ=2.000000D+00  E=-7.448015D-01
              MO Center= -1.2D-01, -2.3D+00, -1.8D-01, r^2= 8.9D+00
   Bfn.  Coefficient  Atom+Function         Bfn.  Coefficient  Atom+Function  
  ----- ------------  ---------------      ----- ------------  ---------------
   522      0.254224  30 N  px              552      0.223224  32 H  s         
   543     -0.199431  31 H  s               616     -0.179600  35 N  py        
   399      0.169769  23 C  py              636     -0.165272  36 H  s         
   417      0.163696  24 H  s               523     -0.154178  30 N  py        

 Vector   44  Occ=2.000000D+00  E=-7.329792D-01
              MO Center=  3.1D-01,  1.7D+00, -4.4D-01, r^2= 1.2D+01
   Bfn.  Coefficient  Atom+Function         Bfn.  Coefficient  Atom+Function  
  ----- ------------  ---------------      ----- ------------  ---------------
   269      0.275568  16 N  py              298     -0.220823  18 H  s         
   289      0.205354  17 H  s               299     -0.171218  18 H  s         

 Vector   45  Occ=2.000000D+00  E=-7.161285D-01
              MO Center=  3.3D-01, -1.0D+00, -7.8D-02, r^2= 9.8D+00
   Bfn.  Coefficient  Atom+Function         Bfn.  Coefficient  Atom+Function  
  ----- ------------  ---------------      ----- ------------  ---------------
   399      0.268285  23 C  py              645     -0.156693  37 H  s         
   144      0.154796   9 C  px        

 Vector   46  Occ=2.000000D+00  E=-6.986076D-01
              MO Center=  3.0D-01, -2.2D+00,  2.6D-03, r^2= 8.0D+00
   Bfn.  Coefficient  Atom+Function         Bfn.  Coefficient  Atom+Function  
  ----- ------------  ---------------      ----- ------------  ---------------
   617      0.181463  35 N  pz              400      0.169895  23 C  pz        
   564     -0.169532  33 C  s               565      0.169568  33 C  px        
   397      0.158064  23 C  pz              591     -0.158471  34 O  py        
   416      0.154391  24 H  s               588      0.154606  34 O  s         

 Vector   47  Occ=2.000000D+00  E=-6.929702D-01
              MO Center= -1.3D+00,  2.0D+00, -7.5D-01, r^2= 6.3D+00
   Bfn.  Coefficient  Atom+Function         Bfn.  Coefficient  Atom+Function  
  ----- ------------  ---------------      ----- ------------  ---------------
    12      0.253247   2 C  s                17      0.242330   2 C  px        
    80     -0.232720   6 O  s                84      0.225358   6 O  pz        
    82     -0.193471   6 O  px               57     -0.172444   5 C  px        
   269     -0.157426  16 N  py        

 Vector   48  Occ=2.000000D+00  E=-6.771043D-01
              MO Center= -2.6D-01, -7.5D-01,  5.4D-01, r^2= 9.9D+00
   Bfn.  Coefficient  Atom+Function         Bfn.  Coefficient  Atom+Function  
  ----- ------------  ---------------      ----- ------------  ---------------
   497      0.207182  29 O  px              173      0.185229  11 C  s         
   427     -0.181817  25 C  s               495     -0.162808  29 O  s         
   473      0.158708  28 C  py              142     -0.152614   9 C  py        

 Vector   49  Occ=2.000000D+00  E=-6.676002D-01
              MO Center=  7.5D-01, -7.3D-02,  3.7D-02, r^2= 9.4D+00
   Bfn.  Coefficient  Atom+Function         Bfn.  Coefficient  Atom+Function  
  ----- ------------  ---------------      ----- ------------  ---------------
   336      0.266302  20 O  px              334      0.185193  20 O  s         
   311     -0.178665  19 C  px        

 Vector   50  Occ=2.000000D+00  E=-6.634124D-01
              MO Center=  4.1D-02,  2.2D+00, -1.3D-02, r^2= 7.1D+00
   Bfn.  Coefficient  Atom+Function         Bfn.  Coefficient  Atom+Function  
  ----- ------------  ---------------      ----- ------------  ---------------
   176     -0.173066  11 C  py              143      0.171186   9 C  pz        
   244      0.157599  15 O  py              108      0.153841   7 N  py        
   218     -0.150971  14 C  px        

 Vector   51  Occ=2.000000D+00  E=-6.386358D-01
              MO Center= -9.9D-01,  2.4D+00, -4.2D-02, r^2= 7.9D+00
   Bfn.  Coefficient  Atom+Function         Bfn.  Coefficient  Atom+Function  
  ----- ------------  ---------------      ----- ------------  ---------------
   106      0.238976   7 N  s                15     -0.203226   2 C  py        
   244      0.194604  15 O  py               83     -0.176843   6 O  py        
   220     -0.168806  14 C  pz               58     -0.166712   5 C  py        
   241      0.163443  15 O  s               108     -0.159316   7 N  py        
    44      0.158506   4 H  s               173      0.158492  11 C  s         

 Vector   52  Occ=2.000000D+00  E=-6.320089D-01
              MO Center=  8.8D-01, -2.9D+00, -3.2D-01, r^2= 6.3D+00
   Bfn.  Coefficient  Atom+Function         Bfn.  Coefficient  Atom+Function  
  ----- ------------  ---------------      ----- ------------  ---------------
   591      0.308296  34 O  py              566     -0.269033  33 C  py        
   563      0.196674  33 C  s               588     -0.195989  34 O  s         
   590      0.173899  34 O  px              393     -0.164600  23 C  s         
   636      0.162712  36 H  s               594      0.154881  34 O  py        
   616      0.152600  35 N  py        

 Vector   53  Occ=2.000000D+00  E=-6.241658D-01
              MO Center=  4.2D-01,  9.5D-01,  2.3D-01, r^2= 1.0D+01
   Bfn.  Coefficient  Atom+Function         Bfn.  Coefficient  Atom+Function  
  ----- ------------  ---------------      ----- ------------  ---------------
   336      0.205738  20 O  px              311     -0.157430  19 C  px        
   177      0.153546  11 C  pz        

 Vector   54  Occ=2.000000D+00  E=-6.225610D-01
              MO Center= -6.3D-01, -1.7D+00,  3.2D-01, r^2= 8.4D+00
   Bfn.  Coefficient  Atom+Function         Bfn.  Coefficient  Atom+Function  
  ----- ------------  ---------------      ----- ------------  ---------------
   432      0.186486  25 C  px              474     -0.182332  28 C  pz        
   499     -0.170577  29 O  pz        

 Vector   55  Occ=2.000000D+00  E=-6.167016D-01
              MO Center=  2.8D-01,  7.2D-01, -4.1D-02, r^2= 1.1D+01
   Bfn.  Coefficient  Atom+Function         Bfn.  Coefficient  Atom+Function  
  ----- ------------  ---------------      ----- ------------  ---------------
   173      0.206825  11 C  s               336      0.197330  20 O  px        
   175      0.174700  11 C  px              311     -0.165881  19 C  px        
    84      0.163030   6 O  pz              145     -0.159186   9 C  py        

 Vector   56  Occ=2.000000D+00  E=-6.058811D-01
              MO Center= -4.7D-01, -1.8D+00,  5.5D-01, r^2= 9.1D+00
   Bfn.  Coefficient  Atom+Function         Bfn.  Coefficient  Atom+Function  
  ----- ------------  ---------------      ----- ------------  ---------------
   498      0.257828  29 O  py              472      0.239207  28 C  px        
   431     -0.161605  25 C  pz              522     -0.157811  30 N  px        
   429     -0.152162  25 C  px        

 Vector   57  Occ=2.000000D+00  E=-5.996428D-01
              MO Center=  3.2D-01,  1.5D-01,  2.7D-01, r^2= 1.1D+01
   Bfn.  Coefficient  Atom+Function         Bfn.  Coefficient  Atom+Function  
  ----- ------------  ---------------      ----- ------------  ---------------
   338      0.213962  20 O  pz              427      0.196676  25 C  s         
   393     -0.193055  23 C  s               313      0.184718  19 C  pz        
   498     -0.171374  29 O  py              341      0.164342  20 O  pz        
   363      0.151297  21 N  pz        

 Vector   58  Occ=2.000000D+00  E=-5.897004D-01
              MO Center= -1.2D+00,  1.8D+00, -3.9D-01, r^2= 7.2D+00
   Bfn.  Coefficient  Atom+Function         Bfn.  Coefficient  Atom+Function  
  ----- ------------  ---------------      ----- ------------  ---------------
   173     -0.259546  11 C  s                84      0.255959   6 O  pz        
   139      0.236211   9 C  s                44      0.197610   4 H  s         
    15     -0.183405   2 C  py              145      0.182843   9 C  py        
    59     -0.181597   5 C  pz               17     -0.152521   2 C  px        
    36     -0.153169   3 H  s         

 Vector   59  Occ=2.000000D+00  E=-5.770763D-01
              MO Center= -1.6D-01,  3.6D-01,  1.5D-01, r^2= 1.6D+01
   Bfn.  Coefficient  Atom+Function         Bfn.  Coefficient  Atom+Function  
  ----- ------------  ---------------      ----- ------------  ---------------
   219     -0.192802  14 C  py               16      0.181919   2 C  pz        
   590     -0.175281  34 O  px               35     -0.174239   3 H  s         
   451     -0.159522  26 H  s                36     -0.153798   3 H  s         
   245      0.154542  15 O  pz        

 Vector   60  Occ=2.000000D+00  E=-5.709446D-01
              MO Center= -1.0D+00, -2.2D-01,  1.5D-01, r^2= 1.3D+01
   Bfn.  Coefficient  Atom+Function         Bfn.  Coefficient  Atom+Function  
  ----- ------------  ---------------      ----- ------------  ---------------
    16      0.237622   2 C  pz               35     -0.232034   3 H  s         
    36     -0.188958   3 H  s               451      0.167113  26 H  s         
   106     -0.164637   7 N  s               460     -0.161560  27 H  s         
     1      0.156979   1 H  s               459     -0.152989  27 H  s         
   430     -0.151639  25 C  py        

 Vector   61  Occ=2.000000D+00  E=-5.682540D-01
              MO Center= -4.7D-01,  1.3D+00,  3.4D-01, r^2= 1.3D+01
   Bfn.  Coefficient  Atom+Function         Bfn.  Coefficient  Atom+Function  
  ----- ------------  ---------------      ----- ------------  ---------------
   245      0.214061  15 O  pz               35      0.197947   3 H  s         
   219     -0.192501  14 C  py              459     -0.167813  27 H  s         
   431     -0.150229  25 C  pz        

 Vector   62  Occ=2.000000D+00  E=-5.589880D-01
              MO Center=  6.1D-01, -1.3D+00,  3.6D-01, r^2= 1.1D+01
   Bfn.  Coefficient  Atom+Function         Bfn.  Coefficient  Atom+Function  
  ----- ------------  ---------------      ----- ------------  ---------------
   427      0.289734  25 C  s               459      0.194783  27 H  s         
   592      0.165628  34 O  pz              431      0.158192  25 C  pz        
   416     -0.154636  24 H  s               567      0.151538  33 C  pz        

 Vector   63  Occ=2.000000D+00  E=-5.543266D-01
              MO Center= -6.1D-01, -2.5D-01,  3.1D-01, r^2= 1.1D+01
   Bfn.  Coefficient  Atom+Function         Bfn.  Coefficient  Atom+Function  
  ----- ------------  ---------------      ----- ------------  ---------------
    15      0.180782   2 C  py              108     -0.160038   7 N  py        
   173      0.152608  11 C  s         

 Vector   64  Occ=2.000000D+00  E=-5.476770D-01
              MO Center=  1.0D-01, -1.1D+00,  4.4D-01, r^2= 9.8D+00
   Bfn.  Coefficient  Atom+Function         Bfn.  Coefficient  Atom+Function  
  ----- ------------  ---------------      ----- ------------  ---------------
   395      0.227082  23 C  px              432     -0.222598  25 C  px        
   430     -0.186659  25 C  py              416      0.168353  24 H  s         
   393      0.162081  23 C  s         

 Vector   65  Occ=2.000000D+00  E=-5.301315D-01
              MO Center=  2.1D-01,  3.0D+00,  6.8D-02, r^2= 5.9D+00
   Bfn.  Coefficient  Atom+Function         Bfn.  Coefficient  Atom+Function  
  ----- ------------  ---------------      ----- ------------  ---------------
   175      0.243511  11 C  px              205      0.238047  13 H  s         
   268     -0.173637  16 N  px              243     -0.172226  15 O  px        
    83      0.168704   6 O  py              106     -0.167159   7 N  s         
   218     -0.161467  14 C  px              270      0.155537  16 N  pz        

 Vector   66  Occ=2.000000D+00  E=-5.220114D-01
              MO Center=  8.6D-02,  2.1D+00,  2.5D-02, r^2= 6.5D+00
   Bfn.  Coefficient  Atom+Function         Bfn.  Coefficient  Atom+Function  
  ----- ------------  ---------------      ----- ------------  ---------------
   177      0.252661  11 C  pz              143     -0.227287   9 C  pz        
   196      0.220823  12 H  s               197      0.205040  12 H  s         
    83      0.186457   6 O  py              162      0.186926  10 H  s         
   163      0.177398  10 H  s         

 Vector   67  Occ=2.000000D+00  E=-4.769967D-01
              MO Center=  1.2D+00, -6.0D-01, -2.6D-01, r^2= 7.7D+00
   Bfn.  Coefficient  Atom+Function         Bfn.  Coefficient  Atom+Function  
  ----- ------------  ---------------      ----- ------------  ---------------
   337      0.339156  20 O  py              340      0.274200  20 O  py        
   338     -0.233131  20 O  pz              592      0.224419  34 O  pz        
   139     -0.216662   9 C  s               163      0.195718  10 H  s         
   341     -0.178638  20 O  pz              595      0.175592  34 O  pz        
   590     -0.157840  34 O  px               83     -0.156092   6 O  py        

 Vector   68  Occ=2.000000D+00  E=-4.653399D-01
              MO Center=  1.3D+00, -1.3D+00, -3.1D-01, r^2= 7.2D+00
   Bfn.  Coefficient  Atom+Function         Bfn.  Coefficient  Atom+Function  
  ----- ------------  ---------------      ----- ------------  ---------------
   337      0.324681  20 O  py              592     -0.282679  34 O  pz        
   340      0.263350  20 O  py              595     -0.224388  34 O  pz        
   590      0.213531  34 O  px              363     -0.189462  21 N  pz        
   338      0.171730  20 O  pz              366     -0.172424  21 N  pz        
   593      0.169432  34 O  px              163      0.163658  10 H  s         

 Vector   69  Occ=2.000000D+00  E=-4.498918D-01
              MO Center= -1.5D+00, -2.3D+00,  7.2D-01, r^2= 3.5D+00
   Bfn.  Coefficient  Atom+Function         Bfn.  Coefficient  Atom+Function  
  ----- ------------  ---------------      ----- ------------  ---------------
   497      0.396651  29 O  px              500      0.310719  29 O  px        
   499      0.251725  29 O  pz              498      0.202247  29 O  py        
   429      0.199207  25 C  px              502      0.196892  29 O  pz        
   471     -0.184804  28 C  s               501      0.175788  29 O  py        
   524      0.160932  30 N  pz              475     -0.159685  28 C  px        

 Vector   70  Occ=2.000000D+00  E=-4.468119D-01
              MO Center= -1.6D+00,  2.0D+00, -1.2D+00, r^2= 3.1D+00
   Bfn.  Coefficient  Atom+Function         Bfn.  Coefficient  Atom+Function  
  ----- ------------  ---------------      ----- ------------  ---------------
    82      0.523869   6 O  px               85      0.423354   6 O  px        
   106      0.249600   7 N  s               105     -0.217390   7 N  s         
    14      0.184689   2 C  px               17      0.167936   2 C  px        
   163     -0.150167  10 H  s         

 Vector   71  Occ=2.000000D+00  E=-4.361122D-01
              MO Center= -6.5D-01, -2.9D+00, -9.4D-02, r^2= 6.0D+00
   Bfn.  Coefficient  Atom+Function         Bfn.  Coefficient  Atom+Function  
  ----- ------------  ---------------      ----- ------------  ---------------
   499      0.346622  29 O  pz              502      0.276053  29 O  pz        
   523      0.232100  30 N  py              615      0.223654  35 N  px        
   526      0.214719  30 N  py              524     -0.192843  30 N  pz        
   618      0.184900  35 N  px              368     -0.179026  21 N  py        
   592     -0.162104  34 O  pz              527     -0.157495  30 N  pz        

 Vector   72  Occ=2.000000D+00  E=-4.302956D-01
              MO Center= -5.0D-02,  2.3D+00,  1.3D-02, r^2= 7.2D+00
   Bfn.  Coefficient  Atom+Function         Bfn.  Coefficient  Atom+Function  
  ----- ------------  ---------------      ----- ------------  ---------------
   108      0.316135   7 N  py              111      0.303122   7 N  py        
    83     -0.238730   6 O  py              244     -0.198627  15 O  py        
    86     -0.192672   6 O  py              245      0.192441  15 O  pz        
   337     -0.174776  20 O  py              247     -0.159627  15 O  py        

 Vector   73  Occ=2.000000D+00  E=-4.254552D-01
              MO Center=  3.6D-01, -2.6D+00, -3.8D-01, r^2= 7.5D+00
   Bfn.  Coefficient  Atom+Function         Bfn.  Coefficient  Atom+Function  
  ----- ------------  ---------------      ----- ------------  ---------------
   615     -0.260395  35 N  px              618     -0.240396  35 N  px        
   592      0.238633  34 O  pz              524     -0.195614  30 N  pz        
   595      0.183764  34 O  pz              590      0.165433  34 O  px        
   471     -0.157790  28 C  s               499      0.153296  29 O  pz        

 Vector   74  Occ=2.000000D+00  E=-4.193629D-01
              MO Center=  1.0D+00, -2.0D+00, -1.2D-01, r^2= 5.0D+00
   Bfn.  Coefficient  Atom+Function         Bfn.  Coefficient  Atom+Function  
  ----- ------------  ---------------      ----- ------------  ---------------
   363      0.341461  21 N  pz              366      0.311888  21 N  pz        
   590      0.236380  34 O  px              338     -0.226259  20 O  pz        
   593      0.195926  34 O  px              341     -0.180359  20 O  pz        
   592     -0.180512  34 O  pz              397     -0.157661  23 C  pz        
   427      0.156777  25 C  s         

 Vector   75  Occ=2.000000D+00  E=-4.077977D-01
              MO Center=  6.3D-01,  3.4D+00,  4.3D-01, r^2= 5.9D+00
   Bfn.  Coefficient  Atom+Function         Bfn.  Coefficient  Atom+Function  
  ----- ------------  ---------------      ----- ------------  ---------------
   216      0.364878  14 C  s               244      0.309362  15 O  py        
   245     -0.302914  15 O  pz              173     -0.244734  11 C  s         
   248     -0.242101  15 O  pz              247      0.239845  15 O  py        
   222     -0.236848  14 C  py              237     -0.220400  14 C  dyz       
   108      0.199253   7 N  py              111      0.186693   7 N  py        

 Vector   76  Occ=2.000000D+00  E=-3.984962D-01
              MO Center=  5.7D-01,  4.4D+00,  1.8D-01, r^2= 2.5D+00
   Bfn.  Coefficient  Atom+Function         Bfn.  Coefficient  Atom+Function  
  ----- ------------  ---------------      ----- ------------  ---------------
   243      0.387186  15 O  px              268     -0.333478  16 N  px        
   246      0.303677  15 O  px              271     -0.289306  16 N  px        
   270      0.259294  16 N  pz              273      0.223034  16 N  pz        

 Vector   77  Occ=0.000000D+00  E= 2.495308D-02
              MO Center= -5.6D-01, -2.2D+00,  2.0D+00, r^2= 2.9D+01
   Bfn.  Coefficient  Atom+Function         Bfn.  Coefficient  Atom+Function  
  ----- ------------  ---------------      ----- ------------  ---------------
   384      4.309543  22 H  s               461     -2.346718  27 H  s         
   437      1.585112  25 C  pz              418     -1.559536  24 H  s         
   198     -1.297488  12 H  s               403      1.137389  23 C  pz        
   471      1.123153  28 C  s               427      1.058845  25 C  s         
   564      1.042326  33 C  s                46     -1.023801   4 H  s         

 Vector   78  Occ=0.000000D+00  E= 3.243516D-02
              MO Center= -7.9D-01, -2.4D+00, -4.7D-01, r^2= 3.3D+01
   Bfn.  Coefficient  Atom+Function         Bfn.  Coefficient  Atom+Function  
  ----- ------------  ---------------      ----- ------------  ---------------
   521      3.358876  30 N  s               384      3.094287  22 H  s         
   428     -2.914713  25 C  s               461     -2.914455  27 H  s         
   471     -2.318155  28 C  s               480      1.986448  28 C  pz        
   437      1.909721  25 C  pz              545      1.912420  31 H  s         
   614      1.735978  35 N  s               647      1.526445  37 H  s         

 Vector   79  Occ=0.000000D+00  E= 3.561263D-02
              MO Center= -3.2D-01, -6.9D-01, -6.4D-01, r^2= 4.2D+01
   Bfn.  Coefficient  Atom+Function         Bfn.  Coefficient  Atom+Function  
  ----- ------------  ---------------      ----- ------------  ---------------
    63      3.482862   5 C  px              564      2.269983  33 C  s         
   418     -2.130650  24 H  s               614     -1.875007  35 N  s         
     3      1.847194   1 H  s               647     -1.828603  37 H  s         
    12     -1.804533   2 C  s               384      1.544887  22 H  s         
   106     -1.521075   7 N  s               573     -1.473238  33 C  pz        

 Vector   80  Occ=0.000000D+00  E= 3.847102D-02
              MO Center= -7.2D-01, -8.3D-01, -3.4D-01, r^2= 4.5D+01
   Bfn.  Coefficient  Atom+Function         Bfn.  Coefficient  Atom+Function  
  ----- ------------  ---------------      ----- ------------  ---------------
   614     -3.259502  35 N  s               217      3.031040  14 C  s         
   452      2.343889  26 H  s               318      2.304305  19 C  py        
   564      2.236436  33 C  s                 3     -1.786966   1 H  s         
   573     -1.702150  33 C  pz              267     -1.675239  16 N  s         
   384     -1.510166  22 H  s               571      1.469654  33 C  px        

 Vector   81  Occ=0.000000D+00  E= 4.869222D-02
              MO Center= -7.1D-01,  4.1D-01,  4.1D-01, r^2= 4.6D+01
   Bfn.  Coefficient  Atom+Function         Bfn.  Coefficient  Atom+Function  
  ----- ------------  ---------------      ----- ------------  ---------------
   452      4.239968  26 H  s               428      3.789112  25 C  s         
   174     -3.379665  11 C  s               471     -2.786409  28 C  s         
   318      2.705867  19 C  py              436      2.370714  25 C  py        
    37      2.283347   3 H  s               198     -1.993470  12 H  s         
    56      1.944137   5 C  s               291      1.950279  17 H  s         

 Vector   82  Occ=0.000000D+00  E= 5.349031D-02
              MO Center= -1.0D-01,  1.5D+00, -6.7D-01, r^2= 4.4D+01
   Bfn.  Coefficient  Atom+Function         Bfn.  Coefficient  Atom+Function  
  ----- ------------  ---------------      ----- ------------  ---------------
    63      3.967353   5 C  px              318      2.640419  19 C  py        
   428      2.591370  25 C  s                 3      2.169289   1 H  s         
   182      2.173748  11 C  py              147      2.087611   9 C  px        
    56      2.032763   5 C  s               207     -1.998983  13 H  s         
   452      1.955759  26 H  s                12     -1.899062   2 C  s         

 Vector   83  Occ=0.000000D+00  E= 5.404675D-02
              MO Center= -1.0D+00, -9.9D-01,  3.5D-01, r^2= 4.4D+01
   Bfn.  Coefficient  Atom+Function         Bfn.  Coefficient  Atom+Function  
  ----- ------------  ---------------      ----- ------------  ---------------
   418      4.115920  24 H  s               401     -2.832657  23 C  px        
    37      2.762456   3 H  s               452     -2.215127  26 H  s         
     3     -2.103347   1 H  s                63      1.995674   5 C  px        
    46      1.703860   4 H  s               554     -1.673013  32 H  s         
   130     -1.609926   8 H  s               106     -1.553035   7 N  s         

 Vector   84  Occ=0.000000D+00  E= 5.792175D-02
              MO Center= -1.5D-01, -1.3D+00,  1.1D+00, r^2= 3.8D+01
   Bfn.  Coefficient  Atom+Function         Bfn.  Coefficient  Atom+Function  
  ----- ------------  ---------------      ----- ------------  ---------------
   418      4.415959  24 H  s               461     -4.394554  27 H  s         
   401     -3.255859  23 C  px                3      2.645264   1 H  s         
   384      2.332424  22 H  s               164     -2.295313  10 H  s         
   554      2.260607  32 H  s                46     -2.165448   4 H  s         
   437      1.851482  25 C  pz              521      1.757504  30 N  s         

 Vector   85  Occ=0.000000D+00  E= 6.344040D-02
              MO Center=  6.9D-01,  1.1D+00, -2.8D-01, r^2= 4.2D+01
   Bfn.  Coefficient  Atom+Function         Bfn.  Coefficient  Atom+Function  
  ----- ------------  ---------------      ----- ------------  ---------------
   207      4.367272  13 H  s               471     -4.154875  28 C  s         
   217     -3.895481  14 C  s               318     -3.545689  19 C  py        
   638      3.487577  36 H  s                37     -2.903061   3 H  s         
   147      2.903140   9 C  px              174      2.900965  11 C  s         
   384     -2.742701  22 H  s               113     -2.617010   7 N  px        

 Vector   86  Occ=0.000000D+00  E= 6.947981D-02
              MO Center= -1.4D+00,  5.3D-01, -3.2D-02, r^2= 4.7D+01
   Bfn.  Coefficient  Atom+Function         Bfn.  Coefficient  Atom+Function  
  ----- ------------  ---------------      ----- ------------  ---------------
    37      3.891374   3 H  s               318     -3.790014  19 C  py        
   198      3.623986  12 H  s               418     -2.791091  24 H  s         
   217     -2.725946  14 C  s               402     -2.732796  23 C  py        
   291     -2.349226  17 H  s                46     -2.266421   4 H  s         
   554      2.243106  32 H  s               403      2.216497  23 C  pz        

 Vector   87  Occ=0.000000D+00  E= 7.442256D-02
              MO Center=  1.3D+00,  9.2D-01, -8.5D-01, r^2= 3.5D+01
   Bfn.  Coefficient  Atom+Function         Bfn.  Coefficient  Atom+Function  
  ----- ------------  ---------------      ----- ------------  ---------------
   164      5.968281  10 H  s               207     -4.284976  13 H  s         
   471      3.914223  28 C  s               106      3.683747   7 N  s         
    63     -3.541111   5 C  px              149      3.048356   9 C  pz        
    13     -2.767641   2 C  s               217      2.463952  14 C  s         
   181      2.365561  11 C  px              461     -2.354514  27 H  s         

 Vector   88  Occ=0.000000D+00  E= 7.964798D-02
              MO Center= -9.7D-01, -1.3D+00,  1.6D+00, r^2= 4.1D+01
   Bfn.  Coefficient  Atom+Function         Bfn.  Coefficient  Atom+Function  
  ----- ------------  ---------------      ----- ------------  ---------------
   452      6.884292  26 H  s               461     -4.906754  27 H  s         
   554     -4.376226  32 H  s               436      4.335154  25 C  py        
   198      4.155508  12 H  s                46      3.806394   4 H  s         
     3     -2.987085   1 H  s               384     -2.357452  22 H  s         
   183     -2.287188  11 C  pz              207     -2.272713  13 H  s         

 Vector   89  Occ=0.000000D+00  E= 8.383060D-02
              MO Center= -1.2D+00, -6.1D-01, -1.0D-01, r^2= 4.2D+01
   Bfn.  Coefficient  Atom+Function         Bfn.  Coefficient  Atom+Function  
  ----- ------------  ---------------      ----- ------------  ---------------
   428      7.592394  25 C  s                46      7.034933   4 H  s         
   564     -5.060719  33 C  s               471     -3.818391  28 C  s         
     3     -3.495608   1 H  s               638     -3.482997  36 H  s         
   403     -3.301200  23 C  pz              130      3.263486   8 H  s         
   554      3.014289  32 H  s               198     -2.904616  12 H  s         

 Vector   90  Occ=0.000000D+00  E= 8.536056D-02
              MO Center=  8.1D-01, -2.5D-01, -1.3D-01, r^2= 3.8D+01
   Bfn.  Coefficient  Atom+Function         Bfn.  Coefficient  Atom+Function  
  ----- ------------  ---------------      ----- ------------  ---------------
[...]
   428     -8.444719  25 C  s                56     -8.304895   5 C  s         
   403      8.068126  23 C  pz              401     -5.837325  23 C  px        
    12     -5.792460   2 C  s               318     -5.593784  19 C  py        

 Vector  186  Occ=0.000000D+00  E= 4.375758D-01
              MO Center= -6.9D-01, -7.0D-01,  1.3D-01, r^2= 2.2D+01
   Bfn.  Coefficient  Atom+Function         Bfn.  Coefficient  Atom+Function  
  ----- ------------  ---------------      ----- ------------  ---------------
   564     17.483440  33 C  s               318    -13.951944  19 C  py        
   368     13.059917  21 N  py              148     12.215870   9 C  py        
   174     10.896977  11 C  s               182     -7.614163  11 C  py        
   106     -7.443142   7 N  s               319     -7.411571  19 C  pz        
   428     -6.776086  25 C  s               402      6.644886  23 C  py        

 Vector  187  Occ=0.000000D+00  E= 4.419099D-01
              MO Center= -9.3D-01,  6.6D-01,  3.2D-01, r^2= 2.3D+01
   Bfn.  Coefficient  Atom+Function         Bfn.  Coefficient  Atom+Function  
  ----- ------------  ---------------      ----- ------------  ---------------
   471     29.613303  28 C  s               521    -10.815689  30 N  s         
   401     10.636147  23 C  px              402     10.594700  23 C  py        
   182     -9.227032  11 C  py              564     -8.014998  33 C  s         
   106     -7.960183   7 N  s               403     -7.767133  23 C  pz        
   435      7.794192  25 C  px              318      7.221592  19 C  py        

 Vector  188  Occ=0.000000D+00  E= 4.471172D-01
              MO Center= -7.5D-02,  7.8D-01,  3.5D-01, r^2= 1.9D+01
   Bfn.  Coefficient  Atom+Function         Bfn.  Coefficient  Atom+Function  
  ----- ------------  ---------------      ----- ------------  ---------------
   217     -9.921563  14 C  s               471      9.385400  28 C  s         
   182      9.110518  11 C  py              428     -8.991713  25 C  s         
   319      7.329991  19 C  pz              368     -7.317137  21 N  py        
   113      6.977560   7 N  px               56      6.920993   5 C  s         
   310      6.250955  19 C  s               148     -5.911077   9 C  py        

 Vector  189  Occ=0.000000D+00  E= 4.505721D-01
              MO Center= -5.8D-01,  5.6D-02, -2.6D-01, r^2= 1.9D+01
   Bfn.  Coefficient  Atom+Function         Bfn.  Coefficient  Atom+Function  
  ----- ------------  ---------------      ----- ------------  ---------------
   163      8.309102  10 H  s               384      6.538261  22 H  s         
   174     -6.476717  11 C  s               368      6.392602  21 N  py        
   471      6.213783  28 C  s               310     -5.985016  19 C  s         
   402      5.829857  23 C  py              148      5.603316   9 C  py        
   435      5.124985  25 C  px               13     -4.851049   2 C  s         

 Vector  190  Occ=0.000000D+00  E= 4.546641D-01
              MO Center= -5.6D-02,  2.4D-01,  2.5D-01, r^2= 1.9D+01
   Bfn.  Coefficient  Atom+Function         Bfn.  Coefficient  Atom+Function  
  ----- ------------  ---------------      ----- ------------  ---------------
   428     29.113338  25 C  s               564    -15.669965  33 C  s         
   384    -12.812607  22 H  s               360     -9.354981  21 N  s         
   403     -8.876962  23 C  pz              140      8.456871   9 C  s         
   471      8.101008  28 C  s               182      7.912014  11 C  py        
   148     -7.762780   9 C  py              115      7.375284   7 N  pz        

 Vector  191  Occ=0.000000D+00  E= 4.592764D-01
              MO Center= -2.4D-01,  4.9D-01,  1.6D-01, r^2= 2.3D+01
   Bfn.  Coefficient  Atom+Function         Bfn.  Coefficient  Atom+Function  
  ----- ------------  ---------------      ----- ------------  ---------------
   318     11.938836  19 C  py              174     -9.767288  11 C  s         
    56      8.155047   5 C  s               113      7.255353   7 N  px        
   148     -6.944372   9 C  py              360      6.890870  21 N  s         
   106     -5.386541   7 N  s               368     -5.185950  21 N  py        
   182      4.968174  11 C  py              115      4.890719   7 N  pz        

 Vector  192  Occ=0.000000D+00  E= 4.632558D-01
              MO Center= -3.8D-01,  6.4D-01, -2.2D-02, r^2= 2.1D+01
   Bfn.  Coefficient  Atom+Function         Bfn.  Coefficient  Atom+Function  
  ----- ------------  ---------------      ----- ------------  ---------------
   106     12.388301   7 N  s               360    -10.276898  21 N  s         
    63     -9.058753   5 C  px               12      7.710558   2 C  s         
   217     -7.345195  14 C  s               140      6.321126   9 C  s         
   367     -5.781669  21 N  px               45     -5.745454   4 H  s         
   148     -5.138714   9 C  py              182      5.016819  11 C  py        

 Vector  193  Occ=0.000000D+00  E= 4.652154D-01
              MO Center=  6.9D-01, -4.2D-01, -1.6D-01, r^2= 2.2D+01
   Bfn.  Coefficient  Atom+Function         Bfn.  Coefficient  Atom+Function  
  ----- ------------  ---------------      ----- ------------  ---------------
   428     12.935920  25 C  s               174     -8.247356  11 C  s         
   401      7.707365  23 C  px              521     -7.341021  30 N  s         
   564     -7.274195  33 C  s               317     -7.095449  19 C  px        
   360      5.457988  21 N  s               318      5.152709  19 C  py        
   335      4.457062  20 O  s               638      3.962692  36 H  s         

 Vector  194  Occ=0.000000D+00  E= 4.685310D-01
              MO Center= -7.0D-01,  8.3D-01,  2.8D-01, r^2= 2.0D+01
   Bfn.  Coefficient  Atom+Function         Bfn.  Coefficient  Atom+Function  
  ----- ------------  ---------------      ----- ------------  ---------------
   360    -13.833333  21 N  s               174     13.453811  11 C  s         
   318    -13.388983  19 C  py              182    -12.928243  11 C  py        
   471     -7.629990  28 C  s               197     -7.538771  12 H  s         
    13      7.450206   2 C  s               148      7.223700   9 C  py        
   106     -6.849861   7 N  s               206     -6.605874  13 H  s         

 Vector  195  Occ=0.000000D+00  E= 4.749031D-01
              MO Center= -1.3D-01, -3.8D-01,  2.8D-02, r^2= 2.2D+01
   Bfn.  Coefficient  Atom+Function         Bfn.  Coefficient  Atom+Function  
  ----- ------------  ---------------      ----- ------------  ---------------
   564     23.288187  33 C  s               614    -15.386219  35 N  s         
   471    -15.292103  28 C  s               368     14.639924  21 N  py        
   401    -10.930556  23 C  px              394     10.733319  23 C  s         
   182     -8.699874  11 C  py              148      7.914629   9 C  py        
   319     -7.797068  19 C  pz              113     -7.492079   7 N  px        

 Vector  196  Occ=0.000000D+00  E= 4.784841D-01
              MO Center=  2.0D-01,  2.3D-01, -1.1D-01, r^2= 2.4D+01
   Bfn.  Coefficient  Atom+Function         Bfn.  Coefficient  Atom+Function  
  ----- ------------  ---------------      ----- ------------  ---------------
   471     20.552467  28 C  s               318     17.613154  19 C  py        
   428    -17.385064  25 C  s               148     -9.827050   9 C  py        
   182      8.765899  11 C  py              427     -8.566468  25 C  s         
   451      7.892078  26 H  s               460      7.108134  27 H  s         
   368     -5.815853  21 N  py              174     -5.584972  11 C  s         

 Vector  197  Occ=0.000000D+00  E= 4.837660D-01
              MO Center=  1.8D-01, -4.1D-01, -1.4D-01, r^2= 2.1D+01
   Bfn.  Coefficient  Atom+Function         Bfn.  Coefficient  Atom+Function  
  ----- ------------  ---------------      ----- ------------  ---------------
   428     32.127879  25 C  s               217     15.549142  14 C  s         
   564    -15.069931  33 C  s               174    -13.767747  11 C  s         
   318     10.448406  19 C  py              310     -9.516196  19 C  s         
   402      8.551913  23 C  py              147     -8.357801   9 C  px        
   437     -8.131011  25 C  pz              384     -7.951287  22 H  s         

 Vector  198  Occ=0.000000D+00  E= 4.845642D-01
              MO Center=  1.5D-01, -1.0D+00,  4.0D-01, r^2= 2.1D+01
   Bfn.  Coefficient  Atom+Function         Bfn.  Coefficient  Atom+Function  
  ----- ------------  ---------------      ----- ------------  ---------------
   428     22.745970  25 C  s               564    -11.108445  33 C  s         
   427      9.669279  25 C  s               460     -9.187280  27 H  s         
   451     -8.219495  26 H  s               148      7.872841   9 C  py        
   368      7.240092  21 N  py              589      7.186273  34 O  s         
   106     -6.872716   7 N  s               182     -6.681855  11 C  py        

 Vector  199  Occ=0.000000D+00  E= 4.915100D-01
              MO Center= -7.1D-01, -3.4D-02,  1.2D-01, r^2= 2.2D+01
   Bfn.  Coefficient  Atom+Function         Bfn.  Coefficient  Atom+Function  
  ----- ------------  ---------------      ----- ------------  ---------------
   564    -14.903691  33 C  s               174     14.411512  11 C  s         
   318    -11.277817  19 C  py              147     -9.351157   9 C  px        
   182     -9.158816  11 C  py              217      9.109110  14 C  s         
   267     -7.655762  16 N  s                56     -5.941584   5 C  s         
   384      5.967751  22 H  s               368     -5.761927  21 N  py        

 Vector  200  Occ=0.000000D+00  E= 4.932944D-01
              MO Center= -3.2D-01, -9.5D-01,  1.0D-01, r^2= 2.2D+01
   Bfn.  Coefficient  Atom+Function         Bfn.  Coefficient  Atom+Function  
  ----- ------------  ---------------      ----- ------------  ---------------
   471     31.020530  28 C  s               521    -16.515327  30 N  s         
   428    -15.794439  25 C  s               310     10.806440  19 C  s         
   174      9.730769  11 C  s               360     -8.611605  21 N  s         
   496     -8.299789  29 O  s               217     -7.515839  14 C  s         
   140      6.870423   9 C  s               402     -6.666514  23 C  py        

 Vector  201  Occ=0.000000D+00  E= 4.995046D-01
              MO Center= -3.6D-01,  1.5D+00,  4.2D-01, r^2= 2.2D+01
   Bfn.  Coefficient  Atom+Function         Bfn.  Coefficient  Atom+Function  
  ----- ------------  ---------------      ----- ------------  ---------------
   217     25.314092  14 C  s               428     20.410569  25 C  s         
   471    -18.692930  28 C  s                13    -13.372021   2 C  s         
   113    -13.197843   7 N  px              174    -13.111680  11 C  s         
    63    -12.222739   5 C  px              384     10.972666  22 H  s         
   310    -10.431329  19 C  s               242     -9.511779  15 O  s         

 Vector  202  Occ=0.000000D+00  E= 5.036492D-01
              MO Center= -3.5D-01, -5.6D-02, -3.4D-02, r^2= 2.2D+01
   Bfn.  Coefficient  Atom+Function         Bfn.  Coefficient  Atom+Function  
  ----- ------------  ---------------      ----- ------------  ---------------
   471     23.692683  28 C  s               428    -14.526067  25 C  s         
   521     -9.041892  30 N  s               182     -8.954786  11 C  py        
   174      8.755241  11 C  s               106     -8.009555   7 N  s         
   148      7.921927   9 C  py              394     -7.831352  23 C  s         
   384      7.638116  22 H  s                56     -7.271610   5 C  s         


 center of mass
 --------------
 x =   0.03721702 y =   0.00601188 z =  -0.00703094

 moments of inertia (a.u.)
 ------------------
        9014.643722008235          -0.000000000002          -0.000000000001
          -0.000000000002        3401.282444278242           0.000000000002
          -0.000000000001           0.000000000002       10819.163116652680

  Mulliken analysis of the total density
  --------------------------------------

    Atom       Charge   Shell Charges
 -----------   ------   -------------------------------------------------------
    1 H    1     0.85   0.76  0.14 -0.01  0.03 -0.06
    2 C    6     6.00   2.01  0.66  0.11  0.01  2.07  1.01  0.01  0.06  0.08
    3 H    1     0.99   0.76  0.25  0.00  0.03 -0.06
    4 H    1     0.95   0.76  0.20  0.01  0.03 -0.05
    5 C    6     5.20   2.01  0.68  0.10 -0.03  1.89  0.26 -0.02  0.24  0.06
    6 O    8     8.81   2.01  0.82  1.01  0.17  2.80  1.87  0.14  0.02 -0.01
    7 N    7     7.60   2.01  0.72  0.84 -0.05  2.45  1.47  0.08  0.05  0.02
    8 H    1     1.05   0.76  0.24  0.02  0.05 -0.02
    9 C    6     6.02   2.01  0.66 -0.02  0.05  1.99  1.15  0.07  0.13 -0.03
   10 H    1     1.03   0.77  0.23 -0.01  0.03  0.01
   11 C    6     6.75   2.01  0.67  0.70  0.12  2.05  0.87  0.01  0.09  0.23
   12 H    1     0.76   0.78  0.05  0.00  0.03 -0.10
   13 H    1     0.66   0.76 -0.06  0.01  0.03 -0.08
   14 C    6     4.76   2.01  0.68  0.17 -0.03  1.91 -0.12 -0.02  0.24 -0.08
   15 O    8     8.79   2.01  0.82  1.02  0.19  2.80  1.82  0.14  0.02 -0.01
   16 N    7     7.27   2.01  0.72  0.81 -0.10  2.47  1.23  0.10  0.04 -0.01
   17 H    1     0.97   0.76  0.19 -0.01  0.06 -0.03
   18 H    1     0.89   0.73  0.21 -0.01  0.06 -0.09
   19 C    6     4.92   2.01  0.68  0.28  0.05  1.89  0.21 -0.07  0.24 -0.36
   20 O    8     8.86   2.01  0.82  1.04  0.19  2.80  1.87  0.14  0.01 -0.00
   21 N    7     7.45   2.01  0.72  0.82 -0.10  2.45  1.39  0.06  0.05  0.04
   22 H    1     0.84   0.74  0.27 -0.04  0.06 -0.18
   23 C    6     6.47   2.01  0.66  0.10 -0.02  1.99  1.41  0.06  0.14  0.12
   24 H    1     1.00   0.78  0.19 -0.01  0.03  0.01
   25 C    6     6.18   2.01  0.66  0.60  0.01  2.06  0.71 -0.03  0.09  0.08
   26 H    1     1.00   0.77  0.26 -0.00  0.03 -0.06
   27 H    1     0.85   0.78  0.12 -0.00  0.03 -0.07
   28 C    6     4.67   2.01  0.68  0.05  0.01  1.91 -0.11 -0.01  0.24 -0.11
   29 O    8     8.87   2.01  0.81  1.02  0.19  2.81  1.86  0.17  0.02 -0.01
   30 N    7     7.17   2.01  0.72  0.74 -0.14  2.47  1.26  0.09  0.04 -0.03
   31 H    1     1.00   0.76  0.22 -0.01  0.05 -0.03
   32 H    1     0.89   0.73  0.17 -0.01  0.06 -0.06
   33 C    6     4.48   2.01  0.68  0.00  0.09  1.88 -0.15 -0.06  0.24 -0.22
   34 O    8     8.82   2.01  0.82  1.03  0.15  2.80  1.85  0.15  0.01 -0.00
   35 N    7     7.25   2.01  0.72  0.85 -0.17  2.46  1.26  0.10  0.04 -0.01
   36 H    1     0.91   0.73  0.20 -0.01  0.06 -0.06
   37 H    1     1.02   0.75  0.24 -0.00  0.05 -0.03

       Multipole analysis of the density wrt the origin
       ------------------------------------------------

     L   x y z        total         open         nuclear
     -   - - -        -----         ----         -------
     0   0 0 0     -0.000000      0.000000    152.000000

     1   1 0 0     -0.890873      0.000000     -0.000000
     1   0 1 0     -2.040658      0.000000      0.000000
     1   0 0 1      0.000326      0.000000     -0.000000

     2   2 0 0    -89.851079      0.000000   1429.172083
     2   1 1 0     -6.612292      0.000000    -17.151895
     2   1 0 1     -3.555964      0.000000     -2.093802
     2   0 2 0   -106.205059      0.000000   4356.285760
     2   0 1 1     -6.931013      0.000000    -14.561852
     2   0 0 2    -88.870458      0.000000    448.123874


 Task  times  cpu:     5105.5s     wall:     5130.4s


                                NWChem Input Module
                                -------------------


 Summary of allocated global arrays
-----------------------------------
  No active global arrays


MA_summarize_allocated_blocks: starting scan ...
MA_summarize_allocated_blocks: scan completed: 0 heap blocks, 0 stack blocks
MA usage statistics:

	allocation statistics:
					      heap	     stack
					      ----	     -----
	current number of blocks	         0	         0
	maximum number of blocks	        16	        14
	current total bytes		         0	         0
	maximum total bytes		    138352	  29746648
	maximum total K-bytes		       139	     29747
	maximum total M-bytes		         1	        30


                                     CITATION
                                     --------
                Please cite the following reference when publishing
                           results obtained with NWChem:

          E. Apra, E. J. Bylaska, W. A. de Jong, N. Govind, K. Kowalski,
       T. P. Straatsma, M. Valiev, H. J. J. van Dam, Y. Alexeev, J. Anchell,
       V. Anisimov, F. W. Aquino, R. Atta-Fynn, J. Autschbach, N. P. Bauman,
     J. C. Becca, D. E. Bernholdt, K. Bhaskaran-Nair, S. Bogatko, P. Borowski,
         J. Boschen, J. Brabec, A. Bruner, E. Cauet, Y. Chen, G. N. Chuev,
      C. J. Cramer, J. Daily, M. J. O. Deegan, T. H. Dunning Jr., M. Dupuis,
   K. G. Dyall, G. I. Fann, S. A. Fischer, A. Fonari, H. Fruchtl, L. Gagliardi,
      J. Garza, N. Gawande, S. Ghosh, K. Glaesemann, A. W. Gotz, J. Hammond,
       V. Helms, E. D. Hermes, K. Hirao, S. Hirata, M. Jacquelin, L. Jensen,
   B. G. Johnson, H. Jonsson, R. A. Kendall, M. Klemm, R. Kobayashi, V. Konkov,
      S. Krishnamoorthy, M. Krishnan, Z. Lin, R. D. Lins, R. J. Littlefield,
      A. J. Logsdail, K. Lopata, W. Ma, A. V. Marenich, J. Martin del Campo,
   D. Mejia-Rodriguez, J. E. Moore, J. M. Mullin, T. Nakajima, D. R. Nascimento,
    J. A. Nichols, P. J. Nichols, J. Nieplocha, A. Otero-de-la-Roza, B. Palmer,
    A. Panyala, T. Pirojsirikul, B. Peng, R. Peverati, J. Pittner, L. Pollack,
   R. M. Richard, P. Sadayappan, G. C. Schatz, W. A. Shelton, D. W. Silverstein,
   D. M. A. Smith, T. A. Soares, D. Song, M. Swart, H. L. Taylor, G. S. Thomas,
            V. Tipparaju, D. G. Truhlar, K. Tsemekhman, T. Van Voorhis,
      A. Vazquez-Mayagoitia, P. Verma, O. Villa, A. Vishnu, K. D. Vogiatzis,
        D. Wang, J. H. Weare, M. J. Williamson, T. L. Windus, K. Wolinski,
        A. T. Wong, Q. Wu, C. Yang, Q. Yu, M. Zacharias, Z. Zhang, Y. Zhao,
                                and R. J. Harrison
                        "NWChem: Past, present, and future
                         J. Chem. Phys. 152, 184102 (2020)
                               doi:10.1063/5.0004997

                                      AUTHORS
                                      -------
  E. Apra, E. J. Bylaska, N. Govind, K. Kowalski, M. Valiev, D. Mejia-Rodriguez,
       A. Kunitsa, N. P. Bauman, A. Panyala, W. A. de Jong, T. P. Straatsma,
   H. J. J. van Dam, D. Wang, T. L. Windus, J. Hammond, J. Autschbach, A. Woods,
    K. Bhaskaran-Nair, J. Brabec, K. Lopata, S. A. Fischer, S. Krishnamoorthy,
     M. Jacquelin, W. Ma, M. Klemm, O. Villa, Y. Chen, V. Anisimov, F. Aquino,
     S. Hirata, M. T. Hackler, E. Hermes, L. Jensen, J. E. Moore, J. C. Becca,
      V. Konjkov, T. Risthaus, M. Malagoli, A. Marenich, A. Otero-de-la-Roza,
        J. Mullin, P. Nichols, R. Peverati, J. Pittner, Y. Zhao, P.-D. Fan,
        A. Fonari, M. J. Williamson, R. J. Harrison, J. R. Rehr, M. Dupuis,
     D. Silverstein, D. M. A. Smith, J. Nieplocha, V. Tipparaju, M. Krishnan,
     B. E. Van Kuiken, A. Vazquez-Mayagoitia, M. Swart, Q. Wu, T. Van Voorhis,
     A. A. Auer, M. Nooijen, L. D. Crosby, E. Brown, G. Cisneros, G. I. Fann,
   H. Fruchtl, J. Garza, K. Hirao, R. A. Kendall, J. A. Nichols, K. Tsemekhman,
    K. Wolinski, J. Anchell, D. E. Bernholdt, P. Borowski, T. Clark, D. Clerc,
   H. Dachsel, M. J. O. Deegan, K. Dyall, D. Elwood, E. Glendening, M. Gutowski,
   A. C. Hess, J. Jaffe, B. G. Johnson, J. Ju, R. Kobayashi, R. Kutteh, Z. Lin,
   R. Littlefield, X. Long, B. Meng, T. Nakajima, S. Niu, L. Pollack, M. Rosing,
   K. Glaesemann, G. Sandrone, M. Stave, H. Taylor, G. Thomas, J. H. van Lenthe,
                               A. T. Wong, Z. Zhang.

 Total times  cpu:     5105.5s     wall:     5131.0s
