export TMOUT=5400
export TMPDIR=/tmp
export PTMPDIR=/tmp/ptmp
 argument  1 = inputs/ASN_CYS_3.nw



============================== echo of input deck ==============================
start ASN_CYS_3
geometry
H          6.88400        7.97900        4.76900
C          6.95500        6.91400        4.98400
H          6.15000        6.62300        5.65800
H          7.91600        6.69300        5.44700
C          6.82900        6.13300        3.69800
O          5.94200        5.29800        3.56600
N          7.74100        6.38000        2.75800
H          8.45600        7.06400        2.97200
C          7.79700        5.77000        1.41700
H          6.79200        5.81400        0.99300
C          8.71600        6.63800        0.53700
H          8.76000        6.23000       -0.47300
H          8.30700        7.64600        0.47200
C         10.12000        6.73500        1.10300
O         10.43300        7.62800        1.86900
N         10.98000        5.79400        0.79900
H         10.65400        4.98300        0.29000
H         11.89600        5.86500        1.20000
C          8.19300        4.26800        1.40100
O          8.89800        3.80800        0.50300
N          7.77000        3.51500        2.41400
H          7.20800        3.98200        3.11400
C          8.07200        2.10100        2.64000
H          8.20900        1.60600        1.67700
C          9.39100        2.00900        3.42500
H          9.60600        0.95800        3.63400
H         10.20000        2.41900        2.81900
S          9.27800        2.92900        4.99300
H         10.45400        2.53900        5.49900
C          6.93600        1.34600        3.36300
O          7.01100        0.13500        3.52500
N          5.86800        2.01200        3.79600
H          5.79300        3.01000        3.67000
H          5.14600        1.49200        4.26600
end

basis
 * library aug-cc-pvdz
end

echo

scf
 direct
end

task scf energy
================================================================================


                                         
                                         


             Northwest Computational Chemistry Package (NWChem) 7.2.0
             --------------------------------------------------------


                    Environmental Molecular Sciences Laboratory
                       Pacific Northwest National Laboratory
                                Richland, WA 99352

                              Copyright (c) 1994-2022
                       Pacific Northwest National Laboratory
                            Battelle Memorial Institute

             NWChem is an open-source computational chemistry package
                        distributed under the terms of the
                      Educational Community License (ECL) 2.0
             A copy of the license is included with this distribution
                              in the LICENSE.TXT file

                                  ACKNOWLEDGMENT
                                  --------------

            This software and its documentation were developed at the
            EMSL at Pacific Northwest National Laboratory, a multiprogram
            national laboratory, operated for the U.S. Department of Energy
            by Battelle under Contract Number DE-AC05-76RL01830. Support
            for this work was provided by the Department of Energy Office
            of Biological and Environmental Research, Office of Basic
            Energy Sciences, and the Office of Advanced Scientific Computing.


           Job information
           ---------------

    hostname        = nova21-swift-4
    program         = /opt/rit/el9/20230413/app/linux-rhel9-x86_64_v3/gcc-11.2.1/nwchem-7.2.0-oxtctbuhfuzyfaoziquq6bki22grib3g/bin/nwchem
    date            = Thu Jul 10 03:59:43 2025

    compiled        = Wed_May_17_23:46:39_2023
    source          = /tmp/root/spack-stage/spack-stage-nwchem-7.2.0-oxtctbuhfuzyfaoziquq6bki22grib3g/spack-src
    nwchem branch   = 7.2.0
    nwchem revision = d0d141fd
    ga revision     = 5.8.0
    use scalapack   = T
    input           = inputs/ASN_CYS_3.nw
    prefix          = ASN_CYS_3.
    data base       = ./ASN_CYS_3.db
    status          = startup
    nproc           =        8
    time left       =     -1s



           Memory information
           ------------------

    heap     =   26214400 doubles =    200.0 Mbytes
    stack    =   26214397 doubles =    200.0 Mbytes
    global   =   52428800 doubles =    400.0 Mbytes (distinct from heap & stack)
    total    =  104857597 doubles =    800.0 Mbytes
    verify   = yes
    hardfail = no 


           Directory information
           ---------------------

  0 permanent = .
  0 scratch   = .




                                NWChem Input Module
                                -------------------



 Scaling coordinates for geometry "geometry" by  1.889725989
 (inverse scale =  0.529177249)

 C1  symmetry detected

          ------
          auto-z
          ------
  no constraints, skipping    0.0000000000000000     
  no constraints, skipping    0.0000000000000000     


                             Geometry "geometry" -> ""
                             -------------------------

 Output coordinates in angstroms (scale by  1.889725989 to convert to a.u.)

  No.       Tag          Charge          X              Y              Z
 ---- ---------------- ---------- -------------- -------------- --------------
    1 H                    1.0000    -3.82558858     1.93432998     0.87358838
    2 C                    6.0000    -3.36549639     0.95429723     0.98909590
    3 H                    1.0000    -4.13078919     0.18158512     0.92409646
    4 H                    1.0000    -2.86518501     0.89163502     1.95475265
    5 C                    6.0000    -2.35433802     0.74178618    -0.11182681
    6 O                    8.0000    -2.46076293    -0.21212321    -0.87350168
    7 N                    7.0000    -1.34920453     1.61471018    -0.17557138
    8 H                    1.0000    -1.32797233     2.35107563     0.51882916
    9 C                    6.0000    -0.27094484     1.62967595    -1.18088181
   10 H                    1.0000    -0.73401351     1.51025916    -2.16222988
   11 C                    6.0000     0.39652792     3.01726567    -1.14267339
   12 H                    1.0000     1.18423775     3.07350224    -1.89423887
   13 H                    1.0000    -0.34429525     3.78100035    -1.37817366
   14 C                    6.0000     0.97895958     3.33110466     0.22233923
   15 O                    8.0000     0.32313655     3.90325367     1.07364157
   16 N                    7.0000     2.19165216     2.91406000     0.49242709
   17 H                    1.0000     2.65669804     2.30819621    -0.17070141
   18 H                    1.0000     2.55036632     3.11309017     1.40709049
   19 C                    6.0000     0.75177960     0.46712555    -1.05603275
   20 O                    8.0000     1.94722759     0.64712573    -1.28740484
   21 N                    7.0000     0.28663124    -0.71380373    -0.65459779
   22 H                    1.0000    -0.70759916    -0.76455848    -0.47331662
   23 C                    6.0000     1.06949977    -1.92505853    -0.40629418
   24 H                    1.0000     1.93711081    -1.93235635    -1.06838241
   25 C                    6.0000     1.56875415    -1.88706744     1.04758056
   26 H                    1.0000     2.12175632    -2.80642031     1.25611328
   27 H                    1.0000     2.24008129    -1.03692744     1.17563853
   28 S                   16.0000     0.17309464    -1.74144475     2.20892528
   29 H                    1.0000     0.87819021    -1.89764311     3.33567029
   30 C                    6.0000     0.28643644    -3.22358658    -0.69592622
   31 O                    8.0000     0.85107058    -4.30762798    -0.62934906
   32 N                    7.0000    -0.99964085    -3.16098569    -1.03320257
   33 H                    1.0000    -1.47793522    -2.27478072    -1.09134261
   34 H                    1.0000    -1.48308643    -4.02501855    -1.21295680

      Atomic Mass 
      ----------- 

      H                  1.007825
      C                 12.000000
      O                 15.994910
      N                 14.003070
      S                 31.972070


 Effective nuclear repulsion energy (a.u.)    1587.8114902351

            Nuclear Dipole moment (a.u.) 
            ----------------------------
        X                 Y               Z
 ---------------- ---------------- ----------------
    -0.0000000000    -0.0000000000     0.0000000000



                                Z-matrix (autoz)
                                -------- 

 Units are Angstrom for bonds and degrees for angles

      Type          Name      I     J     K     L     M      Value
      ----------- --------  ----- ----- ----- ----- ----- ----------
    1 Stretch                  1     2                       1.08880
    2 Stretch                  2     3                       1.08949
    3 Stretch                  2     4                       1.08937
    4 Stretch                  2     5                       1.50985
    5 Stretch                  5     6                       1.22532
    6 Stretch                  5     7                       1.33280
    7 Stretch                  7     8                       1.01236
    8 Stretch                  7     9                       1.47429
    9 Stretch                  9    10                       1.09167
   10 Stretch                  9    11                       1.54025
   11 Stretch                  9    19                       1.55341
   12 Stretch                 11    12                       1.09018
   13 Stretch                 11    13                       1.08976
   14 Stretch                 11    14                       1.51690
   15 Stretch                 14    15                       1.21745
   16 Stretch                 14    16                       1.31053
   17 Stretch                 16    17                       1.01147
   18 Stretch                 16    18                       1.00245
   19 Stretch                 19    20                       1.23087
   20 Stretch                 19    21                       1.33121
   21 Stretch                 21    22                       1.01190
   22 Stretch                 21    23                       1.46345
   23 Stretch                 23    24                       1.09140
   24 Stretch                 23    25                       1.53768
   25 Stretch                 23    30                       1.54378
   26 Stretch                 25    26                       1.09294
   27 Stretch                 25    27                       1.09079
   28 Stretch                 25    28                       1.82148
   29 Stretch                 28    29                       1.33832
   30 Stretch                 30    31                       1.22409
   31 Stretch                 30    32                       1.33104
   32 Stretch                 32    33                       1.00871
   33 Stretch                 32    34                       1.00627
   34 Bend                     1     2     3               109.58694
   35 Bend                     1     2     4               109.86985
   36 Bend                     1     2     5               109.41040
   37 Bend                     2     5     6               120.30890
   38 Bend                     2     5     7               116.59956
   39 Bend                     3     2     4               109.55384
   40 Bend                     3     2     5               109.09276
   41 Bend                     4     2     5               109.31028
   42 Bend                     5     7     8               117.34892
   43 Bend                     5     7     9               126.21611
   44 Bend                     6     5     7               123.06920
   45 Bend                     7     9    10               107.55598
   46 Bend                     7     9    11               108.00944
   47 Bend                     7     9    19               114.77897
   48 Bend                     8     7     9               116.42363
   49 Bend                     9    11    12               110.02852
   50 Bend                     9    11    13               109.35439
   51 Bend                     9    11    14               112.03061
   52 Bend                     9    19    20               120.98940
   53 Bend                     9    19    21               117.26404
   54 Bend                    10     9    11               107.73820
   55 Bend                    10     9    19               105.64381
   56 Bend                    11     9    19               112.76221
   57 Bend                    11    14    15               121.30768
   58 Bend                    11    14    16               118.35361
   59 Bend                    12    11    13               107.82195
   60 Bend                    12    11    14               109.40609
   61 Bend                    13    11    14               108.08856
   62 Bend                    14    16    17               118.74720
   63 Bend                    14    16    18               117.12832
   64 Bend                    15    14    16               120.25932
   65 Bend                    17    16    18               123.54548
   66 Bend                    19    21    22               116.22127
   67 Bend                    19    21    23               126.76136
   68 Bend                    20    19    21               121.72079
   69 Bend                    21    23    24               109.13910
   70 Bend                    21    23    25               108.28006
   71 Bend                    21    23    30               113.14174
   72 Bend                    22    21    23               116.98123
   73 Bend                    23    25    26               108.89901
   74 Bend                    23    25    27               109.27381
   75 Bend                    23    25    28               110.85673
   76 Bend                    23    30    31               120.04803
   77 Bend                    23    30    32               119.87327
   78 Bend                    24    23    25               108.39933
   79 Bend                    24    23    30               106.48662
   80 Bend                    25    23    30               111.27596
   81 Bend                    25    28    29                97.10977
   82 Bend                    26    25    27               108.77141
   83 Bend                    26    25    28               109.46866
   84 Bend                    27    25    28               109.53676
   85 Bend                    30    32    33               120.93527
   86 Bend                    30    32    34               117.97485
   87 Bend                    31    30    32               120.07413
   88 Bend                    33    32    34               121.08202
   89 Torsion                  1     2     5     6        -121.90690
   90 Torsion                  1     2     5     7          59.76005
   91 Torsion                  2     5     7     8           0.51561
   92 Torsion                  2     5     7     9        -178.21015
   93 Torsion                  3     2     5     6          -2.03282
   94 Torsion                  3     2     5     7         179.63413
   95 Torsion                  4     2     5     6         117.74083
   96 Torsion                  4     2     5     7         -60.59221
   97 Torsion                  5     7     9    10          46.77920
   98 Torsion                  5     7     9    11         162.81091
   99 Torsion                  5     7     9    19         -70.45018
  100 Torsion                  6     5     7     8        -177.76708
  101 Torsion                  6     5     7     9           3.50715
  102 Torsion                  7     9    11    12        -178.50388
  103 Torsion                  7     9    11    13         -60.25383
  104 Torsion                  7     9    11    14          59.55730
  105 Torsion                  7     9    19    20        -143.31861
  106 Torsion                  7     9    19    21          34.86610
  107 Torsion                  8     7     9    10        -131.95696
  108 Torsion                  8     7     9    11         -15.92525
  109 Torsion                  8     7     9    19         110.81366
  110 Torsion                  9    11    14    15         -90.89468
  111 Torsion                  9    11    14    16          85.87279
  112 Torsion                  9    19    21    22           0.83165
  113 Torsion                  9    19    21    23        -176.90215
  114 Torsion                 10     9    11    12         -62.59117
  115 Torsion                 10     9    11    13          55.65888
  116 Torsion                 10     9    11    14         175.47001
  117 Torsion                 10     9    19    20          98.36942
  118 Torsion                 10     9    19    21         -83.44587
  119 Torsion                 11     9    19    20         -19.05683
  120 Torsion                 11     9    19    21         159.12788
  121 Torsion                 11    14    16    17          -7.03426
  122 Torsion                 11    14    16    18        -178.62261
  123 Torsion                 12    11     9    19          53.59203
  124 Torsion                 12    11    14    15         146.81111
  125 Torsion                 12    11    14    16         -36.42142
  126 Torsion                 13    11     9    19         171.84208
  127 Torsion                 13    11    14    15          29.65413
  128 Torsion                 13    11    14    16        -153.57840
  129 Torsion                 14    11     9    19         -68.34679
  130 Torsion                 15    14    16    17         169.76829
  131 Torsion                 15    14    16    18          -1.82005
  132 Torsion                 19    21    23    24         -30.66827
  133 Torsion                 19    21    23    25          87.13924
  134 Torsion                 19    21    23    30        -149.02816
  135 Torsion                 20    19    21    22         179.00218
  136 Torsion                 20    19    21    23           1.26838
  137 Torsion                 21    23    25    26         177.77760
  138 Torsion                 21    23    25    27         -63.53432
  139 Torsion                 21    23    25    28          57.28532
  140 Torsion                 21    23    30    31         174.41341
  141 Torsion                 21    23    30    32          -4.80998
  142 Torsion                 22    21    23    24         151.61304
  143 Torsion                 22    21    23    25         -90.57945
  144 Torsion                 22    21    23    30          33.25315
  145 Torsion                 23    25    28    29         172.87719
  146 Torsion                 23    30    32    33          -0.82344
  147 Torsion                 23    30    32    34        -179.81408
  148 Torsion                 24    23    25    26         -63.94294
  149 Torsion                 24    23    25    27          54.74514
  150 Torsion                 24    23    25    28         175.56478
  151 Torsion                 24    23    30    31          54.52366
  152 Torsion                 24    23    30    32        -124.69973
  153 Torsion                 25    23    30    31         -63.41294
  154 Torsion                 25    23    30    32         117.36367
  155 Torsion                 26    25    23    30          52.83198
  156 Torsion                 26    25    28    29          52.72377
  157 Torsion                 27    25    23    30         171.52006
  158 Torsion                 27    25    28    29         -66.45891
  159 Torsion                 28    25    23    30         -67.66030
  160 Torsion                 31    30    32    33         179.95337
  161 Torsion                 31    30    32    34           0.96274


            XYZ format geometry
            -------------------
    34
 geometry
 H                    -3.82558858     1.93432998     0.87358838
 C                    -3.36549639     0.95429723     0.98909590
 H                    -4.13078919     0.18158512     0.92409646
 H                    -2.86518501     0.89163502     1.95475265
 C                    -2.35433802     0.74178618    -0.11182681
 O                    -2.46076293    -0.21212321    -0.87350168
 N                    -1.34920453     1.61471018    -0.17557138
 H                    -1.32797233     2.35107563     0.51882916
 C                    -0.27094484     1.62967595    -1.18088181
 H                    -0.73401351     1.51025916    -2.16222988
 C                     0.39652792     3.01726567    -1.14267339
 H                     1.18423775     3.07350224    -1.89423887
 H                    -0.34429525     3.78100035    -1.37817366
 C                     0.97895958     3.33110466     0.22233923
 O                     0.32313655     3.90325367     1.07364157
 N                     2.19165216     2.91406000     0.49242709
 H                     2.65669804     2.30819621    -0.17070141
 H                     2.55036632     3.11309017     1.40709049
 C                     0.75177960     0.46712555    -1.05603275
 O                     1.94722759     0.64712573    -1.28740484
 N                     0.28663124    -0.71380373    -0.65459779
 H                    -0.70759916    -0.76455848    -0.47331662
 C                     1.06949977    -1.92505853    -0.40629418
 H                     1.93711081    -1.93235635    -1.06838241
 C                     1.56875415    -1.88706744     1.04758056
 H                     2.12175632    -2.80642031     1.25611328
 H                     2.24008129    -1.03692744     1.17563853
 S                     0.17309464    -1.74144475     2.20892528
 H                     0.87819021    -1.89764311     3.33567029
 C                     0.28643644    -3.22358658    -0.69592622
 O                     0.85107058    -4.30762798    -0.62934906
 N                    -0.99964085    -3.16098569    -1.03320257
 H                    -1.47793522    -2.27478072    -1.09134261
 H                    -1.48308643    -4.02501855    -1.21295680

 ==============================================================================
                                internuclear distances
 ------------------------------------------------------------------------------
       center one      |      center two      | atomic units |  angstroms
 ------------------------------------------------------------------------------
    2 C                |   1 H                |     2.05754  |     1.08880
    3 H                |   2 C                |     2.05883  |     1.08949
    4 H                |   2 C                |     2.05861  |     1.08937
    5 C                |   2 C                |     2.85319  |     1.50985
    6 O                |   5 C                |     2.31553  |     1.22532
    7 N                |   5 C                |     2.51862  |     1.33280
    8 H                |   7 N                |     1.91309  |     1.01236
    9 C                |   7 N                |     2.78600  |     1.47429
   10 H                |   9 C                |     2.06295  |     1.09167
   11 C                |   9 C                |     2.91066  |     1.54025
   12 H                |  11 C                |     2.06015  |     1.09018
   13 H                |  11 C                |     2.05934  |     1.08976
   14 C                |  11 C                |     2.86652  |     1.51690
   15 O                |  14 C                |     2.30064  |     1.21745
   16 N                |  14 C                |     2.47655  |     1.31053
   17 H                |  16 N                |     1.91141  |     1.01147
   18 H                |  16 N                |     1.89435  |     1.00245
   19 C                |   9 C                |     2.93552  |     1.55341
   20 O                |  19 C                |     2.32600  |     1.23087
   21 N                |  19 C                |     2.51561  |     1.33121
   22 H                |  21 N                |     1.91221  |     1.01190
   23 C                |  21 N                |     2.76551  |     1.46345
   24 H                |  23 C                |     2.06245  |     1.09140
   25 C                |  23 C                |     2.90579  |     1.53768
   26 H                |  25 C                |     2.06535  |     1.09294
   27 H                |  25 C                |     2.06129  |     1.09079
   28 S                |  25 C                |     3.44210  |     1.82148
   29 H                |  28 S                |     2.52907  |     1.33832
   30 C                |  23 C                |     2.91732  |     1.54378
   31 O                |  30 C                |     2.31319  |     1.22409
   32 N                |  30 C                |     2.51530  |     1.33104
   33 H                |  32 N                |     1.90619  |     1.00871
   34 H                |  32 N                |     1.90158  |     1.00627
 ------------------------------------------------------------------------------
                         number of included internuclear distances:         33
 ==============================================================================



 ==============================================================================
                                 internuclear angles
 ------------------------------------------------------------------------------
        center 1       |       center 2       |       center 3       |  degrees
 ------------------------------------------------------------------------------
    1 H                |   2 C                |   3 H                |   109.59
    1 H                |   2 C                |   4 H                |   109.87
    1 H                |   2 C                |   5 C                |   109.41
    3 H                |   2 C                |   4 H                |   109.55
    3 H                |   2 C                |   5 C                |   109.09
    4 H                |   2 C                |   5 C                |   109.31
    2 C                |   5 C                |   6 O                |   120.31
    2 C                |   5 C                |   7 N                |   116.60
    6 O                |   5 C                |   7 N                |   123.07
    5 C                |   7 N                |   8 H                |   117.35
    5 C                |   7 N                |   9 C                |   126.22
    8 H                |   7 N                |   9 C                |   116.42
    7 N                |   9 C                |  10 H                |   107.56
    7 N                |   9 C                |  11 C                |   108.01
    7 N                |   9 C                |  19 C                |   114.78
   10 H                |   9 C                |  11 C                |   107.74
   10 H                |   9 C                |  19 C                |   105.64
   11 C                |   9 C                |  19 C                |   112.76
    9 C                |  11 C                |  12 H                |   110.03
    9 C                |  11 C                |  13 H                |   109.35
    9 C                |  11 C                |  14 C                |   112.03
   12 H                |  11 C                |  13 H                |   107.82
   12 H                |  11 C                |  14 C                |   109.41
   13 H                |  11 C                |  14 C                |   108.09
   11 C                |  14 C                |  15 O                |   121.31
   11 C                |  14 C                |  16 N                |   118.35
   15 O                |  14 C                |  16 N                |   120.26
   14 C                |  16 N                |  17 H                |   118.75
   14 C                |  16 N                |  18 H                |   117.13
   17 H                |  16 N                |  18 H                |   123.55
    9 C                |  19 C                |  20 O                |   120.99
    9 C                |  19 C                |  21 N                |   117.26
   20 O                |  19 C                |  21 N                |   121.72
   19 C                |  21 N                |  22 H                |   116.22
   19 C                |  21 N                |  23 C                |   126.76
   22 H                |  21 N                |  23 C                |   116.98
   21 N                |  23 C                |  24 H                |   109.14
   21 N                |  23 C                |  25 C                |   108.28
   21 N                |  23 C                |  30 C                |   113.14
   24 H                |  23 C                |  25 C                |   108.40
   24 H                |  23 C                |  30 C                |   106.49
   25 C                |  23 C                |  30 C                |   111.28
   23 C                |  25 C                |  26 H                |   108.90
   23 C                |  25 C                |  27 H                |   109.27
   23 C                |  25 C                |  28 S                |   110.86
   26 H                |  25 C                |  27 H                |   108.77
   26 H                |  25 C                |  28 S                |   109.47
   27 H                |  25 C                |  28 S                |   109.54
   25 C                |  28 S                |  29 H                |    97.11
   23 C                |  30 C                |  31 O                |   120.05
   23 C                |  30 C                |  32 N                |   119.87
   31 O                |  30 C                |  32 N                |   120.07
   30 C                |  32 N                |  33 H                |   120.94
   30 C                |  32 N                |  34 H                |   117.97
   33 H                |  32 N                |  34 H                |   121.08
 ------------------------------------------------------------------------------
                            number of included internuclear angles:         55
 ==============================================================================



  library name resolved from: environment
  library file name is: </opt/rit/el9/20230413/app/linux-rhel9-x86_64_v3/gcc-11.2.1/nwchem-7.2.0-oxtctbuhfuzyfaoziquq6bki22grib3g/share/nwchem/libraries/>
  


 Summary of "ao basis" -> "" (cartesian)
 ------------------------------------------------------------------------------
       Tag                 Description            Shells   Functions and Types
 ---------------- ------------------------------  ------  ---------------------
 *                        aug-cc-pvdz                 on all atoms 


                      Basis "ao basis" -> "ao basis" (cartesian)
                      -----
  H (Hydrogen)
  ------------
            Exponent  Coefficients 
       -------------- ---------------------------------------------------------
  1 S  1.30100000E+01  0.019685
  1 S  1.96200000E+00  0.137977
  1 S  4.44600000E-01  0.478148

  2 S  1.22000000E-01  1.000000

  3 S  2.97400000E-02  1.000000

  4 P  7.27000000E-01  1.000000

  5 P  1.41000000E-01  1.000000

  C (Carbon)
  ----------
            Exponent  Coefficients 
       -------------- ---------------------------------------------------------
  1 S  6.66500000E+03  0.000692
  1 S  1.00000000E+03  0.005329
  1 S  2.28000000E+02  0.027077
  1 S  6.47100000E+01  0.101718
  1 S  2.10600000E+01  0.274740
  1 S  7.49500000E+00  0.448564
  1 S  2.79700000E+00  0.285074
  1 S  5.21500000E-01  0.015204

  2 S  6.66500000E+03 -0.000146
  2 S  1.00000000E+03 -0.001154
  2 S  2.28000000E+02 -0.005725
  2 S  6.47100000E+01 -0.023312
  2 S  2.10600000E+01 -0.063955
  2 S  7.49500000E+00 -0.149981
  2 S  2.79700000E+00 -0.127262
  2 S  5.21500000E-01  0.544529

  3 S  1.59600000E-01  1.000000

  4 S  4.69000000E-02  1.000000

  5 P  9.43900000E+00  0.038109
  5 P  2.00200000E+00  0.209480
  5 P  5.45600000E-01  0.508557

  6 P  1.51700000E-01  1.000000

  7 P  4.04100000E-02  1.000000

  8 D  5.50000000E-01  1.000000

  9 D  1.51000000E-01  1.000000

  O (Oxygen)
  ----------
            Exponent  Coefficients 
       -------------- ---------------------------------------------------------
  1 S  1.17200000E+04  0.000710
  1 S  1.75900000E+03  0.005470
  1 S  4.00800000E+02  0.027837
  1 S  1.13700000E+02  0.104800
  1 S  3.70300000E+01  0.283062
  1 S  1.32700000E+01  0.448719
  1 S  5.02500000E+00  0.270952
  1 S  1.01300000E+00  0.015458

  2 S  1.17200000E+04 -0.000160
  2 S  1.75900000E+03 -0.001263
  2 S  4.00800000E+02 -0.006267
  2 S  1.13700000E+02 -0.025716
  2 S  3.70300000E+01 -0.070924
  2 S  1.32700000E+01 -0.165411
  2 S  5.02500000E+00 -0.116955
  2 S  1.01300000E+00  0.557368

  3 S  3.02300000E-01  1.000000

  4 S  7.89600000E-02  1.000000

  5 P  1.77000000E+01  0.043018
  5 P  3.85400000E+00  0.228913
  5 P  1.04600000E+00  0.508728

  6 P  2.75300000E-01  1.000000

  7 P  6.85600000E-02  1.000000

  8 D  1.18500000E+00  1.000000

  9 D  3.32000000E-01  1.000000

  N (Nitrogen)
  ------------
            Exponent  Coefficients 
       -------------- ---------------------------------------------------------
  1 S  9.04600000E+03  0.000700
  1 S  1.35700000E+03  0.005389
  1 S  3.09300000E+02  0.027406
  1 S  8.77300000E+01  0.103207
  1 S  2.85600000E+01  0.278723
  1 S  1.02100000E+01  0.448540
  1 S  3.83800000E+00  0.278238
  1 S  7.46600000E-01  0.015440

  2 S  9.04600000E+03 -0.000153
  2 S  1.35700000E+03 -0.001208
  2 S  3.09300000E+02 -0.005992
  2 S  8.77300000E+01 -0.024544
  2 S  2.85600000E+01 -0.067459
  2 S  1.02100000E+01 -0.158078
  2 S  3.83800000E+00 -0.121831
  2 S  7.46600000E-01  0.549003

  3 S  2.24800000E-01  1.000000

  4 S  6.12400000E-02  1.000000

  5 P  1.35500000E+01  0.039919
  5 P  2.91700000E+00  0.217169
  5 P  7.97300000E-01  0.510319

  6 P  2.18500000E-01  1.000000

  7 P  5.61100000E-02  1.000000

  8 D  8.17000000E-01  1.000000

  9 D  2.30000000E-01  1.000000

  S (Sulphur)
  -----------
            Exponent  Coefficients 
       -------------- ---------------------------------------------------------
  1 S  1.10800000E+05  0.000248
  1 S  1.66100000E+04  0.001920
  1 S  3.78100000E+03  0.009962
  1 S  1.07100000E+03  0.040298
  1 S  3.49800000E+02  0.128604
  1 S  1.26300000E+02  0.303480
  1 S  4.92600000E+01  0.421432
  1 S  2.01600000E+01  0.230781
  1 S  5.72000000E+00  0.017897
  1 S  2.18200000E+00 -0.002975
  1 S  4.32700000E-01  0.000850

  2 S  1.10800000E+05 -0.000069
  2 S  1.66100000E+04 -0.000528
  2 S  3.78100000E+03 -0.002797
  2 S  1.07100000E+03 -0.011265
  2 S  3.49800000E+02 -0.038883
  2 S  1.26300000E+02 -0.099503
  2 S  4.92600000E+01 -0.199740
  2 S  2.01600000E+01 -0.123360
  2 S  5.72000000E+00  0.513194
  2 S  2.18200000E+00  0.607120
  2 S  4.32700000E-01  0.039675

  3 S  1.10800000E+05  0.000020
  3 S  1.66100000E+04  0.000153
  3 S  3.78100000E+03  0.000810
  3 S  1.07100000E+03  0.003290
  3 S  3.49800000E+02  0.011297
  3 S  1.26300000E+02  0.029639
  3 S  4.92600000E+01  0.059985
  3 S  2.01600000E+01  0.041325
  3 S  5.72000000E+00 -0.207474
  3 S  2.18200000E+00 -0.392889
  3 S  4.32700000E-01  0.632840

  4 S  1.57000000E-01  1.000000

  5 S  5.07000000E-02  1.000000

  6 P  3.99700000E+02  0.004475
  6 P  9.41900000E+01  0.034171
  6 P  2.97500000E+01  0.144250
  6 P  1.07700000E+01  0.353928
  6 P  4.11900000E+00  0.459085
  6 P  1.62500000E+00  0.206383
  6 P  4.72600000E-01  0.010214

  7 P  3.99700000E+02 -0.001163
  7 P  9.41900000E+01 -0.008657
  7 P  2.97500000E+01 -0.039089
  7 P  1.07700000E+01 -0.093463
  7 P  4.11900000E+00 -0.147994
  7 P  1.62500000E+00  0.030190
  7 P  4.72600000E-01  0.561573

  8 P  1.40700000E-01  1.000000

  9 P  3.99000000E-02  1.000000

 10 D  4.79000000E-01  1.000000

 11 D  1.52000000E-01  1.000000



 Summary of "ao basis" -> "ao basis" (cartesian)
 ------------------------------------------------------------------------------
       Tag                 Description            Shells   Functions and Types
 ---------------- ------------------------------  ------  ---------------------
 H                        aug-cc-pvdz                5        9   3s2p
 C                        aug-cc-pvdz                9       25   4s3p2d
 O                        aug-cc-pvdz                9       25   4s3p2d
 N                        aug-cc-pvdz                9       25   4s3p2d
 S                        aug-cc-pvdz               11       29   5s4p2d


                                 NWChem SCF Module
                                 -----------------



  ao basis        = "ao basis"
  functions       =   598
  atoms           =    34
  closed shells   =    73
  open shells     =     0
  charge          =   0.00
  wavefunction    = RHF 
  input vectors   = atomic
  output vectors  = ./ASN_CYS_3.movecs
  use symmetry    = F
  symmetry adapt  = F


 Summary of "ao basis" -> "ao basis" (cartesian)
 ------------------------------------------------------------------------------
       Tag                 Description            Shells   Functions and Types
 ---------------- ------------------------------  ------  ---------------------
 H                        aug-cc-pvdz                5        9   3s2p
 C                        aug-cc-pvdz                9       25   4s3p2d
 O                        aug-cc-pvdz                9       25   4s3p2d
 N                        aug-cc-pvdz                9       25   4s3p2d
 S                        aug-cc-pvdz               11       29   5s4p2d



 Forming initial guess at       0.6s


 !! The overlap matrix has   3 vectors deemed linearly dependent with
    eigenvalues:
 3.33D-06 4.74D-06 7.59D-06


      Superposition of Atomic Density Guess
      -------------------------------------

 Sum of atomic energies:       -1260.74949013

      Non-variational initial energy
      ------------------------------

 Total energy =   -1271.929490
 1-e energy   =   -4882.632992
 2-e energy   =    2022.892011
 HOMO         =      -0.285628
 LUMO         =       0.006322


 Starting SCF solution at     226.2s



 ----------------------------------------------
         Quadratically convergent ROHF

 Convergence threshold     :          1.000E-04
 Maximum no. of iterations :           30
 Final Fock-matrix accuracy:          1.000E-10
 ----------------------------------------------


              iter       energy          gnorm     gmax       time
             ----- ------------------- --------- --------- --------
                 1    -1264.6832035834  2.66D+00  1.58D-01    466.5
                 2    -1265.0559616969  8.65D-01  3.79D-02    951.2
                 3    -1265.1226492200  7.12D-02  4.32D-03   1638.6
                 4    -1265.1234177118  4.60D-03  4.37D-04   2549.1
                 5    -1265.1234217333  1.05D-05  7.67D-07   4128.0


       Final RHF  results 
       ------------------ 

         Total SCF energy =  -1265.123421733340
      One-electron energy =  -4893.757179947326
      Two-electron energy =   2040.822267978846
 Nuclear repulsion energy =   1587.811490235140

        Time for solution =   3902.9s


             Final eigenvalues
             -----------------

              1      
    1  -91.9658
    2  -20.5589
    3  -20.5515
    4  -20.5341
    5  -20.5264
    6  -15.6250
    7  -15.6105
    8  -15.5967
    9  -15.5958
   10  -11.3866
   11  -11.3851
   12  -11.3662
   13  -11.3645
   14  -11.3324
   15  -11.3142
   16  -11.2832
   17  -11.2737
   18  -11.2595
   19   -8.9674
   20   -6.6498
   21   -6.6485
   22   -6.6463
   23   -1.4260
   24   -1.4111
   25   -1.4042
   26   -1.3894
   27   -1.2773
   28   -1.2654
   29   -1.2333
   30   -1.2186
   31   -1.1007
   32   -1.0811
   33   -1.0196
   34   -0.9910
   35   -0.9375
   36   -0.8722
   37   -0.8415
   38   -0.8205
   39   -0.8069
   40   -0.7962
   41   -0.7657
   42   -0.7478
   43   -0.7306
   44   -0.7077
   45   -0.7044
   46   -0.6902
   47   -0.6664
   48   -0.6626
   49   -0.6418
   50   -0.6324
   51   -0.6271
   52   -0.6165
   53   -0.6051
   54   -0.5982
   55   -0.5930
   56   -0.5804
   57   -0.5765
   58   -0.5627
   59   -0.5596
   60   -0.5564
   61   -0.5454
   62   -0.5403
   63   -0.5177
   64   -0.4716
   65   -0.4680
   66   -0.4551
   67   -0.4424
   68   -0.4338
   69   -0.4207
   70   -0.4184
   71   -0.4143
   72   -0.4034
   73   -0.3655
   74    0.0268
   75    0.0334
   76    0.0363
   77    0.0432
   78    0.0489
   79    0.0531
   80    0.0559
   81    0.0592
   82    0.0625
   83    0.0735

                       ROHF Final Molecular Orbital Analysis
                       -------------------------------------

 Vector   23  Occ=2.000000D+00  E=-1.425959D+00
              MO Center= -1.9D+00,  3.0D-01, -6.2D-01, r^2= 2.4D+00
   Bfn.  Coefficient  Atom+Function         Bfn.  Coefficient  Atom+Function  
  ----- ------------  ---------------      ----- ------------  ---------------
    80      0.335160   6 O  s                79      0.329356   6 O  s         
    54      0.226909   5 C  s                12      0.178147   2 C  s         

 Vector   24  Occ=2.000000D+00  E=-1.411101D+00
              MO Center=  9.0D-01,  6.9D-01, -9.0D-01, r^2= 3.8D+00
   Bfn.  Coefficient  Atom+Function         Bfn.  Coefficient  Atom+Function  
  ----- ------------  ---------------      ----- ------------  ---------------
   334      0.336000  20 O  s               333      0.311697  20 O  s         
   308      0.212440  19 C  s         

 Vector   25  Occ=2.000000D+00  E=-1.404206D+00
              MO Center=  7.7D-01,  3.3D+00,  5.5D-01, r^2= 2.4D+00
   Bfn.  Coefficient  Atom+Function         Bfn.  Coefficient  Atom+Function  
  ----- ------------  ---------------      ----- ------------  ---------------
   241      0.355788  15 O  s               240      0.332685  15 O  s         
   215      0.235075  14 C  s         

 Vector   26  Occ=2.000000D+00  E=-1.389374D+00
              MO Center=  5.2D-01, -3.8D+00, -6.9D-01, r^2= 1.3D+00
   Bfn.  Coefficient  Atom+Function         Bfn.  Coefficient  Atom+Function  
  ----- ------------  ---------------      ----- ------------  ---------------
   533      0.371178  31 O  s               532      0.347383  31 O  s         
   507      0.247070  30 C  s         

 Vector   27  Occ=2.000000D+00  E=-1.277329D+00
              MO Center= -8.5D-01,  8.3D-01, -4.8D-01, r^2= 3.4D+00
   Bfn.  Coefficient  Atom+Function         Bfn.  Coefficient  Atom+Function  
  ----- ------------  ---------------      ----- ------------  ---------------
   105      0.331401   7 N  s               104      0.290654   7 N  s         
   359      0.208745  21 N  s                80     -0.191939   6 O  s         
   358      0.163758  21 N  s                79     -0.159198   6 O  s         

 Vector   28  Occ=2.000000D+00  E=-1.265415D+00
              MO Center= -2.3D-02, -3.2D-01, -5.7D-01, r^2= 4.1D+00
   Bfn.  Coefficient  Atom+Function         Bfn.  Coefficient  Atom+Function  
  ----- ------------  ---------------      ----- ------------  ---------------
   359      0.329799  21 N  s               358      0.285649  21 N  s         
   105     -0.248180   7 N  s               104     -0.187388   7 N  s         
   334     -0.154668  20 O  s         

 Vector   29  Occ=2.000000D+00  E=-1.233283D+00
              MO Center=  1.7D+00,  3.0D+00,  4.8D-01, r^2= 1.5D+00
   Bfn.  Coefficient  Atom+Function         Bfn.  Coefficient  Atom+Function  
  ----- ------------  ---------------      ----- ------------  ---------------
   265      0.364697  16 N  s               266      0.336931  16 N  s         
   241     -0.219242  15 O  s               218      0.193601  14 C  px        
   240     -0.187954  15 O  s               289      0.160474  17 H  s         
   298      0.154126  18 H  s         

 Vector   30  Occ=2.000000D+00  E=-1.218624D+00
              MO Center= -5.4D-01, -3.0D+00, -9.2D-01, r^2= 2.2D+00
   Bfn.  Coefficient  Atom+Function         Bfn.  Coefficient  Atom+Function  
  ----- ------------  ---------------      ----- ------------  ---------------
   558      0.382382  32 N  s               557      0.361772  32 N  s         
   393     -0.258385  23 C  s               533     -0.193752  31 O  s         
   510     -0.181962  30 C  px              532     -0.165640  31 O  s         
   581      0.162535  33 H  s               590      0.155919  34 H  s         

 Vector   31  Occ=2.000000D+00  E=-1.100749D+00
              MO Center=  3.2D-02,  5.8D-01, -3.0D-01, r^2= 7.1D+00
   Bfn.  Coefficient  Atom+Function         Bfn.  Coefficient  Atom+Function  
  ----- ------------  ---------------      ----- ------------  ---------------
   138      0.196152   9 C  s               172      0.174931  11 C  s         

 Vector   32  Occ=2.000000D+00  E=-1.081142D+00
              MO Center=  5.4D-01, -2.6D-01,  2.2D-01, r^2= 7.7D+00
   Bfn.  Coefficient  Atom+Function         Bfn.  Coefficient  Atom+Function  
  ----- ------------  ---------------      ----- ------------  ---------------
   426      0.214212  25 C  s               393      0.193770  23 C  s         
   470      0.175196  28 S  s               172      0.170230  11 C  s         
   173      0.163190  11 C  s         

 Vector   33  Occ=2.000000D+00  E=-1.019595D+00
              MO Center= -2.3D+00,  1.3D+00,  4.3D-01, r^2= 5.0D+00
   Bfn.  Coefficient  Atom+Function         Bfn.  Coefficient  Atom+Function  
  ----- ------------  ---------------      ----- ------------  ---------------
   173      0.331958  11 C  s                11      0.318173   2 C  s         
   172      0.160793  11 C  s               174      0.154574  11 C  s         
    55      0.153646   5 C  s         

 Vector   34  Occ=2.000000D+00  E=-9.909824D-01
              MO Center=  4.8D-01, -1.3D+00,  6.5D-01, r^2= 5.9D+00
   Bfn.  Coefficient  Atom+Function         Bfn.  Coefficient  Atom+Function  
  ----- ------------  ---------------      ----- ------------  ---------------
   470      0.289091  28 S  s               139      0.219613   9 C  s         
   392     -0.209491  23 C  s               434      0.200312  25 C  pz        
   145     -0.165117   9 C  py              471      0.151990  28 S  s         
   309     -0.150355  19 C  s         

 Vector   35  Occ=2.000000D+00  E=-9.374941D-01
              MO Center=  1.4D-02,  1.3D+00, -4.1D-01, r^2= 7.3D+00
   Bfn.  Coefficient  Atom+Function         Bfn.  Coefficient  Atom+Function  
  ----- ------------  ---------------      ----- ------------  ---------------
   173      0.312434  11 C  s               138     -0.216789   9 C  s         
   172      0.165876  11 C  s         

 Vector   36  Occ=2.000000D+00  E=-8.721675D-01
              MO Center=  6.9D-01, -1.7D+00,  6.6D-01, r^2= 5.4D+00
   Bfn.  Coefficient  Atom+Function         Bfn.  Coefficient  Atom+Function  
  ----- ------------  ---------------      ----- ------------  ---------------
   471      0.250657  28 S  s               470      0.233246  28 S  s         
   426     -0.220924  25 C  s               398     -0.165478  23 C  px        
   459     -0.153706  27 H  s         

 Vector   37  Occ=2.000000D+00  E=-8.414963D-01
              MO Center= -7.7D-01,  4.6D-01, -3.4D-01, r^2= 7.1D+00
   Bfn.  Coefficient  Atom+Function         Bfn.  Coefficient  Atom+Function  
  ----- ------------  ---------------      ----- ------------  ---------------
   139      0.291015   9 C  s               108     -0.217833   7 N  py        
   393      0.192587  23 C  s               128     -0.180183   8 H  s         
    54      0.175834   5 C  s               107     -0.171660   7 N  px        
    60      0.167612   5 C  px              105     -0.163022   7 N  s         
   399     -0.159401  23 C  py        

 Vector   38  Occ=2.000000D+00  E=-8.204739D-01
              MO Center= -1.7D-02,  9.4D-01, -3.8D-01, r^2= 7.4D+00
   Bfn.  Coefficient  Atom+Function         Bfn.  Coefficient  Atom+Function  
  ----- ------------  ---------------      ----- ------------  ---------------
   145      0.176404   9 C  py              128     -0.168943   8 H  s         
   108     -0.163367   7 N  py              268      0.158226  16 N  px        
   105     -0.154242   7 N  s               382      0.150241  22 H  s         

 Vector   39  Occ=2.000000D+00  E=-8.068549D-01
              MO Center=  7.7D-01,  1.1D+00, -1.8D-01, r^2= 7.6D+00
   Bfn.  Coefficient  Atom+Function         Bfn.  Coefficient  Atom+Function  
  ----- ------------  ---------------      ----- ------------  ---------------
   309      0.307465  19 C  s               268      0.227521  16 N  px        
   361      0.216179  21 N  px              382     -0.204463  22 H  s         
   383     -0.164935  22 H  s               215     -0.163497  14 C  s         
   298      0.157058  18 H  s         

 Vector   40  Occ=2.000000D+00  E=-7.962163D-01
              MO Center=  2.6D-01, -1.4D+00, -3.1D-01, r^2= 8.5D+00
   Bfn.  Coefficient  Atom+Function         Bfn.  Coefficient  Atom+Function  
  ----- ------------  ---------------      ----- ------------  ---------------
   560      0.240679  32 N  px              399     -0.208682  23 C  py        
   309     -0.182096  19 C  s               513     -0.161783  30 C  px        
   507      0.160323  30 C  s               361     -0.157053  21 N  px        
   590     -0.154604  34 H  s               393      0.153664  23 C  s         

 Vector   41  Occ=2.000000D+00  E=-7.656776D-01
              MO Center= -1.8D-02, -6.0D-01, -6.2D-01, r^2= 8.9D+00
   Bfn.  Coefficient  Atom+Function         Bfn.  Coefficient  Atom+Function  
  ----- ------------  ---------------      ----- ------------  ---------------
   581      0.216210  33 H  s               144      0.194686   9 C  px        
   399     -0.182249  23 C  py              561      0.182334  32 N  py        
   560     -0.179562  32 N  px              139      0.177784   9 C  s         
   145     -0.177232   9 C  py              508     -0.169019  30 C  s         
   510      0.169551  30 C  px              309     -0.160010  19 C  s         

 Vector   42  Occ=2.000000D+00  E=-7.477621D-01
              MO Center=  1.2D+00,  1.8D+00,  4.0D-03, r^2= 8.1D+00
   Bfn.  Coefficient  Atom+Function         Bfn.  Coefficient  Atom+Function  
  ----- ------------  ---------------      ----- ------------  ---------------
   270      0.291147  16 N  pz              289     -0.270696  17 H  s         
   298      0.226355  18 H  s               269      0.182993  16 N  py        
   299      0.151122  18 H  s         

 Vector   43  Occ=2.000000D+00  E=-7.306430D-01
              MO Center= -5.3D-01,  4.3D-01, -4.5D-01, r^2= 7.5D+00
   Bfn.  Coefficient  Atom+Function         Bfn.  Coefficient  Atom+Function  
  ----- ------------  ---------------      ----- ------------  ---------------
   144      0.266580   9 C  px              309     -0.262984  19 C  s         
   312      0.200350  19 C  py              109      0.195793   7 N  pz        
   141      0.193124   9 C  px               55     -0.183616   5 C  s         
   399      0.173368  23 C  py              145     -0.161486   9 C  py        
   128      0.153781   8 H  s         

 Vector   44  Occ=2.000000D+00  E=-7.077134D-01
              MO Center= -1.2D+00, -1.2D+00, -5.8D-01, r^2= 8.0D+00
   Bfn.  Coefficient  Atom+Function         Bfn.  Coefficient  Atom+Function  
  ----- ------------  ---------------      ----- ------------  ---------------
   561      0.274357  32 N  py              590     -0.223178  34 H  s         
   360      0.173467  21 N  s               581      0.172493  33 H  s         
    80     -0.164695   6 O  s                84      0.162468   6 O  pz        
    57     -0.150557   5 C  px        

 Vector   45  Occ=2.000000D+00  E=-7.044396D-01
              MO Center= -3.6D-01,  9.0D-01, -4.0D-01, r^2= 9.1D+00
   Bfn.  Coefficient  Atom+Function         Bfn.  Coefficient  Atom+Function  
  ----- ------------  ---------------      ----- ------------  ---------------
   143     -0.178557   9 C  pz               84     -0.176621   6 O  pz        
    80      0.173640   6 O  s               270     -0.170037  16 N  pz        
   298     -0.162666  18 H  s                58      0.154768   5 C  py        
   146     -0.151096   9 C  pz        

 Vector   46  Occ=2.000000D+00  E=-6.902020D-01
              MO Center=  7.7D-02,  5.8D-02, -4.0D-01, r^2= 9.1D+00
   Bfn.  Coefficient  Atom+Function         Bfn.  Coefficient  Atom+Function  
  ----- ------------  ---------------      ----- ------------  ---------------
   399      0.207743  23 C  py              336     -0.190813  20 O  px        
   334     -0.187597  20 O  s         

 Vector   47  Occ=2.000000D+00  E=-6.664060D-01
              MO Center=  2.0D-01,  2.0D+00,  1.7D-02, r^2= 8.1D+00
   Bfn.  Coefficient  Atom+Function         Bfn.  Coefficient  Atom+Function  
  ----- ------------  ---------------      ----- ------------  ---------------
   245      0.261792  15 O  pz              218      0.225346  14 C  px        
   241      0.202320  15 O  s               177     -0.153439  11 C  pz        
   248      0.152323  15 O  pz        

 Vector   48  Occ=2.000000D+00  E=-6.625811D-01
              MO Center=  2.6D-01, -8.7D-01, -1.8D-01, r^2= 8.7D+00
   Bfn.  Coefficient  Atom+Function         Bfn.  Coefficient  Atom+Function  
  ----- ------------  ---------------      ----- ------------  ---------------
   310      0.291111  19 C  s               509     -0.197218  30 C  s         
   416      0.187181  24 H  s               397     -0.161787  23 C  pz        
   139      0.160843   9 C  s               140      0.159388   9 C  s         
   395      0.152024  23 C  px        

 Vector   49  Occ=2.000000D+00  E=-6.417601D-01
              MO Center=  4.5D-01, -2.9D-01, -3.1D-01, r^2= 7.4D+00
   Bfn.  Coefficient  Atom+Function         Bfn.  Coefficient  Atom+Function  
  ----- ------------  ---------------      ----- ------------  ---------------
   336      0.291093  20 O  px              393      0.251619  23 C  s         
   427     -0.225141  25 C  s               311     -0.186518  19 C  px        
   334      0.167182  20 O  s               339      0.161928  20 O  px        
    83     -0.152413   6 O  py        

 Vector   50  Occ=2.000000D+00  E=-6.323629D-01
              MO Center= -1.5D+00,  1.0D+00, -4.8D-04, r^2= 7.3D+00
   Bfn.  Coefficient  Atom+Function         Bfn.  Coefficient  Atom+Function  
  ----- ------------  ---------------      ----- ------------  ---------------
     1      0.208509   1 H  s               173      0.194478  11 C  s         
    15      0.171386   2 C  py               44     -0.170359   4 H  s         
   139     -0.166486   9 C  s                14     -0.160777   2 C  px        
   217     -0.161574  14 C  s               336      0.155167  20 O  px        

 Vector   51  Occ=2.000000D+00  E=-6.270682D-01
              MO Center=  4.5D-01,  2.2D-01, -4.0D-01, r^2= 1.2D+01
   Bfn.  Coefficient  Atom+Function         Bfn.  Coefficient  Atom+Function  
  ----- ------------  ---------------      ----- ------------  ---------------
   536      0.244224  31 O  py              142      0.187303   9 C  py        
   533     -0.175564  31 O  s               176     -0.164611  11 C  py        

 Vector   52  Occ=2.000000D+00  E=-6.165455D-01
              MO Center=  4.5D-01, -8.0D-01,  9.1D-02, r^2= 1.2D+01
   Bfn.  Coefficient  Atom+Function         Bfn.  Coefficient  Atom+Function  
  ----- ------------  ---------------      ----- ------------  ---------------
   536      0.235637  31 O  py              430      0.211501  25 C  py        
   533     -0.167763  31 O  s               459      0.159736  27 H  s         

 Vector   53  Occ=2.000000D+00  E=-6.051356D-01
              MO Center= -1.3D+00,  5.3D-01, -8.4D-02, r^2= 8.1D+00
   Bfn.  Coefficient  Atom+Function         Bfn.  Coefficient  Atom+Function  
  ----- ------------  ---------------      ----- ------------  ---------------
    83      0.261210   6 O  py              384     -0.246078  22 H  s         
    59     -0.214280   5 C  pz               16      0.171836   2 C  pz        
   128      0.167938   8 H  s                58     -0.165421   5 C  py        

 Vector   54  Occ=2.000000D+00  E=-5.982349D-01
              MO Center=  5.9D-01,  3.3D-01, -4.6D-01, r^2= 9.1D+00
   Bfn.  Coefficient  Atom+Function         Bfn.  Coefficient  Atom+Function  
  ----- ------------  ---------------      ----- ------------  ---------------
   139      0.239897   9 C  s               427      0.240389  25 C  s         
   175      0.184340  11 C  px              205     -0.178270  13 H  s         
   395     -0.178438  23 C  px              361      0.164877  21 N  px        
   383     -0.152854  22 H  s         

 Vector   55  Occ=2.000000D+00  E=-5.930259D-01
              MO Center=  3.5D-01,  1.9D+00,  2.4D-01, r^2= 9.1D+00
   Bfn.  Coefficient  Atom+Function         Bfn.  Coefficient  Atom+Function  
  ----- ------------  ---------------      ----- ------------  ---------------
   243      0.262887  15 O  px              220      0.240272  14 C  pz        
   177     -0.187019  11 C  pz              241     -0.175839  15 O  s         
   197      0.166581  12 H  s               217      0.164837  14 C  s         
   196      0.155414  12 H  s               246      0.153914  15 O  px        

 Vector   56  Occ=2.000000D+00  E=-5.804214D-01
              MO Center= -1.9D+00,  6.9D-01,  6.1D-01, r^2= 9.4D+00
   Bfn.  Coefficient  Atom+Function         Bfn.  Coefficient  Atom+Function  
  ----- ------------  ---------------      ----- ------------  ---------------
    35      0.306201   3 H  s                36      0.286873   3 H  s         
    15     -0.249879   2 C  py               14     -0.211700   2 C  px        
    13     -0.179706   2 C  s         

 Vector   57  Occ=2.000000D+00  E=-5.765266D-01
              MO Center=  4.0D-01, -2.3D+00,  9.4D-02, r^2= 7.5D+00
   Bfn.  Coefficient  Atom+Function         Bfn.  Coefficient  Atom+Function  
  ----- ------------  ---------------      ----- ------------  ---------------
   511      0.211616  30 C  py              460      0.208889  27 H  s         
   535      0.209143  31 O  px              562     -0.175533  32 N  pz        
   478     -0.165674  28 S  pz              498     -0.160126  29 H  s         
   472      0.158847  28 S  s               398     -0.157815  23 C  px        

 Vector   58  Occ=2.000000D+00  E=-5.627073D-01
              MO Center= -1.1D-01, -6.3D-01,  4.4D-01, r^2= 1.0D+01
   Bfn.  Coefficient  Atom+Function         Bfn.  Coefficient  Atom+Function  
  ----- ------------  ---------------      ----- ------------  ---------------
   478      0.193976  28 S  pz              497      0.170523  29 H  s         

 Vector   59  Occ=2.000000D+00  E=-5.595506D-01
              MO Center=  1.4D-01,  6.3D-01, -5.4D-01, r^2= 1.0D+01
   Bfn.  Coefficient  Atom+Function         Bfn.  Coefficient  Atom+Function  
  ----- ------------  ---------------      ----- ------------  ---------------
   173      0.269937  11 C  s               205      0.218780  13 H  s         
   145     -0.188778   9 C  py              427      0.185716  25 C  s         
   175     -0.170717  11 C  px              163     -0.158044  10 H  s         
   338     -0.157207  20 O  pz        

 Vector   60  Occ=2.000000D+00  E=-5.564374D-01
              MO Center=  4.3D-01, -4.7D-02, -4.4D-01, r^2= 1.1D+01
   Bfn.  Coefficient  Atom+Function         Bfn.  Coefficient  Atom+Function  
  ----- ------------  ---------------      ----- ------------  ---------------
   205     -0.202030  13 H  s               175      0.200131  11 C  px        
   206     -0.183216  13 H  s               430      0.184043  25 C  py        
   197      0.176141  12 H  s               451     -0.168402  26 H  s         
   196      0.155222  12 H  s               337     -0.155799  20 O  py        
   459      0.153896  27 H  s         

 Vector   61  Occ=2.000000D+00  E=-5.453711D-01
              MO Center= -1.3D+00,  9.6D-01, -3.6D-02, r^2= 7.7D+00
   Bfn.  Coefficient  Atom+Function         Bfn.  Coefficient  Atom+Function  
  ----- ------------  ---------------      ----- ------------  ---------------
   173      0.206937  11 C  s                14      0.195654   2 C  px        
    44      0.194071   4 H  s               109     -0.182325   7 N  pz        
    82     -0.178492   6 O  px                2     -0.158768   1 H  s         
   139     -0.159099   9 C  s         

 Vector   62  Occ=2.000000D+00  E=-5.402868D-01
              MO Center=  1.0D-01,  1.7D+00, -2.9D-01, r^2= 7.8D+00
   Bfn.  Coefficient  Atom+Function         Bfn.  Coefficient  Atom+Function  
  ----- ------------  ---------------      ----- ------------  ---------------
   179     -0.210744  11 C  py              142      0.203036   9 C  py        
   176     -0.193928  11 C  py              141      0.166341   9 C  px        
   162     -0.159001  10 H  s         

 Vector   63  Occ=2.000000D+00  E=-5.176717D-01
              MO Center=  9.3D-01, -1.3D+00,  2.0D-01, r^2= 6.5D+00
   Bfn.  Coefficient  Atom+Function         Bfn.  Coefficient  Atom+Function  
  ----- ------------  ---------------      ----- ------------  ---------------
   397      0.269897  23 C  pz              498      0.240030  29 H  s         
   310      0.232644  19 C  s               431     -0.230937  25 C  pz        
   338     -0.227832  20 O  pz              478      0.207830  28 S  pz        
   497      0.195626  29 H  s               368     -0.193732  21 N  py        
   509      0.193054  30 C  s               472     -0.191261  28 S  s         

 Vector   64  Occ=2.000000D+00  E=-4.716237D-01
              MO Center=  2.7D-02,  5.0D-01, -8.4D-01, r^2= 5.8D+00
   Bfn.  Coefficient  Atom+Function         Bfn.  Coefficient  Atom+Function  
  ----- ------------  ---------------      ----- ------------  ---------------
   337      0.412385  20 O  py              340      0.331192  20 O  py        
   139     -0.293995   9 C  s                84      0.241330   6 O  pz        
    87      0.188899   6 O  pz               83     -0.185099   6 O  py        
   109     -0.164844   7 N  pz              309      0.152385  19 C  s         

 Vector   65  Occ=2.000000D+00  E=-4.680482D-01
              MO Center=  1.9D-01, -1.6D+00,  1.3D+00, r^2= 5.3D+00
   Bfn.  Coefficient  Atom+Function         Bfn.  Coefficient  Atom+Function  
  ----- ------------  ---------------      ----- ------------  ---------------
   476     -0.373321  28 S  px              471      0.347048  28 S  s         
   428      0.293596  25 C  s               479     -0.233985  28 S  px        
   429      0.229093  25 C  px              509     -0.210143  30 C  s         
   432      0.206932  25 C  px               82     -0.154362   6 O  px        

 Vector   66  Occ=2.000000D+00  E=-4.551324D-01
              MO Center= -1.8D+00, -3.1D-02, -2.6D-01, r^2= 4.8D+00
   Bfn.  Coefficient  Atom+Function         Bfn.  Coefficient  Atom+Function  
  ----- ------------  ---------------      ----- ------------  ---------------
    82      0.431241   6 O  px               85      0.357837   6 O  px        
    84     -0.209873   6 O  pz              174     -0.189472  11 C  s         
   105     -0.182029   7 N  s                13     -0.175701   2 C  s         
   309      0.168414  19 C  s                16     -0.167552   2 C  pz        
    19     -0.161916   2 C  pz               87     -0.159441   6 O  pz        

 Vector   67  Occ=2.000000D+00  E=-4.423674D-01
              MO Center=  5.2D-01, -4.9D-01, -2.1D-01, r^2= 1.1D+01
   Bfn.  Coefficient  Atom+Function         Bfn.  Coefficient  Atom+Function  
  ----- ------------  ---------------      ----- ------------  ---------------
   535      0.272736  31 O  px              310      0.220639  19 C  s         
   538      0.211805  31 O  px              243     -0.210502  15 O  px        
   363      0.197481  21 N  pz              417      0.192216  24 H  s         
   217     -0.189420  14 C  s               338     -0.188939  20 O  pz        
   508     -0.182335  30 C  s               366      0.179681  21 N  pz        

 Vector   68  Occ=2.000000D+00  E=-4.338233D-01
              MO Center=  5.5D-01,  1.8D+00,  3.1D-01, r^2= 1.2D+01
   Bfn.  Coefficient  Atom+Function         Bfn.  Coefficient  Atom+Function  
  ----- ------------  ---------------      ----- ------------  ---------------
   243      0.349211  15 O  px              245      0.312103  15 O  pz        
   246      0.281879  15 O  px              248      0.241250  15 O  pz        
   535      0.219676  31 O  px              177      0.178392  11 C  pz        
   538      0.172766  31 O  px              235      0.162897  14 C  dxz       

 Vector   69  Occ=2.000000D+00  E=-4.207204D-01
              MO Center=  1.0D+00,  2.1D+00,  4.1D-01, r^2= 8.8D+00
   Bfn.  Coefficient  Atom+Function         Bfn.  Coefficient  Atom+Function  
  ----- ------------  ---------------      ----- ------------  ---------------
   244      0.319581  15 O  py              269     -0.305351  16 N  py        
   272     -0.256711  16 N  py              247      0.253527  15 O  py        
   267     -0.199517  16 N  s               271     -0.186018  16 N  px        
   268     -0.179609  16 N  px              245     -0.163699  15 O  pz        
   270      0.152906  16 N  pz        

 Vector   70  Occ=2.000000D+00  E=-4.184319D-01
              MO Center= -1.9D-01,  5.1D-01, -6.2D-01, r^2= 7.7D+00
   Bfn.  Coefficient  Atom+Function         Bfn.  Coefficient  Atom+Function  
  ----- ------------  ---------------      ----- ------------  ---------------
   337      0.263890  20 O  py              340      0.218644  20 O  py        
   108     -0.198082   7 N  py              111     -0.192865   7 N  py        
   109      0.190222   7 N  pz              107      0.179193   7 N  px        
   145      0.168172   9 C  py              112      0.165844   7 N  pz        
   173     -0.164504  11 C  s               110      0.158197   7 N  px        

 Vector   71  Occ=2.000000D+00  E=-4.142637D-01
              MO Center=  1.1D-01, -2.3D+00, -6.6D-01, r^2= 8.6D+00
   Bfn.  Coefficient  Atom+Function         Bfn.  Coefficient  Atom+Function  
  ----- ------------  ---------------      ----- ------------  ---------------
   537      0.350409  31 O  pz              562     -0.323054  32 N  pz        
   565     -0.286368  32 N  pz              540      0.275914  31 O  pz        
   318      0.191410  19 C  py              509     -0.164075  30 C  s         

 Vector   72  Occ=2.000000D+00  E=-4.034246D-01
              MO Center=  6.0D-01, -1.5D+00, -5.3D-01, r^2= 6.7D+00
   Bfn.  Coefficient  Atom+Function         Bfn.  Coefficient  Atom+Function  
  ----- ------------  ---------------      ----- ------------  ---------------
   363      0.308864  21 N  pz              366      0.286775  21 N  pz        
   338     -0.235551  20 O  pz              139     -0.231141   9 C  s         
   535     -0.227414  31 O  px              562     -0.207074  32 N  pz        
   341     -0.191317  20 O  pz              538     -0.180626  31 O  px        
   417     -0.174958  24 H  s               565     -0.172471  32 N  pz        

 Vector   73  Occ=2.000000D+00  E=-3.654532D-01
              MO Center=  3.2D-01, -1.7D+00,  2.0D+00, r^2= 2.4D+00
   Bfn.  Coefficient  Atom+Function         Bfn.  Coefficient  Atom+Function  
  ----- ------------  ---------------      ----- ------------  ---------------
   477      0.517334  28 S  py              480      0.506408  28 S  py        
   460     -0.174408  27 H  s         

 Vector   74  Occ=0.000000D+00  E= 2.682766D-02
              MO Center= -1.5D+00,  1.9D+00, -1.5D-01, r^2= 3.4D+01
   Bfn.  Coefficient  Atom+Function         Bfn.  Coefficient  Atom+Function  
  ----- ------------  ---------------      ----- ------------  ---------------
   384     12.027341  22 H  s               509      4.159860  30 C  s         
   318      3.594954  19 C  py              583     -2.819294  33 H  s         
   164     -2.781261  10 H  s                63     -2.725485   5 C  px        
   174     -2.594718  11 C  s               360      2.574131  21 N  s         
    13     -2.308437   2 C  s               147     -1.892018   9 C  px        

 Vector   75  Occ=0.000000D+00  E= 3.344183D-02
              MO Center=  1.5D+00,  1.1D+00,  1.8D+00, r^2= 3.3D+01
   Bfn.  Coefficient  Atom+Function         Bfn.  Coefficient  Atom+Function  
  ----- ------------  ---------------      ----- ------------  ---------------
   318      4.835188  19 C  py              174     -3.641646  11 C  s         
   267      3.489046  16 N  s               509     -2.748545  30 C  s         
   428      2.636746  25 C  s               147     -2.372802   9 C  px        
   207     -2.232247  13 H  s               403     -2.190276  23 C  pz        
   183     -1.935535  11 C  pz              319     -1.935072  19 C  pz        

 Vector   76  Occ=0.000000D+00  E= 3.634133D-02
              MO Center= -1.4D+00,  1.4D+00, -2.3D-01, r^2= 3.8D+01
   Bfn.  Coefficient  Atom+Function         Bfn.  Coefficient  Atom+Function  
  ----- ------------  ---------------      ----- ------------  ---------------
    63      5.405920   5 C  px              148      3.741133   9 C  py        
    65     -3.502017   5 C  pz               13      3.184015   2 C  s         
   149     -3.100273   9 C  pz              140     -2.781603   9 C  s         
   147      2.785885   9 C  px              368      2.702360  21 N  py        
   428      2.619716  25 C  s               174     -2.474819  11 C  s         

 Vector   77  Occ=0.000000D+00  E= 4.315789D-02
              MO Center= -2.1D+00, -1.3D+00, -1.2D+00, r^2= 3.5D+01
   Bfn.  Coefficient  Atom+Function         Bfn.  Coefficient  Atom+Function  
  ----- ------------  ---------------      ----- ------------  ---------------
   318      2.871426  19 C  py              402      2.847109  23 C  py        
   164      2.795463  10 H  s               559      2.554285  32 N  s         
   149      2.237242   9 C  pz              384     -2.200433  22 H  s         
   516      2.207188  30 C  px              592      2.159608  34 H  s         
   207     -2.118802  13 H  s                 3     -1.913878   1 H  s         

 Vector   78  Occ=0.000000D+00  E= 4.894530D-02
              MO Center=  1.1D+00,  7.7D-02,  1.8D+00, r^2= 4.1D+01
   Bfn.  Coefficient  Atom+Function         Bfn.  Coefficient  Atom+Function  
  ----- ------------  ---------------      ----- ------------  ---------------
   384      7.740949  22 H  s               509      6.042794  30 C  s         
   174     -4.344536  11 C  s               428     -4.203427  25 C  s         
    56      3.661302   5 C  s               403      2.816527  23 C  pz        
   267      2.715611  16 N  s               499     -2.729011  29 H  s         
   164     -2.689069  10 H  s               149     -2.659111   9 C  pz        

 Vector   79  Occ=0.000000D+00  E= 5.312550D-02
              MO Center=  8.2D-01,  5.9D-01,  4.5D-01, r^2= 4.0D+01
   Bfn.  Coefficient  Atom+Function         Bfn.  Coefficient  Atom+Function  
  ----- ------------  ---------------      ----- ------------  ---------------
   318      4.432295  19 C  py              384     -4.439462  22 H  s         
   149      3.661612   9 C  pz              198     -3.374275  12 H  s         
     3      3.047956   1 H  s               319     -2.828079  19 C  pz        
   317     -2.501758  19 C  px              164      2.135539  10 H  s         
   394      2.129696  23 C  s                46     -2.087928   4 H  s         

 Vector   80  Occ=0.000000D+00  E= 5.592594D-02
              MO Center= -2.4D-01,  5.7D-01, -7.0D-01, r^2= 4.3D+01
   Bfn.  Coefficient  Atom+Function         Bfn.  Coefficient  Atom+Function  
  ----- ------------  ---------------      ----- ------------  ---------------
   198      3.908574  12 H  s               384     -3.228773  22 H  s         
   207     -3.185506  13 H  s               559     -2.710615  32 N  s         
   418      2.591356  24 H  s                63      2.424570   5 C  px        
   516     -2.309371  30 C  px              181     -2.264611  11 C  px        
   592     -2.210493  34 H  s               106     -1.849989   7 N  s         

 Vector   81  Occ=0.000000D+00  E= 5.924916D-02
              MO Center=  2.0D-01,  1.1D+00, -1.4D+00, r^2= 3.9D+01
   Bfn.  Coefficient  Atom+Function         Bfn.  Coefficient  Atom+Function  
  ----- ------------  ---------------      ----- ------------  ---------------
   164      6.416987  10 H  s               310      4.533831  19 C  s         
   149      4.176163   9 C  pz              207     -3.916092  13 H  s         
   174     -2.771106  11 C  s               428      2.640863  25 C  s         
   148      2.553186   9 C  py              318      2.564637  19 C  py        
   583      2.430864  33 H  s               452     -2.389729  26 H  s         

 Vector   82  Occ=0.000000D+00  E= 6.245545D-02
              MO Center= -2.0D+00, -4.4D-01,  6.1D-01, r^2= 3.7D+01
   Bfn.  Coefficient  Atom+Function         Bfn.  Coefficient  Atom+Function  
  ----- ------------  ---------------      ----- ------------  ---------------
   217      5.277279  14 C  s                37      5.126153   3 H  s         
   418     -3.627421  24 H  s                46     -3.325989   4 H  s         
   106     -2.823935   7 N  s               130     -2.487772   8 H  s         
   384     -2.317016  22 H  s               401      2.324667  23 C  px        
    13      2.291262   2 C  s               267     -2.144812  16 N  s         

 Vector   83  Occ=0.000000D+00  E= 7.346778D-02
              MO Center= -5.8D-01,  1.7D+00, -1.2D-01, r^2= 4.3D+01
   Bfn.  Coefficient  Atom+Function         Bfn.  Coefficient  Atom+Function  
  ----- ------------  ---------------      ----- ------------  ---------------
   207      5.223071  13 H  s               198     -4.511656  12 H  s         
     3     -4.299653   1 H  s               181      3.593366  11 C  px        
    56      3.172054   5 C  s               418      2.957278  24 H  s         
   384      2.828471  22 H  s                46      2.734438   4 H  s         
   148      2.582773   9 C  py              174     -2.592554  11 C  s         

 Vector   84  Occ=0.000000D+00  E= 7.836429D-02
              MO Center=  1.7D+00,  8.1D-02,  1.2D+00, r^2= 3.7D+01
   Bfn.  Coefficient  Atom+Function         Bfn.  Coefficient  Atom+Function  
  ----- ------------  ---------------      ----- ------------  ---------------
   217      7.554952  14 C  s               461      7.159626  27 H  s         
   384     -6.039664  22 H  s               428     -5.664113  25 C  s         
   310      4.079666  19 C  s               418     -3.770144  24 H  s         
   318     -3.643140  19 C  py              267     -3.118990  16 N  s         
    46      3.035022   4 H  s               452     -2.585464  26 H  s         

 Vector   85  Occ=0.000000D+00  E= 7.985974D-02
              MO Center=  1.9D+00, -9.9D-01,  1.1D+00, r^2= 3.7D+01
   Bfn.  Coefficient  Atom+Function         Bfn.  Coefficient  Atom+Function  
  ----- ------------  ---------------      ----- ------------  ---------------
   452      6.137022  26 H  s               310      4.672986  19 C  s         
   217     -3.400276  14 C  s               207     -3.119191  13 H  s         
   164      3.031749  10 H  s               418     -3.044948  24 H  s         
   436      2.698510  25 C  py              291     -2.559567  17 H  s         
   384     -2.560939  22 H  s               174     -2.471818  11 C  s         

 Vector   86  Occ=0.000000D+00  E= 8.304832D-02
              MO Center=  1.8D+00,  9.5D-01,  1.6D-02, r^2= 3.5D+01
   Bfn.  Coefficient  Atom+Function         Bfn.  Coefficient  Atom+Function  
  ----- ------------  ---------------      ----- ------------  ---------------
   291      6.813377  17 H  s               198     -6.013771  12 H  s         
   452      3.863731  26 H  s               174     -3.813227  11 C  s         
   428      3.791939  25 C  s               461     -3.735306  27 H  s         
   509      3.659920  30 C  s               149      3.434529   9 C  pz        
   148      3.031617   9 C  py              164      2.950124  10 H  s         

 Vector   87  Occ=0.000000D+00  E= 8.839028D-02
              MO Center= -1.4D+00, -3.2D-01, -8.1D-01, r^2= 3.8D+01
   Bfn.  Coefficient  Atom+Function         Bfn.  Coefficient  Atom+Function  
  ----- ------------  ---------------      ----- ------------  ---------------
   217     15.856976  14 C  s               583     -9.403322  33 H  s         
   384      9.109676  22 H  s               174     -6.058510  11 C  s         
   140     -4.983678   9 C  s               130     -4.720551   8 H  s         
   267     -4.542055  16 N  s               592      3.400493  34 H  s         
   310     -3.065158  19 C  s               226     -3.040696  14 C  pz        

 Vector   88  Occ=0.000000D+00  E= 9.872802D-02
              MO Center= -1.6D+00,  9.3D-01,  5.4D-01, r^2= 3.0D+01
   Bfn.  Coefficient  Atom+Function         Bfn.  Coefficient  Atom+Function  
  ----- ------------  ---------------      ----- ------------  ---------------
   384     18.205562  22 H  s               310     -8.254239  19 C  s         
   583     -7.729090  33 H  s               140     -6.057709   9 C  s         
   130      5.757956   8 H  s                63     -5.463696   5 C  px        
   360      5.487643  21 N  s               318      5.172613  19 C  py        
    56     -4.887213   5 C  s               509      4.792361  30 C  s         

 Vector   89  Occ=0.000000D+00  E= 1.075513D-01
              MO Center= -7.7D-01,  5.9D-01,  8.5D-02, r^2= 4.2D+01
   Bfn.  Coefficient  Atom+Function         Bfn.  Coefficient  Atom+Function  
  ----- ------------  ---------------      ----- ------------  ---------------
   217     23.336287  14 C  s               384     -9.612396  22 H  s         
   583      9.656759  33 H  s               174     -6.898077  11 C  s         
   267     -6.830208  16 N  s               148     -6.099234   9 C  py        
   428      5.966364  25 C  s               164     -5.376325  10 H  s         
   509     -5.365624  30 C  s               225     -4.718635  14 C  py        

 Vector   90  Occ=0.000000D+00  E= 1.088084D-01
              MO Center= -6.0D-01, -5.2D-01, -1.1D+00, r^2= 2.9D+01
   Bfn.  Coefficient  Atom+Function         Bfn.  Coefficient  Atom+Function  
  ----- ------------  ---------------      ----- ------------  ---------------
   384     18.321860  22 H  s               310     -6.890826  19 C  s         
   140     -4.453184   9 C  s               418     -4.317391  24 H  s         
   472     -3.965344  28 S  s                64      3.781979   5 C  py        
   149     -3.564893   9 C  pz              147      3.340814   9 C  px        
   583     -3.288991  33 H  s               401      2.980968  23 C  px        

 Vector   91  Occ=0.000000D+00  E= 1.104753D-01
              MO Center= -6.4D-01,  2.2D+00, -3.0D-01, r^2= 3.2D+01
   Bfn.  Coefficient  Atom+Function         Bfn.  Coefficient  Atom+Function  
  ----- ------------  ---------------      ----- ------------  ---------------
   384     18.500752  22 H  s               217    -13.201630  14 C  s         
[...]
   368     14.493753  21 N  py              217    -12.464255  14 C  s         
   384     10.326193  22 H  s               148      9.443828   9 C  py        
   106      7.144271   7 N  s               318     -7.152510  19 C  py        
   310     -6.853765  19 C  s               149     -6.265453   9 C  pz        
   181      5.778274  11 C  px              174      5.640026  11 C  s         

 Vector  176  Occ=0.000000D+00  E= 4.328377D-01
              MO Center= -8.8D-01,  4.1D-01,  5.6D-01, r^2= 2.1D+01
   Bfn.  Coefficient  Atom+Function         Bfn.  Coefficient  Atom+Function  
  ----- ------------  ---------------      ----- ------------  ---------------
   509     17.063500  30 C  s                56     15.025072   5 C  s         
    13     12.603637   2 C  s               140    -12.121037   9 C  s         
   402     11.312701  23 C  py              106    -10.898200   7 N  s         
   310     -9.601962  19 C  s               113      8.411309   7 N  px        
    63      8.196707   5 C  px              401      7.498629  23 C  px        

 Vector  177  Occ=0.000000D+00  E= 4.383789D-01
              MO Center= -2.2D-01,  5.9D-01,  1.0D-02, r^2= 2.0D+01
   Bfn.  Coefficient  Atom+Function         Bfn.  Coefficient  Atom+Function  
  ----- ------------  ---------------      ----- ------------  ---------------
   310     14.236835  19 C  s               402    -12.283302  23 C  py        
   509    -11.515330  30 C  s               140      9.731505   9 C  s         
   317      9.538097  19 C  px              428     -7.365225  25 C  s         
    13     -6.332279   2 C  s               368     -5.895703  21 N  py        
   267      5.344244  16 N  s               401     -5.221409  23 C  px        

 Vector  178  Occ=0.000000D+00  E= 4.394414D-01
              MO Center= -2.0D-01, -3.7D-01, -1.6D-01, r^2= 2.2D+01
   Bfn.  Coefficient  Atom+Function         Bfn.  Coefficient  Atom+Function  
  ----- ------------  ---------------      ----- ------------  ---------------
   310     32.589964  19 C  s               217    -24.160115  14 C  s         
   509    -23.667285  30 C  s               140     21.655037   9 C  s         
   368    -14.435902  21 N  py              384    -13.952728  22 H  s         
   267     13.373201  16 N  s               394     10.708403  23 C  s         
   106     -9.176946   7 N  s               148      8.960542   9 C  py        

 Vector  179  Occ=0.000000D+00  E= 4.479658D-01
              MO Center= -1.0D+00, -2.8D-01, -1.7D-01, r^2= 2.0D+01
   Bfn.  Coefficient  Atom+Function         Bfn.  Coefficient  Atom+Function  
  ----- ------------  ---------------      ----- ------------  ---------------
   384     22.172537  22 H  s               360     17.893715  21 N  s         
   310    -17.352991  19 C  s                56    -14.794093   5 C  s         
   140    -13.514156   9 C  s               318     12.556017  19 C  py        
   509    -10.906304  30 C  s               174      8.558321  11 C  s         
   106      5.650236   7 N  s               559      5.516022  32 N  s         

 Vector  180  Occ=0.000000D+00  E= 4.545026D-01
              MO Center= -4.7D-01,  2.1D-01,  2.7D-01, r^2= 1.9D+01
   Bfn.  Coefficient  Atom+Function         Bfn.  Coefficient  Atom+Function  
  ----- ------------  ---------------      ----- ------------  ---------------
   509     29.995047  30 C  s               428    -17.501969  25 C  s         
   559    -12.620582  32 N  s               217    -12.006982  14 C  s         
   174     11.157709  11 C  s               267     10.044467  16 N  s         
    13     -7.661335   2 C  s               403      6.115982  23 C  pz        
    63     -5.822102   5 C  px              583     -5.793503  33 H  s         

 Vector  181  Occ=0.000000D+00  E= 4.581011D-01
              MO Center= -8.6D-02, -3.5D-01, -5.7D-01, r^2= 1.9D+01
   Bfn.  Coefficient  Atom+Function         Bfn.  Coefficient  Atom+Function  
  ----- ------------  ---------------      ----- ------------  ---------------
   367     11.768472  21 N  px              384    -10.944264  22 H  s         
   318     -8.792821  19 C  py               13      8.267171   2 C  s         
   148      7.750905   9 C  py               12      7.574884   2 C  s         
    56      6.920670   5 C  s               559      6.428944  32 N  s         
   174      6.371516  11 C  s               173      6.013850  11 C  s         

 Vector  182  Occ=0.000000D+00  E= 4.595946D-01
              MO Center=  1.1D-01,  7.2D-02,  1.9D-01, r^2= 1.9D+01
   Bfn.  Coefficient  Atom+Function         Bfn.  Coefficient  Atom+Function  
  ----- ------------  ---------------      ----- ------------  ---------------
   174     25.187307  11 C  s               509    -18.875474  30 C  s         
    13     18.278345   2 C  s               310    -14.654319  19 C  s         
   384    -14.139876  22 H  s               148    -11.037397   9 C  py        
   428     10.239878  25 C  s               149     -9.902727   9 C  pz        
   319      9.698288  19 C  pz               63      9.372659   5 C  px        

 Vector  183  Occ=0.000000D+00  E= 4.664175D-01
              MO Center= -2.3D-01, -1.7D-01, -4.1D-02, r^2= 1.9D+01
   Bfn.  Coefficient  Atom+Function         Bfn.  Coefficient  Atom+Function  
  ----- ------------  ---------------      ----- ------------  ---------------
   318    -22.086984  19 C  py              384    -21.819398  22 H  s         
    56     21.293265   5 C  s               149    -14.441079   9 C  pz        
    13     14.274433   2 C  s               147     13.317756   9 C  px        
   428    -11.579400  25 C  s               106     10.883200   7 N  s         
    12      9.507254   2 C  s               360      9.534101  21 N  s         

 Vector  184  Occ=0.000000D+00  E= 4.725458D-01
              MO Center=  2.7D-01, -6.5D-01,  2.4D-01, r^2= 2.0D+01
   Bfn.  Coefficient  Atom+Function         Bfn.  Coefficient  Atom+Function  
  ----- ------------  ---------------      ----- ------------  ---------------
   174     17.943589  11 C  s               318     17.981619  19 C  py        
   148    -10.071460   9 C  py              147     -9.775509   9 C  px        
   149      8.770307   9 C  pz              106     -8.589411   7 N  s         
    56     -8.485204   5 C  s                12      8.413665   2 C  s         
   460      6.642430  27 H  s               384     -6.247541  22 H  s         

 Vector  185  Occ=0.000000D+00  E= 4.755577D-01
              MO Center=  1.4D-01,  8.0D-02,  2.4D-01, r^2= 2.1D+01
   Bfn.  Coefficient  Atom+Function         Bfn.  Coefficient  Atom+Function  
  ----- ------------  ---------------      ----- ------------  ---------------
   428     19.638222  25 C  s               310     18.318431  19 C  s         
   140     16.521109   9 C  s               384    -15.460615  22 H  s         
   402    -12.122747  23 C  py              360     -8.751556  21 N  s         
   509     -8.376845  30 C  s               217     -8.243161  14 C  s         
   317      8.262704  19 C  px              174     -7.871235  11 C  s         

 Vector  186  Occ=0.000000D+00  E= 4.793463D-01
              MO Center=  6.8D-01, -4.6D-02,  1.4D-01, r^2= 1.8D+01
   Bfn.  Coefficient  Atom+Function         Bfn.  Coefficient  Atom+Function  
  ----- ------------  ---------------      ----- ------------  ---------------
   428     23.127566  25 C  s               310    -20.228558  19 C  s         
   174     14.257453  11 C  s               140    -11.321996   9 C  s         
    56    -10.625477   5 C  s               318     10.096542  19 C  py        
   368      8.311016  21 N  py              460     -8.304451  27 H  s         
    12      8.047732   2 C  s               267      7.983719  16 N  s         

 Vector  187  Occ=0.000000D+00  E= 4.841429D-01
              MO Center= -2.0D-02,  1.2D+00,  8.7D-02, r^2= 1.9D+01
   Bfn.  Coefficient  Atom+Function         Bfn.  Coefficient  Atom+Function  
  ----- ------------  ---------------      ----- ------------  ---------------
   428     13.747253  25 C  s               217     11.333877  14 C  s         
   174     -9.735838  11 C  s               113     -8.309623   7 N  px        
   106     -7.978483   7 N  s               402      7.889090  23 C  py        
   318      7.441895  19 C  py              368      6.507519  21 N  py        
   317     -6.365558  19 C  px              242     -5.968263  15 O  s         

 Vector  188  Occ=0.000000D+00  E= 4.869400D-01
              MO Center=  1.7D-01,  3.0D-01,  3.3D-01, r^2= 2.0D+01
   Bfn.  Coefficient  Atom+Function         Bfn.  Coefficient  Atom+Function  
  ----- ------------  ---------------      ----- ------------  ---------------
   174     13.924071  11 C  s               428    -13.522077  25 C  s         
   509    -10.108507  30 C  s               451      7.545948  26 H  s         
   384      7.167182  22 H  s               114     -5.925099   7 N  py        
   182     -5.827892  11 C  py              217      5.641501  14 C  s         
   367      5.475141  21 N  px              534      5.360804  31 O  s         

 Vector  189  Occ=0.000000D+00  E= 4.910864D-01
              MO Center= -1.2D-01, -1.4D-01,  1.3D-01, r^2= 2.0D+01
   Bfn.  Coefficient  Atom+Function         Bfn.  Coefficient  Atom+Function  
  ----- ------------  ---------------      ----- ------------  ---------------
   428     29.927733  25 C  s               509    -26.966806  30 C  s         
   384    -13.267743  22 H  s               217     13.089353  14 C  s         
   360    -12.554416  21 N  s               310     11.267139  19 C  s         
   140     10.899224   9 C  s               402    -10.739951  23 C  py        
   106    -10.536266   7 N  s                13     10.233440   2 C  s         

 Vector  190  Occ=0.000000D+00  E= 4.919946D-01
              MO Center= -1.2D-01, -1.8D-01, -1.0D-01, r^2= 1.8D+01
   Bfn.  Coefficient  Atom+Function         Bfn.  Coefficient  Atom+Function  
  ----- ------------  ---------------      ----- ------------  ---------------
   384     21.556701  22 H  s               174     20.197474  11 C  s         
    56    -16.795581   5 C  s               428    -13.585808  25 C  s         
    13    -12.765575   2 C  s                63     -8.586379   5 C  px        
   197     -6.755207  12 H  s               106      6.507996   7 N  s         
   173      6.458184  11 C  s                81      6.201853   6 O  s         

 Vector  191  Occ=0.000000D+00  E= 4.975401D-01
              MO Center= -1.7D-01,  1.1D+00, -1.2D-02, r^2= 1.8D+01
   Bfn.  Coefficient  Atom+Function         Bfn.  Coefficient  Atom+Function  
  ----- ------------  ---------------      ----- ------------  ---------------
   174     28.805034  11 C  s               318    -16.811653  19 C  py        
   360    -13.177759  21 N  s               147     11.141045   9 C  px        
   319     10.076125  19 C  pz              206     -9.899036  13 H  s         
   148     -9.127653   9 C  py              310     -7.815796  19 C  s         
   106      7.600978   7 N  s               267     -7.503662  16 N  s         

 Vector  192  Occ=0.000000D+00  E= 5.014827D-01
              MO Center= -6.1D-02, -2.0D-01,  4.6D-02, r^2= 1.9D+01
   Bfn.  Coefficient  Atom+Function         Bfn.  Coefficient  Atom+Function  
  ----- ------------  ---------------      ----- ------------  ---------------
   509     26.415061  30 C  s               310    -22.541011  19 C  s         
   140    -16.750629   9 C  s               428    -16.419522  25 C  s         
   360     13.185815  21 N  s               217     11.625076  14 C  s         
   384     10.036889  22 H  s               173     -9.218973  11 C  s         
    56      7.753824   5 C  s               163      7.760973  10 H  s         


 center of mass
 --------------
 x =   0.02254743 y =  -0.02958241 z =  -0.01393563

 moments of inertia (a.u.)
 ------------------
        6797.267273493710          -0.000000000001           0.000000000003
          -0.000000000001        3513.470054438023           0.000000000000
           0.000000000003           0.000000000000        7741.317566670814

  Mulliken analysis of the total density
  --------------------------------------

    Atom       Charge   Shell Charges
 -----------   ------   -------------------------------------------------------
    1 H    1     0.80   0.76  0.06  0.01  0.03 -0.06
    2 C    6     6.40   2.01  0.66  0.29  0.20  2.07  1.02 -0.02  0.06  0.12
    3 H    1     1.00   0.76  0.25  0.01  0.03 -0.06
    4 H    1     0.80   0.76  0.06  0.01  0.03 -0.06
    5 C    6     5.24   2.01  0.68  0.09  0.00  1.89  0.38 -0.05  0.24 -0.01
    6 O    8     8.85   2.01  0.81  1.00  0.18  2.81  1.88  0.15  0.02 -0.01
    7 N    7     7.55   2.01  0.72  0.82 -0.09  2.45  1.42  0.15  0.05  0.03
    8 H    1     0.94   0.75  0.20 -0.01  0.06 -0.05
    9 C    6     6.63   2.01  0.66  0.09  0.03  1.99  1.49  0.10  0.14  0.13
   10 H    1     0.98   0.78  0.16  0.01  0.03  0.00
   11 C    6     6.39   2.01  0.66  0.72 -0.02  2.06  0.79 -0.02  0.09  0.11
   12 H    1     0.86   0.77  0.13 -0.01  0.03 -0.06
   13 H    1     0.84   0.77  0.12 -0.01  0.03 -0.07
   14 C    6     4.55   2.01  0.68  0.02 -0.02  1.91 -0.18  0.02  0.24 -0.12
   15 O    8     8.82   2.01  0.82  1.02  0.19  2.80  1.84  0.14  0.02 -0.00
   16 N    7     7.20   2.01  0.72  0.76 -0.14  2.47  1.25  0.11  0.04 -0.02
   17 H    1     0.88   0.73  0.17 -0.01  0.06 -0.06
   18 H    1     1.00   0.76  0.22 -0.01  0.05 -0.03
   19 C    6     4.50   2.01  0.68 -0.03  0.04  1.88  0.04  0.00  0.24 -0.37
   20 O    8     8.90   2.01  0.82  1.04  0.18  2.80  1.88  0.17  0.01 -0.00
   21 N    7     7.25   2.01  0.72  0.86 -0.17  2.46  1.39 -0.12  0.06  0.05
   22 H    1     0.85   0.74  0.32 -0.12  0.06 -0.16
   23 C    6     6.35   2.01  0.66  0.14 -0.07  1.99  1.46 -0.05  0.14  0.07
   24 H    1     1.16   0.77  0.38 -0.01  0.03 -0.00
   25 C    6     5.79   2.01  0.66  0.16 -0.07  1.99  0.85  0.06  0.10  0.04
   26 H    1     1.08   0.77  0.31 -0.01  0.03 -0.02
   27 H    1     1.10   0.77  0.33 -0.01  0.03 -0.02
   28 S   16    15.51   2.00  2.03  0.86  0.70  0.03  6.00  2.32  1.54  0.11  0.10 -0.19
   29 H    1     1.25   0.71  0.47 -0.00  0.03  0.04
   30 C    6     4.52   2.01  0.68  0.09 -0.06  1.89 -0.21  0.02  0.24 -0.13
   31 O    8     8.81   2.01  0.82  1.03  0.19  2.79  1.83  0.14  0.01 -0.01
   32 N    7     7.27   2.01  0.72  0.82 -0.11  2.46  1.25  0.10  0.04 -0.02
   33 H    1     0.95   0.75  0.23 -0.00  0.06 -0.07
   34 H    1     0.99   0.75  0.22 -0.00  0.05 -0.03

       Multipole analysis of the density wrt the origin
       ------------------------------------------------

     L   x y z        total         open         nuclear
     -   - - -        -----         ----         -------
     0   0 0 0      0.000000      0.000000    146.000000

     1   1 0 0     -0.565543      0.000000     -0.000000
     1   0 1 0      1.222177      0.000000     -0.000000
     1   0 0 1      0.159462      0.000000      0.000000

     2   2 0 0    -78.958108      0.000000   1249.537459
     2   1 1 0      4.128073      0.000000     -4.298138
     2   1 0 1      3.909953      0.000000     -1.086772
     2   0 2 0   -105.236717      0.000000   2915.095912
     2   0 1 1     -7.272503      0.000000    -12.106571
     2   0 0 2    -83.351002      0.000000    706.416189


 Task  times  cpu:     4129.9s     wall:     4144.2s


                                NWChem Input Module
                                -------------------


 Summary of allocated global arrays
-----------------------------------
  No active global arrays


MA_summarize_allocated_blocks: starting scan ...
MA_summarize_allocated_blocks: scan completed: 0 heap blocks, 0 stack blocks
MA usage statistics:

	allocation statistics:
					      heap	     stack
					      ----	     -----
	current number of blocks	         0	         0
	maximum number of blocks	        16	        14
	current total bytes		         0	         0
	maximum total bytes		    136688	  33860808
	maximum total K-bytes		       137	     33861
	maximum total M-bytes		         1	        34


                                     CITATION
                                     --------
                Please cite the following reference when publishing
                           results obtained with NWChem:

          E. Apra, E. J. Bylaska, W. A. de Jong, N. Govind, K. Kowalski,
       T. P. Straatsma, M. Valiev, H. J. J. van Dam, Y. Alexeev, J. Anchell,
       V. Anisimov, F. W. Aquino, R. Atta-Fynn, J. Autschbach, N. P. Bauman,
     J. C. Becca, D. E. Bernholdt, K. Bhaskaran-Nair, S. Bogatko, P. Borowski,
         J. Boschen, J. Brabec, A. Bruner, E. Cauet, Y. Chen, G. N. Chuev,
      C. J. Cramer, J. Daily, M. J. O. Deegan, T. H. Dunning Jr., M. Dupuis,
   K. G. Dyall, G. I. Fann, S. A. Fischer, A. Fonari, H. Fruchtl, L. Gagliardi,
      J. Garza, N. Gawande, S. Ghosh, K. Glaesemann, A. W. Gotz, J. Hammond,
       V. Helms, E. D. Hermes, K. Hirao, S. Hirata, M. Jacquelin, L. Jensen,
   B. G. Johnson, H. Jonsson, R. A. Kendall, M. Klemm, R. Kobayashi, V. Konkov,
      S. Krishnamoorthy, M. Krishnan, Z. Lin, R. D. Lins, R. J. Littlefield,
      A. J. Logsdail, K. Lopata, W. Ma, A. V. Marenich, J. Martin del Campo,
   D. Mejia-Rodriguez, J. E. Moore, J. M. Mullin, T. Nakajima, D. R. Nascimento,
    J. A. Nichols, P. J. Nichols, J. Nieplocha, A. Otero-de-la-Roza, B. Palmer,
    A. Panyala, T. Pirojsirikul, B. Peng, R. Peverati, J. Pittner, L. Pollack,
   R. M. Richard, P. Sadayappan, G. C. Schatz, W. A. Shelton, D. W. Silverstein,
   D. M. A. Smith, T. A. Soares, D. Song, M. Swart, H. L. Taylor, G. S. Thomas,
            V. Tipparaju, D. G. Truhlar, K. Tsemekhman, T. Van Voorhis,
      A. Vazquez-Mayagoitia, P. Verma, O. Villa, A. Vishnu, K. D. Vogiatzis,
        D. Wang, J. H. Weare, M. J. Williamson, T. L. Windus, K. Wolinski,
        A. T. Wong, Q. Wu, C. Yang, Q. Yu, M. Zacharias, Z. Zhang, Y. Zhao,
                                and R. J. Harrison
                        "NWChem: Past, present, and future
                         J. Chem. Phys. 152, 184102 (2020)
                               doi:10.1063/5.0004997

                                      AUTHORS
                                      -------
  E. Apra, E. J. Bylaska, N. Govind, K. Kowalski, M. Valiev, D. Mejia-Rodriguez,
       A. Kunitsa, N. P. Bauman, A. Panyala, W. A. de Jong, T. P. Straatsma,
   H. J. J. van Dam, D. Wang, T. L. Windus, J. Hammond, J. Autschbach, A. Woods,
    K. Bhaskaran-Nair, J. Brabec, K. Lopata, S. A. Fischer, S. Krishnamoorthy,
     M. Jacquelin, W. Ma, M. Klemm, O. Villa, Y. Chen, V. Anisimov, F. Aquino,
     S. Hirata, M. T. Hackler, E. Hermes, L. Jensen, J. E. Moore, J. C. Becca,
      V. Konjkov, T. Risthaus, M. Malagoli, A. Marenich, A. Otero-de-la-Roza,
        J. Mullin, P. Nichols, R. Peverati, J. Pittner, Y. Zhao, P.-D. Fan,
        A. Fonari, M. J. Williamson, R. J. Harrison, J. R. Rehr, M. Dupuis,
     D. Silverstein, D. M. A. Smith, J. Nieplocha, V. Tipparaju, M. Krishnan,
     B. E. Van Kuiken, A. Vazquez-Mayagoitia, M. Swart, Q. Wu, T. Van Voorhis,
     A. A. Auer, M. Nooijen, L. D. Crosby, E. Brown, G. Cisneros, G. I. Fann,
   H. Fruchtl, J. Garza, K. Hirao, R. A. Kendall, J. A. Nichols, K. Tsemekhman,
    K. Wolinski, J. Anchell, D. E. Bernholdt, P. Borowski, T. Clark, D. Clerc,
   H. Dachsel, M. J. O. Deegan, K. Dyall, D. Elwood, E. Glendening, M. Gutowski,
   A. C. Hess, J. Jaffe, B. G. Johnson, J. Ju, R. Kobayashi, R. Kutteh, Z. Lin,
   R. Littlefield, X. Long, B. Meng, T. Nakajima, S. Niu, L. Pollack, M. Rosing,
   K. Glaesemann, G. Sandrone, M. Stave, H. Taylor, G. Thomas, J. H. van Lenthe,
                               A. T. Wong, Z. Zhang.

 Total times  cpu:     4130.0s     wall:     4144.6s
