export TMOUT=5400
export TMPDIR=/tmp
export PTMPDIR=/tmp/ptmp
 argument  1 = inputs/ASN_GLN_1.nw



============================== echo of input deck ==============================
start ASN_GLN_1
geometry
H          4.14000       14.96600       -9.51400
C          4.76100       15.82100       -9.25200
H          4.96300       16.41500      -10.14100
H          5.69900       15.47000       -8.82300
C          4.03900       16.67000       -8.23400
O          4.53200       16.86300       -7.12800
N          2.85400       17.16500       -8.59000
H          2.47500       16.86900       -9.47800
C          2.04000       18.08700       -7.77900
H          2.69800       18.89100       -7.44400
C          0.96000       18.70100       -8.68600
H          0.49800       19.54400       -8.17200
H          1.41300       19.07800       -9.60200
C         -0.11900       17.69800       -9.05500
O          0.00900       16.92400       -9.98800
N         -1.19600       17.65400       -8.30900
H         -1.21700       18.18200       -7.44900
H         -1.91400       17.00700       -8.57100
C          1.42800       17.47500       -6.49100
O          0.53300       18.06900       -5.89200
N          1.87000       16.28000       -6.10200
H          2.56500       15.85000       -6.69900
C          1.42600       15.50100       -4.94200
H          1.04900       16.19600       -4.19000
C          0.26000       14.57100       -5.34800
H         -0.10900       14.08000       -4.44700
H         -0.55800       15.17800       -5.73900
C          0.61000       13.47500       -6.37700
H          1.49200       12.92400       -6.05200
H         -0.22100       12.77100       -6.42800
C          0.85000       14.03600       -7.77400
O          1.97300       14.24100       -8.20100
N         -0.18700       14.38600       -8.50300
H         -1.11800       14.23100       -8.17100
H          0.00800       14.90800       -9.35000
C          2.59000       14.73500       -4.27500
O          2.36900       13.89000       -3.41700
N          3.83900       14.98800       -4.65300
H          4.03500       15.69000       -5.35400
H          4.58300       14.47400       -4.21200
end

basis
 * library aug-cc-pvdz
end

echo

scf
 direct
end

task scf energy
================================================================================


                                         
                                         


             Northwest Computational Chemistry Package (NWChem) 7.2.0
             --------------------------------------------------------


                    Environmental Molecular Sciences Laboratory
                       Pacific Northwest National Laboratory
                                Richland, WA 99352

                              Copyright (c) 1994-2022
                       Pacific Northwest National Laboratory
                            Battelle Memorial Institute

             NWChem is an open-source computational chemistry package
                        distributed under the terms of the
                      Educational Community License (ECL) 2.0
             A copy of the license is included with this distribution
                              in the LICENSE.TXT file

                                  ACKNOWLEDGMENT
                                  --------------

            This software and its documentation were developed at the
            EMSL at Pacific Northwest National Laboratory, a multiprogram
            national laboratory, operated for the U.S. Department of Energy
            by Battelle under Contract Number DE-AC05-76RL01830. Support
            for this work was provided by the Department of Energy Office
            of Biological and Environmental Research, Office of Basic
            Energy Sciences, and the Office of Advanced Scientific Computing.


           Job information
           ---------------

    hostname        = nova21-swift-2
    program         = /opt/rit/el9/20230413/app/linux-rhel9-x86_64_v3/gcc-11.2.1/nwchem-7.2.0-oxtctbuhfuzyfaoziquq6bki22grib3g/bin/nwchem
    date            = Thu Jul 10 05:27:41 2025

    compiled        = Wed_May_17_23:46:39_2023
    source          = /tmp/root/spack-stage/spack-stage-nwchem-7.2.0-oxtctbuhfuzyfaoziquq6bki22grib3g/spack-src
    nwchem branch   = 7.2.0
    nwchem revision = d0d141fd
    ga revision     = 5.8.0
    use scalapack   = T
    input           = inputs/ASN_GLN_1.nw
    prefix          = ASN_GLN_1.
    data base       = ./ASN_GLN_1.db
    status          = startup
    nproc           =        8
    time left       =     -1s



           Memory information
           ------------------

    heap     =   26214396 doubles =    200.0 Mbytes
    stack    =   26214401 doubles =    200.0 Mbytes
    global   =   52428800 doubles =    400.0 Mbytes (distinct from heap & stack)
    total    =  104857597 doubles =    800.0 Mbytes
    verify   = yes
    hardfail = no 


           Directory information
           ---------------------

  0 permanent = .
  0 scratch   = .




                                NWChem Input Module
                                -------------------



 Scaling coordinates for geometry "geometry" by  1.889725989
 (inverse scale =  0.529177249)

 C1  symmetry detected

          ------
          auto-z
          ------
  no constraints, skipping    0.0000000000000000     
  no constraints, skipping    0.0000000000000000     


                             Geometry "geometry" -> ""
                             -------------------------

 Output coordinates in angstroms (scale by  1.889725989 to convert to a.u.)

  No.       Tag          Charge          X              Y              Z
 ---- ---------------- ---------- -------------- -------------- --------------
    1 H                    1.0000     2.48389581     0.47500936    -2.55576204
    2 C                    6.0000     3.25197254     0.54906356    -1.78772290
    3 H                    1.0000     3.77445139     1.49899477    -1.88049973
    4 H                    1.0000     3.95876961    -0.27228659    -1.90133555
    5 C                    6.0000     2.60712908     0.46140910    -0.42577481
    6 O                    8.0000     2.91262449    -0.44073594     0.34645629
    7 N                    7.0000     1.69261588     1.38412647    -0.12871545
    8 H                    1.0000     1.42481890     2.02519813    -0.86159532
    9 C                    6.0000     1.02054761     1.52552982     1.17463805
   10 H                    1.0000     1.79564787     1.50340926     1.94297083
   11 C                    6.0000     0.34301037     2.90572172     1.22001020
   12 H                    1.0000     0.03828185     3.12121988     2.24421236
   13 H                    1.0000     1.04829661     3.67720981     0.91378898
   14 C                    6.0000    -0.87672916     2.97720889     0.31804786
   15 O                    8.0000    -0.78789530     3.22856006    -0.87143949
   16 N                    7.0000    -2.04724051     2.71811366     0.84828727
   17 H                    1.0000    -2.08813511     2.35329731     1.78853280
   18 H                    1.0000    -2.85018064     2.78966124     0.25419544
   19 C                    6.0000     0.03009349     0.38758305     1.53810714
   20 O                    8.0000    -0.76699899     0.53684388     2.46278371
   21 N                    7.0000     0.04714325    -0.71246488     0.78689886
   22 H                    1.0000     0.69988717    -0.70941375     0.01343259
   23 C                    6.0000    -0.80581142    -1.89709594     0.92362695
   24 H                    1.0000    -1.11626684    -1.97379115     1.96688784
   25 C                    6.0000    -2.08063454    -1.72923144     0.06575778
   26 H                    1.0000    -2.73486039    -2.57870243     0.26432909
   27 H                    1.0000    -2.61188527    -0.83366965     0.39163468
   28 C                    6.0000    -1.85169405    -1.65196274    -1.45876601
   29 H                    1.0000    -1.23220582    -2.48591820    -1.78725135
   30 H                    1.0000    -2.81713359    -1.73890206    -1.95791132
   31 C                    6.0000    -1.20502462    -0.34052399    -1.88990065
   32 O                    8.0000    -0.00844412    -0.25301426    -2.10442371
   33 N                    7.0000    -1.94796643     0.74292659    -1.94891163
   34 H                    1.0000    -2.93168341     0.69560226    -1.77264108
   35 H                    1.0000    -1.45973057     1.62289702    -2.07218283
   36 C                    6.0000    -0.04444305    -3.20275396     0.60407048
   37 O                    8.0000    -0.64720721    -4.26146525     0.48226827
   38 N                    7.0000     1.27462777    -3.16634593     0.44400602
   39 H                    1.0000     1.78481772    -2.29982152     0.55106985
   40 H                    1.0000     1.75182656    -4.02568146     0.22944419

      Atomic Mass 
      ----------- 

      H                  1.007825
      C                 12.000000
      O                 15.994910
      N                 14.003070


 Effective nuclear repulsion energy (a.u.)    1939.3471422818

            Nuclear Dipole moment (a.u.) 
            ----------------------------
        X                 Y               Z
 ---------------- ---------------- ----------------
    -0.0000000000     0.0000000000     0.0000000000



                                Z-matrix (autoz)
                                -------- 

 Units are Angstrom for bonds and degrees for angles

      Type          Name      I     J     K     L     M      Value
      ----------- --------  ----- ----- ----- ----- ----- ----------
    1 Stretch                  1     2                       1.08872
    2 Stretch                  2     3                       1.08810
    3 Stretch                  2     4                       1.08953
    4 Stretch                  2     5                       1.50944
    5 Stretch                  5     6                       1.22619
    6 Stretch                  5     7                       1.33266
    7 Stretch                  7     8                       1.00985
    8 Stretch                  7     9                       1.47323
    9 Stretch                  9    10                       1.09161
   10 Stretch                  9    11                       1.53820
   11 Stretch                  9    19                       1.55178
   12 Stretch                 11    12                       1.09009
   13 Stretch                 11    13                       1.08922
   14 Stretch                 11    14                       1.51869
   15 Stretch                 14    15                       1.21900
   16 Stretch                 14    16                       1.31087
   17 Stretch                 16    17                       1.00937
   18 Stretch                 16    18                       1.00139
   19 Stretch                 19    20                       1.22990
   20 Stretch                 19    21                       1.33218
   21 Stretch                 21    22                       1.01209
   22 Stretch                 21    23                       1.46614
   23 Stretch                 23    24                       1.09117
   24 Stretch                 23    25                       1.54573
   25 Stretch                 23    36                       1.54484
   26 Stretch                 25    26                       1.09043
   27 Stretch                 25    27                       1.09108
   28 Stretch                 25    28                       1.54355
   29 Stretch                 28    29                       1.08956
   30 Stretch                 28    30                       1.09031
   31 Stretch                 28    31                       1.52444
   32 Stretch                 31    32                       1.21880
   33 Stretch                 31    33                       1.31503
   34 Stretch                 33    34                       1.00050
   35 Stretch                 33    35                       1.01386
   36 Stretch                 36    37                       1.22435
   37 Stretch                 36    38                       1.32925
   38 Stretch                 38    39                       1.01125
   39 Stretch                 38    40                       1.00609
   40 Bend                     1     2     3               109.75442
   41 Bend                     1     2     4               109.44006
   42 Bend                     1     2     5               109.34049
   43 Bend                     2     5     6               120.30041
   44 Bend                     2     5     7               117.00583
   45 Bend                     3     2     4               109.73928
   46 Bend                     3     2     5               109.43668
   47 Bend                     4     2     5               109.11381
   48 Bend                     5     7     8               117.37077
   49 Bend                     5     7     9               125.21952
   50 Bend                     6     5     7               122.68349
   51 Bend                     7     9    10               107.26743
   52 Bend                     7     9    11               108.24964
   53 Bend                     7     9    19               115.34092
   54 Bend                     8     7     9               117.39633
   55 Bend                     9    11    12               109.16134
   56 Bend                     9    11    13               110.00071
   57 Bend                     9    11    14               112.24002
   58 Bend                     9    19    20               120.05035
   59 Bend                     9    19    21               117.72878
   60 Bend                    10     9    11               108.07024
   61 Bend                    10     9    19               105.87167
   62 Bend                    11     9    19               111.71184
   63 Bend                    11    14    15               122.05338
   64 Bend                    11    14    16               117.87999
   65 Bend                    12    11    13               107.76627
   66 Bend                    12    11    14               108.91652
   67 Bend                    13    11    14               108.64744
   68 Bend                    14    16    17               118.97369
   69 Bend                    14    16    18               117.50834
   70 Bend                    15    14    16               120.03502
   71 Bend                    17    16    18               123.09154
   72 Bend                    19    21    22               115.89386
   73 Bend                    19    21    23               127.38480
   74 Bend                    20    19    21               122.17169
   75 Bend                    21    23    24               108.14816
   76 Bend                    21    23    25               109.89524
   77 Bend                    21    23    36               112.14053
   78 Bend                    22    21    23               116.67393
   79 Bend                    23    25    26               108.00802
   80 Bend                    23    25    27               108.96219
   81 Bend                    23    25    28               115.54758
   82 Bend                    23    36    37               120.58231
   83 Bend                    23    36    38               119.39528
   84 Bend                    24    23    25               107.67429
   85 Bend                    24    23    36               106.17598
   86 Bend                    25    23    36               112.54754
   87 Bend                    25    28    29               110.10740
   88 Bend                    25    28    30               108.47143
   89 Bend                    25    28    31               112.66296
   90 Bend                    26    25    27               107.03209
   91 Bend                    26    25    28               107.92928
   92 Bend                    27    25    28               109.03350
   93 Bend                    28    31    32               121.87118
   94 Bend                    28    31    33               118.80374
   95 Bend                    29    28    30               107.72191
   96 Bend                    29    28    31               109.39061
   97 Bend                    30    28    31               108.34519
   98 Bend                    31    33    34               120.57092
   99 Bend                    31    33    35               116.64651
  100 Bend                    32    31    33               119.18333
  101 Bend                    34    33    35               122.40868
  102 Bend                    36    38    39               120.75545
  103 Bend                    36    38    40               118.22703
  104 Bend                    37    36    38               120.01658
  105 Bend                    39    38    40               121.00942
  106 Torsion                  1     2     5     6         119.64150
  107 Torsion                  1     2     5     7         -59.22387
  108 Torsion                  2     5     7     8           5.80857
  109 Torsion                  2     5     7     9        -175.56140
  110 Torsion                  3     2     5     6        -120.11296
  111 Torsion                  3     2     5     7          61.02167
  112 Torsion                  4     2     5     6          -0.02441
  113 Torsion                  4     2     5     7        -178.88978
  114 Torsion                  5     7     9    10          48.63173
  115 Torsion                  5     7     9    11         165.02462
  116 Torsion                  5     7     9    19         -69.01953
  117 Torsion                  6     5     7     8        -173.02751
  118 Torsion                  6     5     7     9           5.60252
  119 Torsion                  7     9    11    12        -167.24074
  120 Torsion                  7     9    11    13         -49.19075
  121 Torsion                  7     9    11    14          71.90367
  122 Torsion                  7     9    19    20        -165.71562
  123 Torsion                  7     9    19    21          11.78950
  124 Torsion                  8     7     9    10        -132.73857
  125 Torsion                  8     7     9    11         -16.34567
  126 Torsion                  8     7     9    19         109.61018
  127 Torsion                  9    11    14    15         -84.38677
  128 Torsion                  9    11    14    16          93.56724
  129 Torsion                  9    19    21    22          -1.41043
  130 Torsion                  9    19    21    23        -178.80432
  131 Torsion                 10     9    11    12         -51.36911
  132 Torsion                 10     9    11    13          66.68088
  133 Torsion                 10     9    11    14        -172.22470
  134 Torsion                 10     9    19    20          75.85341
  135 Torsion                 10     9    19    21        -106.64148
  136 Torsion                 11     9    19    20         -41.55404
  137 Torsion                 11     9    19    21         135.95108
  138 Torsion                 11    14    16    17          -8.78322
  139 Torsion                 11    14    16    18         178.47644
  140 Torsion                 12    11     9    19          64.70660
  141 Torsion                 12    11    14    15         154.61662
  142 Torsion                 12    11    14    16         -27.42937
  143 Torsion                 13    11     9    19        -177.24341
  144 Torsion                 13    11    14    15          37.48262
  145 Torsion                 13    11    14    16        -144.56337
  146 Torsion                 14    11     9    19         -56.14899
  147 Torsion                 15    14    16    17         169.21373
  148 Torsion                 15    14    16    18          -3.52660
  149 Torsion                 19    21    23    24         -26.81581
  150 Torsion                 19    21    23    25          90.46827
  151 Torsion                 19    21    23    36        -143.55177
  152 Torsion                 20    19    21    22         176.03827
  153 Torsion                 20    19    21    23          -1.35563
  154 Torsion                 21    23    25    26        -174.58576
  155 Torsion                 21    23    25    27         -58.65019
  156 Torsion                 21    23    25    28          64.47273
  157 Torsion                 21    23    36    37        -169.50127
  158 Torsion                 21    23    36    38           9.62085
  159 Torsion                 22    21    23    24         155.80788
  160 Torsion                 22    21    23    25         -86.90803
  161 Torsion                 22    21    23    36          39.07193
  162 Torsion                 23    25    28    29          51.01797
  163 Torsion                 23    25    28    30         168.66686
  164 Torsion                 23    25    28    31         -71.39389
  165 Torsion                 23    36    38    39           1.48401
  166 Torsion                 23    36    38    40        -179.54129
  167 Torsion                 24    23    25    26         -57.00660
  168 Torsion                 24    23    25    27          58.92896
  169 Torsion                 24    23    25    28        -177.94811
  170 Torsion                 24    23    36    37          72.58395
  171 Torsion                 24    23    36    38        -108.29393
  172 Torsion                 25    23    36    37         -44.97869
  173 Torsion                 25    23    36    38         134.14343
  174 Torsion                 25    28    31    32          98.77883
  175 Torsion                 25    28    31    33         -76.85610
  176 Torsion                 26    25    23    36          59.66569
  177 Torsion                 26    25    28    29         -69.96610
  178 Torsion                 26    25    28    30          47.68280
  179 Torsion                 26    25    28    31         167.62204
  180 Torsion                 27    25    23    36         175.60125
  181 Torsion                 27    25    28    29         174.10324
  182 Torsion                 27    25    28    30         -68.24787
  183 Torsion                 27    25    28    31          51.69138
  184 Torsion                 28    25    23    36         -61.27582
  185 Torsion                 28    31    33    34          -3.98245
  186 Torsion                 28    31    33    35         169.16478
  187 Torsion                 29    28    31    32         -24.03523
  188 Torsion                 29    28    31    33         160.32984
  189 Torsion                 30    28    31    32        -141.20908
  190 Torsion                 30    28    31    33          43.15599
  191 Torsion                 32    31    33    34        -179.73672
  192 Torsion                 32    31    33    35          -6.58949
  193 Torsion                 37    36    38    39        -179.38881
  194 Torsion                 37    36    38    40          -0.41412


            XYZ format geometry
            -------------------
    40
 geometry
 H                     2.48389581     0.47500936    -2.55576204
 C                     3.25197254     0.54906356    -1.78772290
 H                     3.77445139     1.49899477    -1.88049973
 H                     3.95876961    -0.27228659    -1.90133555
 C                     2.60712908     0.46140910    -0.42577481
 O                     2.91262449    -0.44073594     0.34645629
 N                     1.69261588     1.38412647    -0.12871545
 H                     1.42481890     2.02519813    -0.86159532
 C                     1.02054761     1.52552982     1.17463805
 H                     1.79564787     1.50340926     1.94297083
 C                     0.34301037     2.90572172     1.22001020
 H                     0.03828185     3.12121988     2.24421236
 H                     1.04829661     3.67720981     0.91378898
 C                    -0.87672916     2.97720889     0.31804786
 O                    -0.78789530     3.22856006    -0.87143949
 N                    -2.04724051     2.71811366     0.84828727
 H                    -2.08813511     2.35329731     1.78853280
 H                    -2.85018064     2.78966124     0.25419544
 C                     0.03009349     0.38758305     1.53810714
 O                    -0.76699899     0.53684388     2.46278371
 N                     0.04714325    -0.71246488     0.78689886
 H                     0.69988717    -0.70941375     0.01343259
 C                    -0.80581142    -1.89709594     0.92362695
 H                    -1.11626684    -1.97379115     1.96688784
 C                    -2.08063454    -1.72923144     0.06575778
 H                    -2.73486039    -2.57870243     0.26432909
 H                    -2.61188527    -0.83366965     0.39163468
 C                    -1.85169405    -1.65196274    -1.45876601
 H                    -1.23220582    -2.48591820    -1.78725135
 H                    -2.81713359    -1.73890206    -1.95791132
 C                    -1.20502462    -0.34052399    -1.88990065
 O                    -0.00844412    -0.25301426    -2.10442371
 N                    -1.94796643     0.74292659    -1.94891163
 H                    -2.93168341     0.69560226    -1.77264108
 H                    -1.45973057     1.62289702    -2.07218283
 C                    -0.04444305    -3.20275396     0.60407048
 O                    -0.64720721    -4.26146525     0.48226827
 N                     1.27462777    -3.16634593     0.44400602
 H                     1.78481772    -2.29982152     0.55106985
 H                     1.75182656    -4.02568146     0.22944419

 ==============================================================================
                                internuclear distances
 ------------------------------------------------------------------------------
       center one      |      center two      | atomic units |  angstroms
 ------------------------------------------------------------------------------
    2 C                |   1 H                |     2.05738  |     1.08872
    3 H                |   2 C                |     2.05621  |     1.08810
    4 H                |   2 C                |     2.05892  |     1.08953
    5 C                |   2 C                |     2.85243  |     1.50944
    6 O                |   5 C                |     2.31716  |     1.22619
    7 N                |   5 C                |     2.51836  |     1.33266
    8 H                |   7 N                |     1.90834  |     1.00985
    9 C                |   7 N                |     2.78400  |     1.47323
   10 H                |   9 C                |     2.06284  |     1.09161
   11 C                |   9 C                |     2.90677  |     1.53820
   12 H                |  11 C                |     2.05997  |     1.09009
   13 H                |  11 C                |     2.05832  |     1.08922
   14 C                |  11 C                |     2.86990  |     1.51869
   15 O                |  14 C                |     2.30357  |     1.21900
   16 N                |  14 C                |     2.47719  |     1.31087
   17 H                |  16 N                |     1.90743  |     1.00937
   18 H                |  16 N                |     1.89235  |     1.00139
   19 C                |   9 C                |     2.93245  |     1.55178
   20 O                |  19 C                |     2.32418  |     1.22990
   21 N                |  19 C                |     2.51746  |     1.33218
   22 H                |  21 N                |     1.91258  |     1.01209
   23 C                |  21 N                |     2.77061  |     1.46614
   24 H                |  23 C                |     2.06202  |     1.09117
   25 C                |  23 C                |     2.92101  |     1.54573
   26 H                |  25 C                |     2.06062  |     1.09043
   27 H                |  25 C                |     2.06184  |     1.09108
   28 C                |  25 C                |     2.91689  |     1.54355
   29 H                |  28 C                |     2.05898  |     1.08956
   30 H                |  28 C                |     2.06039  |     1.09031
   31 C                |  28 C                |     2.88078  |     1.52444
   32 O                |  31 C                |     2.30321  |     1.21880
   33 N                |  31 C                |     2.48505  |     1.31503
   34 H                |  33 N                |     1.89068  |     1.00050
   35 H                |  33 N                |     1.91592  |     1.01386
   36 C                |  23 C                |     2.91933  |     1.54484
   37 O                |  36 C                |     2.31368  |     1.22435
   38 N                |  36 C                |     2.51191  |     1.32925
   39 H                |  38 N                |     1.91098  |     1.01125
   40 H                |  38 N                |     1.90123  |     1.00609
 ------------------------------------------------------------------------------
                         number of included internuclear distances:         39
 ==============================================================================



 ==============================================================================
                                 internuclear angles
 ------------------------------------------------------------------------------
        center 1       |       center 2       |       center 3       |  degrees
 ------------------------------------------------------------------------------
    1 H                |   2 C                |   3 H                |   109.75
    1 H                |   2 C                |   4 H                |   109.44
    1 H                |   2 C                |   5 C                |   109.34
    3 H                |   2 C                |   4 H                |   109.74
    3 H                |   2 C                |   5 C                |   109.44
    4 H                |   2 C                |   5 C                |   109.11
    2 C                |   5 C                |   6 O                |   120.30
    2 C                |   5 C                |   7 N                |   117.01
    6 O                |   5 C                |   7 N                |   122.68
    5 C                |   7 N                |   8 H                |   117.37
    5 C                |   7 N                |   9 C                |   125.22
    8 H                |   7 N                |   9 C                |   117.40
    7 N                |   9 C                |  10 H                |   107.27
    7 N                |   9 C                |  11 C                |   108.25
    7 N                |   9 C                |  19 C                |   115.34
   10 H                |   9 C                |  11 C                |   108.07
   10 H                |   9 C                |  19 C                |   105.87
   11 C                |   9 C                |  19 C                |   111.71
    9 C                |  11 C                |  12 H                |   109.16
    9 C                |  11 C                |  13 H                |   110.00
    9 C                |  11 C                |  14 C                |   112.24
   12 H                |  11 C                |  13 H                |   107.77
   12 H                |  11 C                |  14 C                |   108.92
   13 H                |  11 C                |  14 C                |   108.65
   11 C                |  14 C                |  15 O                |   122.05
   11 C                |  14 C                |  16 N                |   117.88
   15 O                |  14 C                |  16 N                |   120.04
   14 C                |  16 N                |  17 H                |   118.97
   14 C                |  16 N                |  18 H                |   117.51
   17 H                |  16 N                |  18 H                |   123.09
    9 C                |  19 C                |  20 O                |   120.05
    9 C                |  19 C                |  21 N                |   117.73
   20 O                |  19 C                |  21 N                |   122.17
   19 C                |  21 N                |  22 H                |   115.89
   19 C                |  21 N                |  23 C                |   127.38
   22 H                |  21 N                |  23 C                |   116.67
   21 N                |  23 C                |  24 H                |   108.15
   21 N                |  23 C                |  25 C                |   109.90
   21 N                |  23 C                |  36 C                |   112.14
   24 H                |  23 C                |  25 C                |   107.67
   24 H                |  23 C                |  36 C                |   106.18
   25 C                |  23 C                |  36 C                |   112.55
   23 C                |  25 C                |  26 H                |   108.01
   23 C                |  25 C                |  27 H                |   108.96
   23 C                |  25 C                |  28 C                |   115.55
   26 H                |  25 C                |  27 H                |   107.03
   26 H                |  25 C                |  28 C                |   107.93
   27 H                |  25 C                |  28 C                |   109.03
   25 C                |  28 C                |  29 H                |   110.11
   25 C                |  28 C                |  30 H                |   108.47
   25 C                |  28 C                |  31 C                |   112.66
   29 H                |  28 C                |  30 H                |   107.72
   29 H                |  28 C                |  31 C                |   109.39
   30 H                |  28 C                |  31 C                |   108.35
   28 C                |  31 C                |  32 O                |   121.87
   28 C                |  31 C                |  33 N                |   118.80
   32 O                |  31 C                |  33 N                |   119.18
   31 C                |  33 N                |  34 H                |   120.57
   31 C                |  33 N                |  35 H                |   116.65
   34 H                |  33 N                |  35 H                |   122.41
   23 C                |  36 C                |  37 O                |   120.58
   23 C                |  36 C                |  38 N                |   119.40
   37 O                |  36 C                |  38 N                |   120.02
   36 C                |  38 N                |  39 H                |   120.76
   36 C                |  38 N                |  40 H                |   118.23
   39 H                |  38 N                |  40 H                |   121.01
 ------------------------------------------------------------------------------
                            number of included internuclear angles:         66
 ==============================================================================



  library name resolved from: environment
  library file name is: </opt/rit/el9/20230413/app/linux-rhel9-x86_64_v3/gcc-11.2.1/nwchem-7.2.0-oxtctbuhfuzyfaoziquq6bki22grib3g/share/nwchem/libraries/>
  


 Summary of "ao basis" -> "" (cartesian)
 ------------------------------------------------------------------------------
       Tag                 Description            Shells   Functions and Types
 ---------------- ------------------------------  ------  ---------------------
 *                        aug-cc-pvdz                 on all atoms 


                      Basis "ao basis" -> "ao basis" (cartesian)
                      -----
  H (Hydrogen)
  ------------
            Exponent  Coefficients 
       -------------- ---------------------------------------------------------
  1 S  1.30100000E+01  0.019685
  1 S  1.96200000E+00  0.137977
  1 S  4.44600000E-01  0.478148

  2 S  1.22000000E-01  1.000000

  3 S  2.97400000E-02  1.000000

  4 P  7.27000000E-01  1.000000

  5 P  1.41000000E-01  1.000000

  C (Carbon)
  ----------
            Exponent  Coefficients 
       -------------- ---------------------------------------------------------
  1 S  6.66500000E+03  0.000692
  1 S  1.00000000E+03  0.005329
  1 S  2.28000000E+02  0.027077
  1 S  6.47100000E+01  0.101718
  1 S  2.10600000E+01  0.274740
  1 S  7.49500000E+00  0.448564
  1 S  2.79700000E+00  0.285074
  1 S  5.21500000E-01  0.015204

  2 S  6.66500000E+03 -0.000146
  2 S  1.00000000E+03 -0.001154
  2 S  2.28000000E+02 -0.005725
  2 S  6.47100000E+01 -0.023312
  2 S  2.10600000E+01 -0.063955
  2 S  7.49500000E+00 -0.149981
  2 S  2.79700000E+00 -0.127262
  2 S  5.21500000E-01  0.544529

  3 S  1.59600000E-01  1.000000

  4 S  4.69000000E-02  1.000000

  5 P  9.43900000E+00  0.038109
  5 P  2.00200000E+00  0.209480
  5 P  5.45600000E-01  0.508557

  6 P  1.51700000E-01  1.000000

  7 P  4.04100000E-02  1.000000

  8 D  5.50000000E-01  1.000000

  9 D  1.51000000E-01  1.000000

  O (Oxygen)
  ----------
            Exponent  Coefficients 
       -------------- ---------------------------------------------------------
  1 S  1.17200000E+04  0.000710
  1 S  1.75900000E+03  0.005470
  1 S  4.00800000E+02  0.027837
  1 S  1.13700000E+02  0.104800
  1 S  3.70300000E+01  0.283062
  1 S  1.32700000E+01  0.448719
  1 S  5.02500000E+00  0.270952
  1 S  1.01300000E+00  0.015458

  2 S  1.17200000E+04 -0.000160
  2 S  1.75900000E+03 -0.001263
  2 S  4.00800000E+02 -0.006267
  2 S  1.13700000E+02 -0.025716
  2 S  3.70300000E+01 -0.070924
  2 S  1.32700000E+01 -0.165411
  2 S  5.02500000E+00 -0.116955
  2 S  1.01300000E+00  0.557368

  3 S  3.02300000E-01  1.000000

  4 S  7.89600000E-02  1.000000

  5 P  1.77000000E+01  0.043018
  5 P  3.85400000E+00  0.228913
  5 P  1.04600000E+00  0.508728

  6 P  2.75300000E-01  1.000000

  7 P  6.85600000E-02  1.000000

  8 D  1.18500000E+00  1.000000

  9 D  3.32000000E-01  1.000000

  N (Nitrogen)
  ------------
            Exponent  Coefficients 
       -------------- ---------------------------------------------------------
  1 S  9.04600000E+03  0.000700
  1 S  1.35700000E+03  0.005389
  1 S  3.09300000E+02  0.027406
  1 S  8.77300000E+01  0.103207
  1 S  2.85600000E+01  0.278723
  1 S  1.02100000E+01  0.448540
  1 S  3.83800000E+00  0.278238
  1 S  7.46600000E-01  0.015440

  2 S  9.04600000E+03 -0.000153
  2 S  1.35700000E+03 -0.001208
  2 S  3.09300000E+02 -0.005992
  2 S  8.77300000E+01 -0.024544
  2 S  2.85600000E+01 -0.067459
  2 S  1.02100000E+01 -0.158078
  2 S  3.83800000E+00 -0.121831
  2 S  7.46600000E-01  0.549003

  3 S  2.24800000E-01  1.000000

  4 S  6.12400000E-02  1.000000

  5 P  1.35500000E+01  0.039919
  5 P  2.91700000E+00  0.217169
  5 P  7.97300000E-01  0.510319

  6 P  2.18500000E-01  1.000000

  7 P  5.61100000E-02  1.000000

  8 D  8.17000000E-01  1.000000

  9 D  2.30000000E-01  1.000000



 Summary of "ao basis" -> "ao basis" (cartesian)
 ------------------------------------------------------------------------------
       Tag                 Description            Shells   Functions and Types
 ---------------- ------------------------------  ------  ---------------------
 H                        aug-cc-pvdz                5        9   3s2p
 C                        aug-cc-pvdz                9       25   4s3p2d
 O                        aug-cc-pvdz                9       25   4s3p2d
 N                        aug-cc-pvdz                9       25   4s3p2d


                                 NWChem SCF Module
                                 -----------------



  ao basis        = "ao basis"
  functions       =   696
  atoms           =    40
  closed shells   =    80
  open shells     =     0
  charge          =   0.00
  wavefunction    = RHF 
  input vectors   = atomic
  output vectors  = ./ASN_GLN_1.movecs
  use symmetry    = F
  symmetry adapt  = F


 Summary of "ao basis" -> "ao basis" (cartesian)
 ------------------------------------------------------------------------------
       Tag                 Description            Shells   Functions and Types
 ---------------- ------------------------------  ------  ---------------------
 H                        aug-cc-pvdz                5        9   3s2p
 C                        aug-cc-pvdz                9       25   4s3p2d
 O                        aug-cc-pvdz                9       25   4s3p2d
 N                        aug-cc-pvdz                9       25   4s3p2d



 Forming initial guess at       0.8s


 !! The overlap matrix has   6 vectors deemed linearly dependent with
    eigenvalues:
 2.80D-06 3.21D-06 5.57D-06 7.41D-06 8.37D-06 9.90D-06


      Superposition of Atomic Density Guess
      -------------------------------------

 Sum of atomic energies:       -1069.17223035

      Non-variational initial energy
      ------------------------------

 Total energy =   -1082.652205
 1-e energy   =   -5313.165051
 2-e energy   =    2291.165704
 HOMO         =      -0.306288
 LUMO         =       0.009411


 Starting SCF solution at     361.2s



 ----------------------------------------------
         Quadratically convergent ROHF

 Convergence threshold     :          1.000E-04
 Maximum no. of iterations :           30
 Final Fock-matrix accuracy:          1.000E-10
 ----------------------------------------------


              iter       energy          gnorm     gmax       time
             ----- ------------------- --------- --------- --------
                 1    -1073.9220435562  2.94D+00  1.23D-01    742.6
                 2    -1074.3692589541  9.41D-01  3.67D-02   1508.3
                 3    -1074.4466067859  7.59D-02  4.12D-03   2616.1
                 4    -1074.4474525758  4.83D-03  3.34D-04   4085.7
                 5    -1074.4474568803  1.06D-05  6.99D-07   6664.7


       Final RHF  results 
       ------------------ 

         Total SCF energy =  -1074.447456880266
      One-electron energy =  -5327.548533293581
      Two-electron energy =   2313.753934131515
 Nuclear repulsion energy =   1939.347142281801

        Time for solution =   6305.0s


             Final eigenvalues
             -----------------

              1      
    1  -20.5460
    2  -20.5407
    3  -20.5395
    4  -20.5260
    5  -20.5196
    6  -15.6100
    7  -15.6097
    8  -15.6012
    9  -15.5939
   10  -15.5856
   11  -11.3762
   12  -11.3748
   13  -11.3677
   14  -11.3578
   15  -11.3577
   16  -11.3244
   17  -11.3025
   18  -11.2771
   19  -11.2548
   20  -11.2532
   21  -11.2404
   22   -1.4180
   23   -1.4064
   24   -1.3980
   25   -1.3971
   26   -1.3826
   27   -1.2656
   28   -1.2514
   29   -1.2458
   30   -1.2284
   31   -1.2083
   32   -1.0945
   33   -1.0809
   34   -1.0079
   35   -0.9970
   36   -0.9356
   37   -0.8838
   38   -0.8351
   39   -0.8163
   40   -0.8106
   41   -0.8016
   42   -0.7847
   43   -0.7635
   44   -0.7475
   45   -0.7411
   46   -0.7229
   47   -0.7060
   48   -0.6912
   49   -0.6816
   50   -0.6795
   51   -0.6606
   52   -0.6522
   53   -0.6362
   54   -0.6259
   55   -0.6239
   56   -0.6107
   57   -0.6022
   58   -0.6003
   59   -0.5951
   60   -0.5853
   61   -0.5737
   62   -0.5723
   63   -0.5640
   64   -0.5568
   65   -0.5535
   66   -0.5416
   67   -0.5328
   68   -0.5225
   69   -0.5153
   70   -0.4970
   71   -0.4593
   72   -0.4496
   73   -0.4400
   74   -0.4359
   75   -0.4292
   76   -0.4270
   77   -0.4167
   78   -0.4053
   79   -0.4017
   80   -0.3914
   81    0.0229
   82    0.0308
   83    0.0379
   84    0.0452
   85    0.0471
   86    0.0508
   87    0.0560
   88    0.0594
   89    0.0616
   90    0.0691

                       ROHF Final Molecular Orbital Analysis
                       -------------------------------------

 Vector   22  Occ=2.000000D+00  E=-1.417979D+00
              MO Center= -8.4D-01,  2.9D+00, -2.5D-01, r^2= 1.8D+00
   Bfn.  Coefficient  Atom+Function         Bfn.  Coefficient  Atom+Function  
  ----- ------------  ---------------      ----- ------------  ---------------
   241      0.358628  15 O  s               240      0.338323  15 O  s         
   215      0.241908  14 C  s         

 Vector   23  Occ=2.000000D+00  E=-1.406444D+00
              MO Center=  1.3D+00,  2.9D-01,  6.0D-01, r^2= 4.9D+00
   Bfn.  Coefficient  Atom+Function         Bfn.  Coefficient  Atom+Function  
  ----- ------------  ---------------      ----- ------------  ---------------
    80      0.267689   6 O  s                79      0.262553   6 O  s         
   334      0.208279  20 O  s               333      0.190748  20 O  s         
    54      0.186187   5 C  s         

 Vector   24  Occ=2.000000D+00  E=-1.398019D+00
              MO Center=  4.0D-01, -2.7D-02, -4.5D-01, r^2= 5.9D+00
   Bfn.  Coefficient  Atom+Function         Bfn.  Coefficient  Atom+Function  
  ----- ------------  ---------------      ----- ------------  ---------------
   538      0.253842  32 O  s               537      0.239667  32 O  s         
    80     -0.199636   6 O  s                79     -0.194324   6 O  s         
   334      0.190252  20 O  s               333      0.171693  20 O  s         
   512      0.170151  31 C  s                12     -0.164717   2 C  s         

 Vector   25  Occ=2.000000D+00  E=-1.397110D+00
              MO Center= -1.6D-01,  4.7D-02, -2.0D-01, r^2= 5.6D+00
   Bfn.  Coefficient  Atom+Function         Bfn.  Coefficient  Atom+Function  
  ----- ------------  ---------------      ----- ------------  ---------------
   538     -0.261821  32 O  s               334      0.248637  20 O  s         
   537     -0.248735  32 O  s               333      0.225802  20 O  s         
   512     -0.176359  31 C  s               308      0.150264  19 C  s         

 Vector   26  Occ=2.000000D+00  E=-1.382577D+00
              MO Center= -2.9D-01, -3.7D+00,  5.5D-01, r^2= 1.4D+00
   Bfn.  Coefficient  Atom+Function         Bfn.  Coefficient  Atom+Function  
  ----- ------------  ---------------      ----- ------------  ---------------
   631      0.377466  37 O  s               630      0.348362  37 O  s         
   605      0.245722  36 C  s         

 Vector   27  Occ=2.000000D+00  E=-1.265641D+00
              MO Center=  1.1D+00,  4.5D-01,  4.8D-01, r^2= 3.7D+00
   Bfn.  Coefficient  Atom+Function         Bfn.  Coefficient  Atom+Function  
  ----- ------------  ---------------      ----- ------------  ---------------
   105      0.300302   7 N  s               104      0.263131   7 N  s         
   359      0.209184  21 N  s               358      0.197301  21 N  s         
    80     -0.182036   6 O  s               334     -0.175156  20 O  s         
   139     -0.166755   9 C  s                79     -0.153676   6 O  s         

 Vector   28  Occ=2.000000D+00  E=-1.251403D+00
              MO Center=  3.5D-01,  1.3D-01,  5.5D-01, r^2= 5.5D+00
   Bfn.  Coefficient  Atom+Function         Bfn.  Coefficient  Atom+Function  
  ----- ------------  ---------------      ----- ------------  ---------------
   359      0.324445  21 N  s               358      0.250098  21 N  s         
   105     -0.235275   7 N  s               104     -0.201601   7 N  s         

 Vector   29  Occ=2.000000D+00  E=-1.245846D+00
              MO Center= -1.4D+00,  2.4D+00,  5.8D-01, r^2= 3.3D+00
   Bfn.  Coefficient  Atom+Function         Bfn.  Coefficient  Atom+Function  
  ----- ------------  ---------------      ----- ------------  ---------------
   265      0.346065  16 N  s               266      0.322542  16 N  s         
   241     -0.207977  15 O  s               240     -0.173119  15 O  s         
   220      0.157044  14 C  pz              289      0.152828  17 H  s         

 Vector   30  Occ=2.000000D+00  E=-1.228370D+00
              MO Center= -1.6D+00,  4.2D-01, -1.9D+00, r^2= 1.3D+00
   Bfn.  Coefficient  Atom+Function         Bfn.  Coefficient  Atom+Function  
  ----- ------------  ---------------      ----- ------------  ---------------
   563      0.393780  33 N  s               562      0.366282  33 N  s         
   538     -0.243052  32 O  s               515     -0.194000  31 C  px        
   537     -0.191184  32 O  s               586      0.173695  34 H  s         

 Vector   31  Occ=2.000000D+00  E=-1.208324D+00
              MO Center=  8.2D-01, -3.0D+00,  5.2D-01, r^2= 2.2D+00
   Bfn.  Coefficient  Atom+Function         Bfn.  Coefficient  Atom+Function  
  ----- ------------  ---------------      ----- ------------  ---------------
   656      0.391609  38 N  s               655      0.360294  38 N  s         
   393     -0.189515  23 C  s               608      0.188497  36 C  px        
   631     -0.189299  37 O  s               359     -0.173807  21 N  s         
   630     -0.162352  37 O  s               679      0.157915  39 H  s         
   688      0.156197  40 H  s               611     -0.154661  36 C  px        

 Vector   32  Occ=2.000000D+00  E=-1.094509D+00
              MO Center=  1.2D-01,  6.5D-01,  4.8D-01, r^2= 7.3D+00
   Bfn.  Coefficient  Atom+Function         Bfn.  Coefficient  Atom+Function  
  ----- ------------  ---------------      ----- ------------  ---------------
   172      0.193869  11 C  s               138      0.186384   9 C  s         
   173      0.182982  11 C  s         

 Vector   33  Occ=2.000000D+00  E=-1.080875D+00
              MO Center= -8.0D-01, -2.1D-01,  4.1D-02, r^2= 7.6D+00
   Bfn.  Coefficient  Atom+Function         Bfn.  Coefficient  Atom+Function  
  ----- ------------  ---------------      ----- ------------  ---------------
   426      0.208798  25 C  s               469      0.192183  28 C  s         
   173      0.179115  11 C  s               172      0.172739  11 C  s         
   470      0.159382  28 C  s         

 Vector   34  Occ=2.000000D+00  E=-1.007943D+00
              MO Center=  1.6D+00,  7.5D-01, -6.6D-01, r^2= 8.1D+00
   Bfn.  Coefficient  Atom+Function         Bfn.  Coefficient  Atom+Function  
  ----- ------------  ---------------      ----- ------------  ---------------
   173      0.346498  11 C  s                11      0.273031   2 C  s         
   172      0.165068  11 C  s         

 Vector   35  Occ=2.000000D+00  E=-9.970364D-01
              MO Center= -2.6D-02, -9.8D-01, -4.4D-01, r^2= 7.7D+00
   Bfn.  Coefficient  Atom+Function         Bfn.  Coefficient  Atom+Function  
  ----- ------------  ---------------      ----- ------------  ---------------
   392      0.213355  23 C  s               469     -0.202412  28 C  s         
   607     -0.176046  36 C  s                11     -0.173500   2 C  s         

 Vector   36  Occ=2.000000D+00  E=-9.355624D-01
              MO Center=  4.4D-01,  1.3D+00,  4.9D-01, r^2= 7.0D+00
   Bfn.  Coefficient  Atom+Function         Bfn.  Coefficient  Atom+Function  
  ----- ------------  ---------------      ----- ------------  ---------------
   173      0.290508  11 C  s               138     -0.223621   9 C  s         
   178     -0.169317  11 C  px        

 Vector   37  Occ=2.000000D+00  E=-8.838143D-01
              MO Center= -1.1D+00, -1.4D+00, -1.3D-01, r^2= 5.7D+00
   Bfn.  Coefficient  Atom+Function         Bfn.  Coefficient  Atom+Function  
  ----- ------------  ---------------      ----- ------------  ---------------
   470      0.258822  28 C  s               426     -0.240475  25 C  s         
   398      0.225092  23 C  px              459     -0.153617  27 H  s         

 Vector   38  Occ=2.000000D+00  E=-8.350892D-01
              MO Center= -8.7D-02,  1.1D+00,  5.4D-01, r^2= 8.0D+00
   Bfn.  Coefficient  Atom+Function         Bfn.  Coefficient  Atom+Function  
  ----- ------------  ---------------      ----- ------------  ---------------
   268      0.220352  16 N  px              139      0.201255   9 C  s         
   393      0.172385  23 C  s               215      0.166422  14 C  s         
   108     -0.155668   7 N  py              399     -0.150961  23 C  py        

 Vector   39  Occ=2.000000D+00  E=-8.163100D-01
              MO Center=  3.1D-01,  1.1D+00, -8.6D-02, r^2= 7.9D+00
   Bfn.  Coefficient  Atom+Function         Bfn.  Coefficient  Atom+Function  
  ----- ------------  ---------------      ----- ------------  ---------------
   108      0.187267   7 N  py              128      0.162372   8 H  s         
   107     -0.161050   7 N  px              105      0.158605   7 N  s         
    54     -0.150383   5 C  s               268      0.151031  16 N  px        

 Vector   40  Occ=2.000000D+00  E=-8.105716D-01
              MO Center= -7.2D-01,  3.3D-01, -6.0D-01, r^2= 7.8D+00
   Bfn.  Coefficient  Atom+Function         Bfn.  Coefficient  Atom+Function  
  ----- ------------  ---------------      ----- ------------  ---------------
   309      0.208895  19 C  s               566     -0.197336  33 N  py        
   512      0.168938  31 C  s               586     -0.158643  34 H  s         
   565      0.156532  33 N  px        

 Vector   41  Occ=2.000000D+00  E=-8.016181D-01
              MO Center=  2.0D-01, -4.0D-01,  5.6D-01, r^2= 7.2D+00
   Bfn.  Coefficient  Atom+Function         Bfn.  Coefficient  Atom+Function  
  ----- ------------  ---------------      ----- ------------  ---------------
   309      0.233073  19 C  s               393      0.187836  23 C  s         
   363      0.186500  21 N  pz              383     -0.181831  22 H  s         
   658     -0.178753  38 N  px              382     -0.171825  22 H  s         
   362      0.170954  21 N  py              398      0.157409  23 C  px        

 Vector   42  Occ=2.000000D+00  E=-7.846741D-01
              MO Center= -5.8D-01, -9.6D-01, -1.1D-01, r^2= 7.5D+00
   Bfn.  Coefficient  Atom+Function         Bfn.  Coefficient  Atom+Function  
  ----- ------------  ---------------      ----- ------------  ---------------
   309      0.223566  19 C  s               399      0.192338  23 C  py        
   658      0.188117  38 N  px              359     -0.182504  21 N  s         
   611     -0.176035  36 C  px              382     -0.172920  22 H  s         
   565     -0.173230  33 N  px              586      0.158113  34 H  s         
   363      0.156079  21 N  pz        

 Vector   43  Occ=2.000000D+00  E=-7.635135D-01
              MO Center= -7.1D-01,  1.0D+00,  7.6D-01, r^2= 9.5D+00
   Bfn.  Coefficient  Atom+Function         Bfn.  Coefficient  Atom+Function  
  ----- ------------  ---------------      ----- ------------  ---------------
   270      0.286575  16 N  pz              289      0.247285  17 H  s         
   607      0.220068  36 C  s               298     -0.183888  18 H  s         
   309     -0.175864  19 C  s               658      0.165662  38 N  px        
   139      0.152372   9 C  s         

 Vector   44  Occ=2.000000D+00  E=-7.475497D-01
              MO Center= -2.5D-01, -1.5D-01,  3.9D-01, r^2= 1.0D+01
   Bfn.  Coefficient  Atom+Function         Bfn.  Coefficient  Atom+Function  
  ----- ------------  ---------------      ----- ------------  ---------------
   270      0.199459  16 N  pz              607     -0.200376  36 C  s         
   659     -0.197026  38 N  py              679     -0.197114  39 H  s         
   173     -0.176782  11 C  s               399      0.173615  23 C  py        
   298     -0.172272  18 H  s               289      0.166046  17 H  s         
   146     -0.152680   9 C  pz        

 Vector   45  Occ=2.000000D+00  E=-7.410789D-01
              MO Center= -1.6D+00,  4.6D-01, -1.4D+00, r^2= 4.7D+00
   Bfn.  Coefficient  Atom+Function         Bfn.  Coefficient  Atom+Function  
  ----- ------------  ---------------      ----- ------------  ---------------
   565      0.295288  33 N  px              595      0.275003  35 H  s         
   586     -0.259006  34 H  s               566      0.208473  33 N  py        
   470      0.179763  28 C  s               596      0.157216  35 H  s         

 Vector   46  Occ=2.000000D+00  E=-7.229155D-01
              MO Center=  8.1D-01,  2.1D-01,  3.9D-01, r^2= 7.6D+00
   Bfn.  Coefficient  Atom+Function         Bfn.  Coefficient  Atom+Function  
  ----- ------------  ---------------      ----- ------------  ---------------
   146      0.241229   9 C  pz              109     -0.219117   7 N  pz        
    55     -0.195886   5 C  s               309     -0.187568  19 C  s         
   312      0.184529  19 C  py              144     -0.181736   9 C  px        
   141     -0.173366   9 C  px              659     -0.170114  38 N  py        
   128      0.166221   8 H  s               427     -0.159263  25 C  s         

 Vector   47  Occ=2.000000D+00  E=-7.060421D-01
              MO Center=  9.2D-02,  6.9D-01,  3.9D-01, r^2= 1.0D+01
   Bfn.  Coefficient  Atom+Function         Bfn.  Coefficient  Atom+Function  
  ----- ------------  ---------------      ----- ------------  ---------------
   218      0.181768  14 C  px              268     -0.172734  16 N  px        
   659     -0.169371  38 N  py              688      0.166092  40 H  s         
   245      0.156537  15 O  pz        

 Vector   48  Occ=2.000000D+00  E=-6.911668D-01
              MO Center=  9.7D-01, -6.1D-01,  2.8D-01, r^2= 1.0D+01
   Bfn.  Coefficient  Atom+Function         Bfn.  Coefficient  Atom+Function  
  ----- ------------  ---------------      ----- ------------  ---------------
   659      0.217848  38 N  py              688     -0.189440  40 H  s         
    84     -0.167780   6 O  pz               80     -0.160810   6 O  s         

 Vector   49  Occ=2.000000D+00  E=-6.816248D-01
              MO Center=  5.0D-01, -2.3D-01, -4.0D-01, r^2= 9.2D+00
   Bfn.  Coefficient  Atom+Function         Bfn.  Coefficient  Atom+Function  
  ----- ------------  ---------------      ----- ------------  ---------------
    84      0.193999   6 O  pz              384     -0.181845  22 H  s         
    19     -0.155915   2 C  pz               80      0.155460   6 O  s         

 Vector   50  Occ=2.000000D+00  E=-6.795449D-01
              MO Center= -2.9D-01, -1.2D-01, -6.7D-01, r^2= 8.0D+00
   Bfn.  Coefficient  Atom+Function         Bfn.  Coefficient  Atom+Function  
  ----- ------------  ---------------      ----- ------------  ---------------
   540     -0.165745  32 O  px              472      0.155727  28 C  px        
   106      0.153454   7 N  s               502     -0.153720  30 H  s         
   516     -0.152321  31 C  py        

 Vector   51  Occ=2.000000D+00  E=-6.606474D-01
              MO Center=  4.6D-01,  6.6D-01,  9.8D-02, r^2= 9.1D+00
   Bfn.  Coefficient  Atom+Function         Bfn.  Coefficient  Atom+Function  
  ----- ------------  ---------------      ----- ------------  ---------------
   245      0.200360  15 O  pz              162      0.172541  10 H  s         

 Vector   52  Occ=2.000000D+00  E=-6.522257D-01
              MO Center= -4.7D-01, -5.0D-01,  5.5D-01, r^2= 7.6D+00
   Bfn.  Coefficient  Atom+Function         Bfn.  Coefficient  Atom+Function  
  ----- ------------  ---------------      ----- ------------  ---------------
   338      0.210017  20 O  pz              397      0.197258  23 C  pz        
   334      0.188904  20 O  s               416      0.171179  24 H  s         
   311      0.154436  19 C  px        

 Vector   53  Occ=2.000000D+00  E=-6.361658D-01
              MO Center= -1.0D-01,  7.3D-01,  4.3D-01, r^2= 9.1D+00
   Bfn.  Coefficient  Atom+Function         Bfn.  Coefficient  Atom+Function  
  ----- ------------  ---------------      ----- ------------  ---------------
   336      0.182854  20 O  px              244      0.167176  15 O  py        
   176      0.155546  11 C  py        

 Vector   54  Occ=2.000000D+00  E=-6.259137D-01
              MO Center=  5.5D-01,  4.5D-01, -5.6D-01, r^2= 9.3D+00
   Bfn.  Coefficient  Atom+Function         Bfn.  Coefficient  Atom+Function  
  ----- ------------  ---------------      ----- ------------  ---------------
   540      0.165994  32 O  px              139      0.161094   9 C  s         
    35     -0.156962   3 H  s         

 Vector   55  Occ=2.000000D+00  E=-6.239238D-01
              MO Center= -8.8D-01, -1.4D+00,  1.7D-01, r^2= 7.7D+00
   Bfn.  Coefficient  Atom+Function         Bfn.  Coefficient  Atom+Function  
  ----- ------------  ---------------      ----- ------------  ---------------
   634      0.184303  37 O  py              427      0.165409  25 C  s         
   336      0.162940  20 O  px              313      0.162129  19 C  pz        
   473      0.151491  28 C  py        

 Vector   56  Occ=2.000000D+00  E=-6.107490D-01
              MO Center=  3.6D-01,  8.3D-01, -2.4D-01, r^2= 9.4D+00
   Bfn.  Coefficient  Atom+Function         Bfn.  Coefficient  Atom+Function  
  ----- ------------  ---------------      ----- ------------  ---------------
   220     -0.148673  14 C  pz              540     -0.146358  32 O  px        
    82     -0.141981   6 O  px                1      0.137694   1 H  s         
   338     -0.135927  20 O  pz        

 Vector   57  Occ=2.000000D+00  E=-6.022328D-01
              MO Center=  2.0D-01, -1.3D-01, -1.4D-01, r^2= 1.2D+01
   Bfn.  Coefficient  Atom+Function         Bfn.  Coefficient  Atom+Function  
  ----- ------------  ---------------      ----- ------------  ---------------
   139      0.317074   9 C  s               173     -0.252547  11 C  s         
   428     -0.229240  25 C  s               634      0.201690  37 O  py        
   220      0.160696  14 C  pz              607      0.157621  36 C  s         
    83     -0.155833   6 O  py        

 Vector   58  Occ=2.000000D+00  E=-6.002958D-01
              MO Center= -3.7D-01,  8.5D-01,  2.2D-01, r^2= 1.0D+01
   Bfn.  Coefficient  Atom+Function         Bfn.  Coefficient  Atom+Function  
  ----- ------------  ---------------      ----- ------------  ---------------
   245      0.233728  15 O  pz              177      0.188719  11 C  pz        
   220     -0.177873  14 C  pz              173      0.171352  11 C  s         
   196      0.170508  12 H  s               427     -0.152402  25 C  s         

 Vector   59  Occ=2.000000D+00  E=-5.950638D-01
              MO Center=  2.2D-01,  3.7D-01,  1.9D-01, r^2= 8.9D+00
   Bfn.  Coefficient  Atom+Function         Bfn.  Coefficient  Atom+Function  
  ----- ------------  ---------------      ----- ------------  ---------------
   384      0.218886  22 H  s               206      0.213542  13 H  s         
   173     -0.191507  11 C  s               363     -0.165061  21 N  pz        
   205      0.152496  13 H  s               338     -0.150228  20 O  pz        

 Vector   60  Occ=2.000000D+00  E=-5.853385D-01
              MO Center=  6.5D-01, -3.4D-01, -5.6D-01, r^2= 8.5D+00
   Bfn.  Coefficient  Atom+Function         Bfn.  Coefficient  Atom+Function  
  ----- ------------  ---------------      ----- ------------  ---------------
    83      0.219701   6 O  py               59      0.186635   5 C  pz        

 Vector   61  Occ=2.000000D+00  E=-5.737131D-01
              MO Center=  9.9D-01,  6.2D-01, -2.6D-01, r^2= 1.1D+01
   Bfn.  Coefficient  Atom+Function         Bfn.  Coefficient  Atom+Function  
  ----- ------------  ---------------      ----- ------------  ---------------
    45      0.252596   4 H  s                44      0.194412   4 H  s         
    13     -0.172445   2 C  s                15     -0.171865   2 C  py        
   175     -0.159823  11 C  px              205     -0.154990  13 H  s         

 Vector   62  Occ=2.000000D+00  E=-5.722517D-01
              MO Center= -2.8D-01, -1.2D+00, -4.7D-01, r^2= 9.1D+00
   Bfn.  Coefficient  Atom+Function         Bfn.  Coefficient  Atom+Function  
  ----- ------------  ---------------      ----- ------------  ---------------
   609      0.197031  36 C  py              473      0.168952  28 C  py        
   633     -0.161616  37 O  px              493     -0.154850  29 H  s         

 Vector   63  Occ=2.000000D+00  E=-5.640256D-01
              MO Center=  1.5D-01,  8.8D-01,  4.1D-01, r^2= 1.0D+01
   Bfn.  Coefficient  Atom+Function         Bfn.  Coefficient  Atom+Function  
  ----- ------------  ---------------      ----- ------------  ---------------
   173      0.244560  11 C  s               205      0.226421  13 H  s         
   217     -0.206096  14 C  s               176      0.165589  11 C  py        
   311      0.160337  19 C  px              139     -0.150321   9 C  s         
   145     -0.150094   9 C  py        

 Vector   64  Occ=2.000000D+00  E=-5.567962D-01
              MO Center=  1.0D+00,  4.4D-01, -2.5D-01, r^2= 9.4D+00
   Bfn.  Coefficient  Atom+Function         Bfn.  Coefficient  Atom+Function  
  ----- ------------  ---------------      ----- ------------  ---------------
   427      0.249510  25 C  s                15      0.219491   2 C  py        
    44     -0.201474   4 H  s                45     -0.192573   4 H  s         
    56      0.176210   5 C  s               197      0.176280  12 H  s         
   143     -0.173255   9 C  pz              393     -0.171555  23 C  s         
   503     -0.168150  30 H  s                13      0.166251   2 C  s         

 Vector   65  Occ=2.000000D+00  E=-5.535216D-01
              MO Center= -2.3D-01, -2.0D+00, -2.1D-01, r^2= 7.9D+00
   Bfn.  Coefficient  Atom+Function         Bfn.  Coefficient  Atom+Function  
  ----- ------------  ---------------      ----- ------------  ---------------
   635      0.243634  37 O  pz              660      0.230296  38 N  pz        
   610      0.224851  36 C  pz               56     -0.215636   5 C  s         
   427      0.195625  25 C  s               638      0.184279  37 O  pz        
   663      0.181257  38 N  pz              502     -0.161030  30 H  s         
   542     -0.151864  32 O  pz        

 Vector   66  Occ=2.000000D+00  E=-5.416319D-01
              MO Center=  7.4D-01,  1.2D+00,  2.4D-02, r^2= 9.3D+00
   Bfn.  Coefficient  Atom+Function         Bfn.  Coefficient  Atom+Function  
  ----- ------------  ---------------      ----- ------------  ---------------
    44      0.193129   4 H  s               176     -0.184427  11 C  py        
   179     -0.181478  11 C  py              141     -0.179081   9 C  px        
   142      0.168443   9 C  py               14      0.162862   2 C  px        
   244      0.157213  15 O  py              196     -0.154197  12 H  s         

 Vector   67  Occ=2.000000D+00  E=-5.328287D-01
              MO Center=  5.3D-01, -2.7D-01, -2.3D-01, r^2= 9.8D+00
   Bfn.  Coefficient  Atom+Function         Bfn.  Coefficient  Atom+Function  
  ----- ------------  ---------------      ----- ------------  ---------------
   460      0.217611  27 H  s               450     -0.197808  26 H  s         
   337     -0.178463  20 O  py                1     -0.173735   1 H  s         
   139      0.171960   9 C  s               430      0.164531  25 C  py        
    14      0.163697   2 C  px               82     -0.156869   6 O  px        

 Vector   68  Occ=2.000000D+00  E=-5.225147D-01
              MO Center=  8.5D-02, -5.3D-01, -2.1D-01, r^2= 9.3D+00
   Bfn.  Coefficient  Atom+Function         Bfn.  Coefficient  Atom+Function  
  ----- ------------  ---------------      ----- ------------  ---------------
   460      0.274679  27 H  s               430      0.234519  25 C  py        
   451     -0.221752  26 H  s               450     -0.197256  26 H  s         
   459      0.173341  27 H  s               361      0.155781  21 N  px        

 Vector   69  Occ=2.000000D+00  E=-5.153224D-01
              MO Center= -1.2D+00, -1.2D+00, -8.5D-02, r^2= 6.6D+00
   Bfn.  Coefficient  Atom+Function         Bfn.  Coefficient  Atom+Function  
  ----- ------------  ---------------      ----- ------------  ---------------
   503      0.244739  30 H  s               494     -0.233061  29 H  s         
   460     -0.230381  27 H  s               459     -0.228668  27 H  s         
   493     -0.227819  29 H  s               429      0.222868  25 C  px        
   398     -0.204486  23 C  px              393      0.192238  23 C  s         
   395     -0.180800  23 C  px              472     -0.181469  28 C  px        

 Vector   70  Occ=2.000000D+00  E=-4.970439D-01
              MO Center= -1.2D+00, -1.3D+00,  1.5D-01, r^2= 6.0D+00
   Bfn.  Coefficient  Atom+Function         Bfn.  Coefficient  Atom+Function  
  ----- ------------  ---------------      ----- ------------  ---------------
   474     -0.271467  28 C  pz              431      0.265696  25 C  pz        
   427      0.225046  25 C  s               417     -0.219660  24 H  s         
   434      0.213472  25 C  pz              397     -0.210338  23 C  pz        
   477     -0.205640  28 C  pz              416     -0.191749  24 H  s         
   519      0.157706  31 C  py              338      0.150683  20 O  pz        

 Vector   71  Occ=2.000000D+00  E=-4.592814D-01
              MO Center=  5.2D-01,  4.6D-01,  1.2D+00, r^2= 5.4D+00
   Bfn.  Coefficient  Atom+Function         Bfn.  Coefficient  Atom+Function  
  ----- ------------  ---------------      ----- ------------  ---------------
   337      0.401492  20 O  py              340      0.320797  20 O  py        
   139     -0.262672   9 C  s               173      0.197085  11 C  s         
    83     -0.173077   6 O  py               82     -0.158894   6 O  px        
   140      0.156935   9 C  s         

 Vector   72  Occ=2.000000D+00  E=-4.495727D-01
              MO Center= -5.4D-01,  2.5D+00, -1.9D-01, r^2= 4.8D+00
   Bfn.  Coefficient  Atom+Function         Bfn.  Coefficient  Atom+Function  
  ----- ------------  ---------------      ----- ------------  ---------------
   243      0.487094  15 O  px              246      0.389437  15 O  px        
   173      0.246141  11 C  s               221     -0.229766  14 C  px        
   216     -0.199595  14 C  s               360     -0.184914  21 N  s         
   217     -0.165168  14 C  s               174      0.152163  11 C  s         

 Vector   73  Occ=2.000000D+00  E=-4.399875D-01
              MO Center=  1.8D+00, -1.3D-01,  7.8D-02, r^2= 6.8D+00
   Bfn.  Coefficient  Atom+Function         Bfn.  Coefficient  Atom+Function  
  ----- ------------  ---------------      ----- ------------  ---------------
    84     -0.322390   6 O  pz               82      0.294650   6 O  px        
    85      0.249008   6 O  px               87     -0.248924   6 O  pz        
    16     -0.181485   2 C  pz              105      0.177899   7 N  s         
    19     -0.173610   2 C  pz              360     -0.164511  21 N  s         
   417      0.150309  24 H  s         

 Vector   74  Occ=2.000000D+00  E=-4.358807D-01
              MO Center= -9.8D-01,  1.7D+00,  2.0D-02, r^2= 8.1D+00
   Bfn.  Coefficient  Atom+Function         Bfn.  Coefficient  Atom+Function  
  ----- ------------  ---------------      ----- ------------  ---------------
   269     -0.336811  16 N  py              244      0.324626  15 O  py        
   272     -0.286421  16 N  py              247      0.264807  15 O  py        
   267     -0.215117  16 N  s               541     -0.165759  32 O  py        

 Vector   75  Occ=2.000000D+00  E=-4.291655D-01
              MO Center= -2.5D-01, -9.1D-01,  2.5D-01, r^2= 1.2D+01
   Bfn.  Coefficient  Atom+Function         Bfn.  Coefficient  Atom+Function  
  ----- ------------  ---------------      ----- ------------  ---------------
   633      0.317445  37 O  px              636      0.248667  37 O  px        
   269      0.220621  16 N  py              417     -0.204182  24 H  s         
   272      0.187023  16 N  py              634     -0.185053  37 O  py        
   244     -0.182566  15 O  py               84     -0.174130   6 O  pz        
   247     -0.151378  15 O  py        

 Vector   76  Occ=2.000000D+00  E=-4.270391D-01
              MO Center= -4.5D-01, -3.0D-01, -1.5D+00, r^2= 4.5D+00
   Bfn.  Coefficient  Atom+Function         Bfn.  Coefficient  Atom+Function  
  ----- ------------  ---------------      ----- ------------  ---------------
   541      0.456578  32 O  py              544      0.369106  32 O  py        
   384      0.201517  22 H  s               360      0.199683  21 N  s         
   519     -0.188907  31 C  py              451      0.174963  26 H  s         
   513      0.174663  31 C  s               473      0.154693  28 C  py        

 Vector   77  Occ=2.000000D+00  E=-4.167227D-01
              MO Center= -9.7D-01, -1.9D-01, -1.4D+00, r^2= 5.5D+00
   Bfn.  Coefficient  Atom+Function         Bfn.  Coefficient  Atom+Function  
  ----- ------------  ---------------      ----- ------------  ---------------
   567      0.383548  33 N  pz              570      0.343865  33 N  pz        
   542     -0.342105  32 O  pz              564     -0.298403  33 N  s         
   545     -0.281366  32 O  pz              384      0.211732  22 H  s         
   633     -0.160116  37 O  px        

 Vector   78  Occ=2.000000D+00  E=-4.053041D-01
              MO Center=  4.7D-01, -3.0D+00,  4.0D-01, r^2= 4.9D+00
   Bfn.  Coefficient  Atom+Function         Bfn.  Coefficient  Atom+Function  
  ----- ------------  ---------------      ----- ------------  ---------------
   660     -0.398087  38 N  pz              635      0.361937  37 O  pz        
   663     -0.339661  38 N  pz              638      0.286075  37 O  pz        
   384     -0.274437  22 H  s               514      0.150578  31 C  s         

 Vector   79  Occ=2.000000D+00  E=-4.017079D-01
              MO Center=  7.6D-01, -1.7D-01,  4.5D-01, r^2= 7.9D+00
   Bfn.  Coefficient  Atom+Function         Bfn.  Coefficient  Atom+Function  
  ----- ------------  ---------------      ----- ------------  ---------------
   106      0.314179   7 N  s               107      0.245622   7 N  px        
   110      0.216687   7 N  px              108      0.192720   7 N  py        
   337     -0.188381  20 O  py              111      0.186416   7 N  py        
   174     -0.162281  11 C  s               633     -0.159065  37 O  px        
   340     -0.157312  20 O  py              145     -0.154485   9 C  py        

 Vector   80  Occ=2.000000D+00  E=-3.914046D-01
              MO Center= -1.7D-01, -9.5D-01,  8.4D-01, r^2= 5.6D+00
   Bfn.  Coefficient  Atom+Function         Bfn.  Coefficient  Atom+Function  
  ----- ------------  ---------------      ----- ------------  ---------------
   360      0.287856  21 N  s               361      0.258959  21 N  px        
   364      0.252803  21 N  px              363      0.231450  21 N  pz        
   607      0.227155  36 C  s               366      0.200461  21 N  pz        
   140     -0.194847   9 C  s               338     -0.182429  20 O  pz        
   394      0.181678  23 C  s               139      0.172095   9 C  s         

 Vector   81  Occ=0.000000D+00  E= 2.288262D-02
              MO Center= -4.0D+00,  1.8D+00, -3.8D-01, r^2= 2.0D+01
   Bfn.  Coefficient  Atom+Function         Bfn.  Coefficient  Atom+Function  
  ----- ------------  ---------------      ----- ------------  ---------------
   384      7.181945  22 H  s               267     -3.566144  16 N  s         
   217      3.172024  14 C  s               224     -2.393343  14 C  px        
   300     -1.954764  18 H  s               514      1.640620  31 C  s         
   564     -1.634702  33 N  s               149      1.619171   9 C  pz        
   148      1.537646   9 C  py              504     -1.470469  30 H  s         

 Vector   82  Occ=0.000000D+00  E= 3.082811D-02
              MO Center=  1.7D+00,  3.3D+00,  7.5D-01, r^2= 2.9D+01
   Bfn.  Coefficient  Atom+Function         Bfn.  Coefficient  Atom+Function  
  ----- ------------  ---------------      ----- ------------  ---------------
   384      5.129646  22 H  s               318      4.639775  19 C  py        
   174     -3.954027  11 C  s               360      3.525430  21 N  s         
   207     -3.236978  13 H  s               140     -3.124862   9 C  s         
   182      2.860762  11 C  py              402      2.230995  23 C  py        
   148      2.208943   9 C  py              164     -2.131311  10 H  s         

 Vector   83  Occ=0.000000D+00  E= 3.791726D-02
              MO Center=  1.6D-01,  7.7D-01, -1.2D+00, r^2= 4.3D+01
   Bfn.  Coefficient  Atom+Function         Bfn.  Coefficient  Atom+Function  
  ----- ------------  ---------------      ----- ------------  ---------------
   384      9.711287  22 H  s                63      4.275662   5 C  px        
    65     -4.250347   5 C  pz               56     -4.133426   5 C  s         
    13     -3.557532   2 C  s               607      2.919002  36 C  s         
   198      2.665948  12 H  s               140      2.478052   9 C  s         
   504     -2.339867  30 H  s               217     -2.327889  14 C  s         

 Vector   84  Occ=0.000000D+00  E= 4.524531D-02
              MO Center= -3.4D-01, -4.8D-01,  8.5D-01, r^2= 4.1D+01
   Bfn.  Coefficient  Atom+Function         Bfn.  Coefficient  Atom+Function  
  ----- ------------  ---------------      ----- ------------  ---------------
   384      4.653043  22 H  s               402     -3.111973  23 C  py        
   428     -3.094866  25 C  s               317     -2.974347  19 C  px        
   514      2.942322  31 C  s               164     -2.597851  10 H  s         
   318     -2.441421  19 C  py              418     -2.404057  24 H  s         
   522     -2.317722  31 C  py              310      2.283222  19 C  s         

 Vector   85  Occ=0.000000D+00  E= 4.708869D-02
              MO Center= -2.7D-01, -4.3D-02, -9.3D-01, r^2= 4.6D+01
   Bfn.  Coefficient  Atom+Function         Bfn.  Coefficient  Atom+Function  
  ----- ------------  ---------------      ----- ------------  ---------------
   217      5.193006  14 C  s               267     -4.126239  16 N  s         
   504      2.884963  30 H  s                65     -2.837747   5 C  pz        
   148     -2.559171   9 C  py               63      2.468584   5 C  px        
    56     -2.397597   5 C  s               174      2.120590  11 C  s         
    46     -1.943524   4 H  s               149     -1.888082   9 C  pz        

 Vector   86  Occ=0.000000D+00  E= 5.075263D-02
              MO Center= -4.3D-01, -1.6D-01, -4.1D-01, r^2= 4.4D+01
   Bfn.  Coefficient  Atom+Function         Bfn.  Coefficient  Atom+Function  
  ----- ------------  ---------------      ----- ------------  ---------------
   428      4.509288  25 C  s               394      3.898356  23 C  s         
   514     -3.900663  31 C  s               384     -3.721755  22 H  s         
   461      3.490109  27 H  s               452      3.104993  26 H  s         
   480     -3.109369  28 C  pz               37      2.939065   3 H  s         
   657     -2.812866  38 N  s               437     -2.783001  25 C  pz        

 Vector   87  Occ=0.000000D+00  E= 5.599052D-02
              MO Center= -4.1D-02,  9.6D-01,  8.0D-01, r^2= 4.0D+01
   Bfn.  Coefficient  Atom+Function         Bfn.  Coefficient  Atom+Function  
  ----- ------------  ---------------      ----- ------------  ---------------
   164      5.332018  10 H  s               149     -3.615492   9 C  pz        
    56     -3.182798   5 C  s               588      2.867011  34 H  s         
   217      2.242712  14 C  s                 3     -2.015416   1 H  s         
   564      2.005252  33 N  s               504     -1.992105  30 H  s         
   198     -1.946565  12 H  s                63      1.930053   5 C  px        

 Vector   88  Occ=0.000000D+00  E= 5.938971D-02
              MO Center=  1.4D+00,  5.9D-01,  1.6D-01, r^2= 4.4D+01
   Bfn.  Coefficient  Atom+Function         Bfn.  Coefficient  Atom+Function  
  ----- ------------  ---------------      ----- ------------  ---------------
   207      4.843110  13 H  s               198     -3.499645  12 H  s         
   174     -2.872325  11 C  s               164     -2.603311  10 H  s         
   183      2.478350  11 C  pz              657      2.479783  38 N  s         
[...]

 Vector  194  Occ=0.000000D+00  E= 4.371208D-01
              MO Center=  3.5D-01,  3.9D-01, -7.0D-02, r^2= 2.0D+01
   Bfn.  Coefficient  Atom+Function         Bfn.  Coefficient  Atom+Function  
  ----- ------------  ---------------      ----- ------------  ---------------
   217     27.282913  14 C  s               267    -17.061236  16 N  s         
   148     -9.300407   9 C  py               56     -8.797022   5 C  s         
   149     -6.492234   9 C  pz              106     -6.386856   7 N  s         
   182     -6.099714  11 C  py              274     -5.752943  16 N  px        
   140     -5.452076   9 C  s               181      5.094741  11 C  px        

 Vector  195  Occ=0.000000D+00  E= 4.451936D-01
              MO Center=  7.7D-01,  4.0D-01, -7.5D-01, r^2= 2.2D+01
   Bfn.  Coefficient  Atom+Function         Bfn.  Coefficient  Atom+Function  
  ----- ------------  ---------------      ----- ------------  ---------------
   217     16.601068  14 C  s                13     12.107674   2 C  s         
   140    -10.534204   9 C  s                56      9.030588   5 C  s         
   106     -8.551710   7 N  s               267     -7.793188  16 N  s         
   360      7.646938  21 N  s               607     -7.573720  36 C  s         
   403      7.513324  23 C  pz              318      6.445376  19 C  py        

 Vector  196  Occ=0.000000D+00  E= 4.491223D-01
              MO Center=  7.7D-01,  4.4D-01, -5.6D-01, r^2= 2.2D+01
   Bfn.  Coefficient  Atom+Function         Bfn.  Coefficient  Atom+Function  
  ----- ------------  ---------------      ----- ------------  ---------------
   402     11.751311  23 C  py              217     10.454808  14 C  s         
   384     -9.488430  22 H  s               657      8.548440  38 N  s         
   317      7.309249  19 C  px              614     -6.015807  36 C  px        
   115     -5.365278   7 N  pz              367     -5.189954  21 N  px        
     3      5.023857   1 H  s               681      4.796122  39 H  s         

 Vector  197  Occ=0.000000D+00  E= 4.521670D-01
              MO Center=  3.1D-01,  1.1D+00, -4.7D-01, r^2= 2.2D+01
   Bfn.  Coefficient  Atom+Function         Bfn.  Coefficient  Atom+Function  
  ----- ------------  ---------------      ----- ------------  ---------------
   217     17.628973  14 C  s               607     13.334673  36 C  s         
   514    -10.737971  31 C  s               368     10.272092  21 N  py        
   148     10.206709   9 C  py              317      9.521213  19 C  px        
   140     -8.507316   9 C  s               173      8.483813  11 C  s         
   106     -8.333900   7 N  s               402      8.018862  23 C  py        

 Vector  198  Occ=0.000000D+00  E= 4.538821D-01
              MO Center= -3.1D-01, -6.0D-01, -4.1D-01, r^2= 2.0D+01
   Bfn.  Coefficient  Atom+Function         Bfn.  Coefficient  Atom+Function  
  ----- ------------  ---------------      ----- ------------  ---------------
   217     24.730839  14 C  s               368    -10.021152  21 N  py        
   369     -8.583401  21 N  pz              267     -8.498923  16 N  s         
   436      8.234975  25 C  py              360      7.871581  21 N  s         
   401     -7.146369  23 C  px              148     -7.092840   9 C  py        
   521     -6.949907  31 C  px              461     -6.647708  27 H  s         

 Vector  199  Occ=0.000000D+00  E= 4.572142D-01
              MO Center=  3.3D-01, -4.2D-01,  2.2D-01, r^2= 2.0D+01
   Bfn.  Coefficient  Atom+Function         Bfn.  Coefficient  Atom+Function  
  ----- ------------  ---------------      ----- ------------  ---------------
   607    -12.611972  36 C  s               384     12.339500  22 H  s         
   368     -8.399452  21 N  py              360      8.337035  21 N  s         
   657      7.598927  38 N  s                56     -6.541402   5 C  s         
   106      5.988301   7 N  s               174     -5.940365  11 C  s         
   163      4.893308  10 H  s               317      4.565473  19 C  px        

 Vector  200  Occ=0.000000D+00  E= 4.618396D-01
              MO Center=  2.5D-01,  3.9D-01, -9.4D-02, r^2= 2.1D+01
   Bfn.  Coefficient  Atom+Function         Bfn.  Coefficient  Atom+Function  
  ----- ------------  ---------------      ----- ------------  ---------------
   317     15.237689  19 C  px              318     14.004902  19 C  py        
   607     13.965148  36 C  s               402     12.029407  23 C  py        
    56     -8.368154   5 C  s               267      7.191085  16 N  s         
    12     -6.494068   2 C  s               384     -6.192107  22 H  s         
    63      6.101394   5 C  px              471      6.105572  28 C  s         

 Vector  201  Occ=0.000000D+00  E= 4.669757D-01
              MO Center=  6.6D-01, -7.4D-01, -5.4D-02, r^2= 2.0D+01
   Bfn.  Coefficient  Atom+Function         Bfn.  Coefficient  Atom+Function  
  ----- ------------  ---------------      ----- ------------  ---------------
   217     15.588786  14 C  s               317    -14.123980  19 C  px        
   318    -12.937054  19 C  py              149     11.378592   9 C  pz        
   402    -10.884106  23 C  py              384     -9.446962  22 H  s         
   267     -8.737015  16 N  s               360     -8.526760  21 N  s         
   148     -7.234945   9 C  py              657     -7.224069  38 N  s         

 Vector  202  Occ=0.000000D+00  E= 4.696579D-01
              MO Center=  2.0D-01,  2.4D-01, -3.9D-01, r^2= 2.2D+01
   Bfn.  Coefficient  Atom+Function         Bfn.  Coefficient  Atom+Function  
  ----- ------------  ---------------      ----- ------------  ---------------
   428     15.501908  25 C  s               217     15.084678  14 C  s         
   514    -13.600764  31 C  s               607    -12.768605  36 C  s         
   106     12.238686   7 N  s               267     -9.023070  16 N  s         
   470     -8.663849  28 C  s               173     -8.121983  11 C  s         
   401      7.191326  23 C  px              149      7.056363   9 C  pz        

 Vector  203  Occ=0.000000D+00  E= 4.727357D-01
              MO Center= -6.7D-01,  1.5D-01, -5.7D-01, r^2= 1.8D+01
   Bfn.  Coefficient  Atom+Function         Bfn.  Coefficient  Atom+Function  
  ----- ------------  ---------------      ----- ------------  ---------------
   564     11.108197  33 N  s               174     -9.992545  11 C  s         
   514      8.415246  31 C  s               384      8.194067  22 H  s         
   106      7.895601   7 N  s               367      7.771905  21 N  px        
    12     -6.714612   2 C  s               607     -6.273335  36 C  s         
   539     -6.087233  32 O  s               587     -5.749541  34 H  s         

 Vector  204  Occ=0.000000D+00  E= 4.739611D-01
              MO Center= -2.8D-01,  2.3D-01,  1.5D-01, r^2= 2.0D+01
   Bfn.  Coefficient  Atom+Function         Bfn.  Coefficient  Atom+Function  
  ----- ------------  ---------------      ----- ------------  ---------------
   217     41.986770  14 C  s               267    -20.897520  16 N  s         
   140    -13.043522   9 C  s               384     12.064771  22 H  s         
   514    -11.562946  31 C  s               148     -8.773410   9 C  py        
   318      8.334068  19 C  py              470     -6.178878  28 C  s         
   242     -6.108151  15 O  s               106     -5.991880   7 N  s         

 Vector  205  Occ=0.000000D+00  E= 4.795707D-01
              MO Center= -8.2D-01, -7.3D-02, -3.8D-01, r^2= 1.9D+01
   Bfn.  Coefficient  Atom+Function         Bfn.  Coefficient  Atom+Function  
  ----- ------------  ---------------      ----- ------------  ---------------
   607     10.095490  36 C  s               318      6.677367  19 C  py        
   149     -6.191430   9 C  pz              514      5.899873  31 C  s         
   428     -5.734460  25 C  s               217     -4.681713  14 C  s         
   224      4.698804  14 C  px              435     -4.691427  25 C  px        
   115     -4.379695   7 N  pz              571     -4.367201  33 N  px        

 Vector  206  Occ=0.000000D+00  E= 4.859704D-01
              MO Center= -2.8D-01, -1.8D-02, -3.5D-01, r^2= 2.0D+01
   Bfn.  Coefficient  Atom+Function         Bfn.  Coefficient  Atom+Function  
  ----- ------------  ---------------      ----- ------------  ---------------
   514     13.270840  31 C  s               471     11.028301  28 C  s         
   267     -8.812902  16 N  s               140     -8.377853   9 C  s         
   217      7.501451  14 C  s               460     -7.053452  27 H  s         
   149      6.586775   9 C  pz               12     -6.304317   2 C  s         
   114      6.268998   7 N  py              317     -6.006213  19 C  px        

 Vector  207  Occ=0.000000D+00  E= 4.881320D-01
              MO Center=  4.9D-02,  1.1D+00,  1.1D-01, r^2= 1.9D+01
   Bfn.  Coefficient  Atom+Function         Bfn.  Coefficient  Atom+Function  
  ----- ------------  ---------------      ----- ------------  ---------------
   471     15.943030  28 C  s               514     15.958829  31 C  s         
   428    -12.180006  25 C  s               384    -11.346457  22 H  s         
   564    -10.858032  33 N  s               217      9.446317  14 C  s         
   367     -6.786628  21 N  px              369      6.731549  21 N  pz        
   360      6.244196  21 N  s               140     -6.090582   9 C  s         

 Vector  208  Occ=0.000000D+00  E= 4.900706D-01
              MO Center=  5.2D-01, -1.5D-01, -6.7D-01, r^2= 2.0D+01
   Bfn.  Coefficient  Atom+Function         Bfn.  Coefficient  Atom+Function  
  ----- ------------  ---------------      ----- ------------  ---------------
   384     26.825890  22 H  s               402     14.776214  23 C  py        
   607     13.342496  36 C  s               310    -13.195850  19 C  s         
   360    -10.847632  21 N  s                12    -10.113308   2 C  s         
   318     10.143811  19 C  py              317      9.651038  19 C  px        
   217     -9.152640  14 C  s                13     -7.945897   2 C  s         

 Vector  209  Occ=0.000000D+00  E= 4.960701D-01
              MO Center= -2.3D-01, -2.7D-02,  5.9D-01, r^2= 2.0D+01
   Bfn.  Coefficient  Atom+Function         Bfn.  Coefficient  Atom+Function  
  ----- ------------  ---------------      ----- ------------  ---------------
   217     17.096626  14 C  s               318     12.907823  19 C  py        
   384     12.672187  22 H  s               310    -11.299142  19 C  s         
    13    -10.044441   2 C  s               174    -10.089670  11 C  s         
   317     10.081102  19 C  px              140     -9.974391   9 C  s         
   428      9.265799  25 C  s               173     -8.952324  11 C  s         

 Vector  210  Occ=0.000000D+00  E= 5.018505D-01
              MO Center= -4.4D-01, -3.0D-01, -1.5D-01, r^2= 1.9D+01
   Bfn.  Coefficient  Atom+Function         Bfn.  Coefficient  Atom+Function  
  ----- ------------  ---------------      ----- ------------  ---------------
   514     29.299130  31 C  s               217     19.374194  14 C  s         
   428    -17.860986  25 C  s               360     16.401098  21 N  s         
   471     13.653647  28 C  s               174    -13.157647  11 C  s         
   437     10.842746  25 C  pz              402    -10.246645  23 C  py        
   140     -9.669830   9 C  s               480      9.102746  28 C  pz        


 center of mass
 --------------
 x =   0.00669158 y =  -0.01765254 z =   0.02631842

 moments of inertia (a.u.)
 ------------------
        6491.479450574107           0.000000000001          -0.000000000000
           0.000000000001        4568.421805648070          -0.000000000000
          -0.000000000000          -0.000000000000        7526.496315186370

  Mulliken analysis of the total density
  --------------------------------------

    Atom       Charge   Shell Charges
 -----------   ------   -------------------------------------------------------
    1 H    1     0.83   0.75  0.09  0.02  0.03 -0.06
    2 C    6     6.34   2.01  0.66  0.30  0.15  2.07  0.98 -0.02  0.06  0.13
    3 H    1     0.80   0.77  0.07  0.00  0.03 -0.07
    4 H    1     0.98   0.77  0.25  0.01  0.03 -0.07
    5 C    6     5.26   2.01  0.68  0.10  0.01  1.89  0.37 -0.03  0.24 -0.01
    6 O    8     8.89   2.01  0.81  1.01  0.21  2.80  1.87  0.17  0.01 -0.01
    7 N    7     7.40   2.01  0.72  0.79 -0.12  2.45  1.44  0.02  0.05  0.03
    8 H    1     0.89   0.75  0.13 -0.02  0.05 -0.03
    9 C    6     6.28   2.01  0.66  0.06  0.05  1.99  1.24  0.04  0.14  0.09
   10 H    1     1.00   0.78  0.17  0.02  0.03 -0.00
   11 C    6     6.66   2.01  0.66  0.84  0.01  2.06  0.84 -0.02  0.09  0.17
   12 H    1     0.82   0.77  0.08 -0.00  0.03 -0.06
   13 H    1     0.82   0.77  0.11 -0.01  0.03 -0.09
   14 C    6     4.52   2.01  0.68 -0.02  0.03  1.91 -0.23  0.04  0.24 -0.14
   15 O    8     8.89   2.01  0.81  1.03  0.19  2.81  1.86  0.16  0.02 -0.00
   16 N    7     7.18   2.01  0.72  0.78 -0.13  2.47  1.25  0.07  0.04 -0.02
   17 H    1     0.89   0.74  0.15 -0.01  0.06 -0.05
   18 H    1     1.01   0.76  0.22 -0.01  0.05 -0.02
   19 C    6     4.78   2.01  0.68  0.10  0.02  1.88  0.15  0.03  0.24 -0.34
   20 O    8     8.99   2.01  0.82  1.06  0.23  2.80  1.89  0.17  0.01  0.00
   21 N    7     7.42   2.01  0.72  0.87 -0.07  2.46  1.41 -0.09  0.06  0.06
   22 H    1     0.82   0.75  0.17 -0.03  0.06 -0.12
   23 C    6     6.17   2.01  0.66 -0.08  0.04  1.99  1.36  0.06  0.14 -0.01
   24 H    1     1.22   0.77  0.43 -0.01  0.03  0.00
   25 C    6     5.67   2.01  0.66  0.32 -0.05  2.03  0.54 -0.02  0.09  0.08
   26 H    1     1.01   0.78  0.26  0.02  0.03 -0.07
   27 H    1     0.98   0.78  0.28 -0.04  0.03 -0.08
   28 C    6     6.31   2.01  0.66  0.56 -0.06  2.05  0.88  0.00  0.09  0.12
   29 H    1     0.89   0.77  0.14 -0.02  0.03 -0.03
   30 H    1     1.01   0.78  0.29 -0.01  0.03 -0.08
   31 C    6     4.71   2.01  0.68  0.06  0.06  1.90 -0.15  0.02  0.24 -0.11
   32 O    8     8.93   2.01  0.81  1.03  0.17  2.81  1.87  0.21  0.02 -0.00
   33 N    7     7.23   2.01  0.72  0.83 -0.14  2.47  1.28  0.04  0.04 -0.02
   34 H    1     0.99   0.77  0.21 -0.00  0.05 -0.04
   35 H    1     0.89   0.73  0.18 -0.02  0.06 -0.05
   36 C    6     4.54   2.01  0.68  0.11 -0.10  1.89 -0.19  0.01  0.24 -0.10
   37 O    8     8.84   2.01  0.82  1.04  0.19  2.79  1.84  0.15  0.01 -0.00
   38 N    7     7.26   2.01  0.72  0.83 -0.14  2.46  1.25  0.10  0.04 -0.01
   39 H    1     0.90   0.73  0.22 -0.02  0.06 -0.10
   40 H    1     0.99   0.75  0.22 -0.01  0.05 -0.03

       Multipole analysis of the density wrt the origin
       ------------------------------------------------

     L   x y z        total         open         nuclear
     -   - - -        -----         ----         -------
     0   0 0 0     -0.000000      0.000000    160.000000

     1   1 0 0     -0.658342      0.000000     -0.000000
     1   0 1 0      1.950466      0.000000      0.000000
     1   0 0 1     -0.248470      0.000000      0.000000

     2   2 0 0    -80.831349      0.000000   1573.437571
     2   1 1 0     -2.839770      0.000000     10.269362
     2   1 0 1      0.911495      0.000000    -15.464135
     2   0 2 0   -103.986082      0.000000   2523.894058
     2   0 1 1      6.921354      0.000000     16.037735
     2   0 0 2    -98.801628      0.000000    965.462805


 Task  times  cpu:     6666.9s     wall:     6687.4s


                                NWChem Input Module
                                -------------------


 Summary of allocated global arrays
-----------------------------------
  No active global arrays


MA_summarize_allocated_blocks: starting scan ...
MA_summarize_allocated_blocks: scan completed: 0 heap blocks, 0 stack blocks
MA usage statistics:

	allocation statistics:
					      heap	     stack
					      ----	     -----
	current number of blocks	         0	         0
	maximum number of blocks	        16	        14
	current total bytes		         0	         0
	maximum total bytes		    148488	  31456168
	maximum total K-bytes		       149	     31457
	maximum total M-bytes		         1	        32


                                     CITATION
                                     --------
                Please cite the following reference when publishing
                           results obtained with NWChem:

          E. Apra, E. J. Bylaska, W. A. de Jong, N. Govind, K. Kowalski,
       T. P. Straatsma, M. Valiev, H. J. J. van Dam, Y. Alexeev, J. Anchell,
       V. Anisimov, F. W. Aquino, R. Atta-Fynn, J. Autschbach, N. P. Bauman,
     J. C. Becca, D. E. Bernholdt, K. Bhaskaran-Nair, S. Bogatko, P. Borowski,
         J. Boschen, J. Brabec, A. Bruner, E. Cauet, Y. Chen, G. N. Chuev,
      C. J. Cramer, J. Daily, M. J. O. Deegan, T. H. Dunning Jr., M. Dupuis,
   K. G. Dyall, G. I. Fann, S. A. Fischer, A. Fonari, H. Fruchtl, L. Gagliardi,
      J. Garza, N. Gawande, S. Ghosh, K. Glaesemann, A. W. Gotz, J. Hammond,
       V. Helms, E. D. Hermes, K. Hirao, S. Hirata, M. Jacquelin, L. Jensen,
   B. G. Johnson, H. Jonsson, R. A. Kendall, M. Klemm, R. Kobayashi, V. Konkov,
      S. Krishnamoorthy, M. Krishnan, Z. Lin, R. D. Lins, R. J. Littlefield,
      A. J. Logsdail, K. Lopata, W. Ma, A. V. Marenich, J. Martin del Campo,
   D. Mejia-Rodriguez, J. E. Moore, J. M. Mullin, T. Nakajima, D. R. Nascimento,
    J. A. Nichols, P. J. Nichols, J. Nieplocha, A. Otero-de-la-Roza, B. Palmer,
    A. Panyala, T. Pirojsirikul, B. Peng, R. Peverati, J. Pittner, L. Pollack,
   R. M. Richard, P. Sadayappan, G. C. Schatz, W. A. Shelton, D. W. Silverstein,
   D. M. A. Smith, T. A. Soares, D. Song, M. Swart, H. L. Taylor, G. S. Thomas,
            V. Tipparaju, D. G. Truhlar, K. Tsemekhman, T. Van Voorhis,
      A. Vazquez-Mayagoitia, P. Verma, O. Villa, A. Vishnu, K. D. Vogiatzis,
        D. Wang, J. H. Weare, M. J. Williamson, T. L. Windus, K. Wolinski,
        A. T. Wong, Q. Wu, C. Yang, Q. Yu, M. Zacharias, Z. Zhang, Y. Zhao,
                                and R. J. Harrison
                        "NWChem: Past, present, and future
                         J. Chem. Phys. 152, 184102 (2020)
                               doi:10.1063/5.0004997

                                      AUTHORS
                                      -------
  E. Apra, E. J. Bylaska, N. Govind, K. Kowalski, M. Valiev, D. Mejia-Rodriguez,
       A. Kunitsa, N. P. Bauman, A. Panyala, W. A. de Jong, T. P. Straatsma,
   H. J. J. van Dam, D. Wang, T. L. Windus, J. Hammond, J. Autschbach, A. Woods,
    K. Bhaskaran-Nair, J. Brabec, K. Lopata, S. A. Fischer, S. Krishnamoorthy,
     M. Jacquelin, W. Ma, M. Klemm, O. Villa, Y. Chen, V. Anisimov, F. Aquino,
     S. Hirata, M. T. Hackler, E. Hermes, L. Jensen, J. E. Moore, J. C. Becca,
      V. Konjkov, T. Risthaus, M. Malagoli, A. Marenich, A. Otero-de-la-Roza,
        J. Mullin, P. Nichols, R. Peverati, J. Pittner, Y. Zhao, P.-D. Fan,
        A. Fonari, M. J. Williamson, R. J. Harrison, J. R. Rehr, M. Dupuis,
     D. Silverstein, D. M. A. Smith, J. Nieplocha, V. Tipparaju, M. Krishnan,
     B. E. Van Kuiken, A. Vazquez-Mayagoitia, M. Swart, Q. Wu, T. Van Voorhis,
     A. A. Auer, M. Nooijen, L. D. Crosby, E. Brown, G. Cisneros, G. I. Fann,
   H. Fruchtl, J. Garza, K. Hirao, R. A. Kendall, J. A. Nichols, K. Tsemekhman,
    K. Wolinski, J. Anchell, D. E. Bernholdt, P. Borowski, T. Clark, D. Clerc,
   H. Dachsel, M. J. O. Deegan, K. Dyall, D. Elwood, E. Glendening, M. Gutowski,
   A. C. Hess, J. Jaffe, B. G. Johnson, J. Ju, R. Kobayashi, R. Kutteh, Z. Lin,
   R. Littlefield, X. Long, B. Meng, T. Nakajima, S. Niu, L. Pollack, M. Rosing,
   K. Glaesemann, G. Sandrone, M. Stave, H. Taylor, G. Thomas, J. H. van Lenthe,
                               A. T. Wong, Z. Zhang.

 Total times  cpu:     6666.9s     wall:     6687.8s
