export TMOUT=5400
export TMPDIR=/tmp
export PTMPDIR=/tmp/ptmp
 argument  1 = inputs/ASN_ASN_0.nw



============================== echo of input deck ==============================
start ASN_ASN_0
geometry
H          2.32400       12.68200       -2.09700
C          2.38400       11.59500       -2.11000
H          3.17700       11.28200       -2.78800
H          1.43200       11.17800       -2.43500
C          2.70200       11.10200       -0.72000
O          2.96100       11.89500        0.17700
N          2.70600        9.78200       -0.53600
H          2.42400        9.19300       -1.31000
C          2.94300        9.12900        0.76200
H          2.21200        9.51700        1.47300
C          2.71900        7.61200        0.60900
H          3.48000        7.19900       -0.05400
H          2.83100        7.13500        1.58200
C          1.36000        7.26500        0.03000
O          1.10500        7.44100       -1.14800
N          0.44200        6.77400        0.82900
H         -0.44200        6.55900        0.40400
H          0.63300        6.62900        1.80300
C          4.33300        9.41100        1.36900
O          4.54500        9.16200        2.55200
N          5.27200        9.93400        0.57700
H          5.02000       10.11600       -0.38600
C          6.58500       10.41500        1.01500
H          6.97800        9.72600        1.76500
C          7.51600       10.39900       -0.20900
H          8.52500       10.67700        0.09400
H          7.55300        9.39500       -0.63000
C          7.02700       11.35300       -1.28300
O          6.14500       11.03600       -2.06300
N          7.53400       12.56200       -1.31500
H          7.16600       13.18700       -2.00900
H          8.17700       12.85400       -0.59800
C          6.55700       11.81900        1.66700
O          7.60900       12.36900        1.97500
N          5.40400       12.45700        1.82300
H          5.41500       13.37400        2.23600
H          4.54100       12.04800        1.49000
end

basis
 * library aug-cc-pvdz
end

echo

scf
 direct
end

task scf energy
================================================================================


                                         
                                         


             Northwest Computational Chemistry Package (NWChem) 7.2.0
             --------------------------------------------------------


                    Environmental Molecular Sciences Laboratory
                       Pacific Northwest National Laboratory
                                Richland, WA 99352

                              Copyright (c) 1994-2022
                       Pacific Northwest National Laboratory
                            Battelle Memorial Institute

             NWChem is an open-source computational chemistry package
                        distributed under the terms of the
                      Educational Community License (ECL) 2.0
             A copy of the license is included with this distribution
                              in the LICENSE.TXT file

                                  ACKNOWLEDGMENT
                                  --------------

            This software and its documentation were developed at the
            EMSL at Pacific Northwest National Laboratory, a multiprogram
            national laboratory, operated for the U.S. Department of Energy
            by Battelle under Contract Number DE-AC05-76RL01830. Support
            for this work was provided by the Department of Energy Office
            of Biological and Environmental Research, Office of Basic
            Energy Sciences, and the Office of Advanced Scientific Computing.


           Job information
           ---------------

    hostname        = nova21-swift-1
    program         = /opt/rit/el9/20230413/app/linux-rhel9-x86_64_v3/gcc-11.2.1/nwchem-7.2.0-oxtctbuhfuzyfaoziquq6bki22grib3g/bin/nwchem
    date            = Thu Jul 10 02:32:24 2025

    compiled        = Wed_May_17_23:46:39_2023
    source          = /tmp/root/spack-stage/spack-stage-nwchem-7.2.0-oxtctbuhfuzyfaoziquq6bki22grib3g/spack-src
    nwchem branch   = 7.2.0
    nwchem revision = d0d141fd
    ga revision     = 5.8.0
    use scalapack   = T
    input           = inputs/ASN_ASN_0.nw
    prefix          = ASN_ASN_0.
    data base       = ./ASN_ASN_0.db
    status          = startup
    nproc           =        8
    time left       =     -1s



           Memory information
           ------------------

    heap     =   26214396 doubles =    200.0 Mbytes
    stack    =   26214401 doubles =    200.0 Mbytes
    global   =   52428800 doubles =    400.0 Mbytes (distinct from heap & stack)
    total    =  104857597 doubles =    800.0 Mbytes
    verify   = yes
    hardfail = no 


           Directory information
           ---------------------

  0 permanent = .
  0 scratch   = .




                                NWChem Input Module
                                -------------------



 Scaling coordinates for geometry "geometry" by  1.889725989
 (inverse scale =  0.529177249)

 C1  symmetry detected

          ------
          auto-z
          ------
  no constraints, skipping    0.0000000000000000     
  no constraints, skipping    0.0000000000000000     


                             Geometry "geometry" -> ""
                             -------------------------

 Output coordinates in angstroms (scale by  1.889725989 to convert to a.u.)

  No.       Tag          Charge          X              Y              Z
 ---- ---------------- ---------- -------------- -------------- --------------
    1 H                    1.0000    -3.43831159    -0.29627507     1.91302513
    2 C                    6.0000    -3.03287063    -0.87912455     1.08765121
    3 H                    1.0000    -3.34620735    -0.43850330     0.14204293
    4 H                    1.0000    -3.38767018    -1.90652959     1.15378878
    5 C                    6.0000    -1.52618700    -0.86026092     1.16395067
    6 O                    8.0000    -0.95405238    -0.15909431     1.98952099
    7 N                    7.0000    -0.86970115    -1.61737847     0.28527477
    8 H                    1.0000    -1.41208068    -2.21467847    -0.32675314
    9 C                    6.0000     0.59509090    -1.76039092     0.24902988
   10 H                    1.0000     0.92442886    -2.10592355     1.23013625
   11 C                    6.0000     0.96937109    -2.82863686    -0.79674205
   12 H                    1.0000     0.69935858    -2.47161382    -1.79116992
   13 H                    1.0000     2.04779329    -2.98199207    -0.77972003
   14 C                    6.0000     0.26716736    -4.15495230    -0.57240237
   15 O                    8.0000    -0.91666177    -4.29956294    -0.82003386
   16 N                    7.0000     0.95934723    -5.16008913    -0.08991614
   17 H                    1.0000     0.45505876    -6.01822322     0.04276775
   18 H                    1.0000     1.93345033    -5.05635754     0.12582655
   19 C                    6.0000     1.35369207    -0.44566837    -0.02683585
   20 O                    8.0000     2.55931460    -0.37825915     0.19308305
   21 N                    7.0000     0.66072315     0.59536696    -0.49433292
   22 H                    1.0000    -0.33111819     0.46386979    -0.64584611
   23 C                    6.0000     1.17578270     1.95736370    -0.65820031
   24 H                    1.0000     2.19622222     1.90201773    -1.04201018
   25 C                    6.0000     0.29218979     2.66444957    -1.69958696
   26 H                    1.0000     0.69177369     3.65676727    -1.90649826
   27 H                    1.0000     0.29432139     2.09744690    -2.62971030
   28 C                    6.0000    -1.14014251     2.78475799    -1.21310670
   29 O                    8.0000    -1.92566648     1.85714920    -1.30957967
   30 N                    7.0000    -1.50211143     3.89816347    -0.62229306
   31 H                    1.0000    -2.44268850     3.93855291    -0.27391330
   32 H                    1.0000    -0.81850311     4.61473826    -0.44340134
   33 C                    6.0000     1.23516713     2.77169113     0.65726475
   34 O                    8.0000     1.54809576     3.95710389     0.62660091
   35 N                    7.0000     0.87592700     2.20950803     1.80429818
   36 H                    1.0000     0.90982902     2.76476699     2.64222248
   37 H                    1.0000     0.53124665     1.25887644     1.82513189

      Atomic Mass 
      ----------- 

      H                  1.007825
      C                 12.000000
      O                 15.994910
      N                 14.003070


 Effective nuclear repulsion energy (a.u.)    1705.4031840696

            Nuclear Dipole moment (a.u.) 
            ----------------------------
        X                 Y               Z
 ---------------- ---------------- ----------------
     0.0000000000    -0.0000000000     0.0000000000



                                Z-matrix (autoz)
                                -------- 

 Units are Angstrom for bonds and degrees for angles

      Type          Name      I     J     K     L     M      Value
      ----------- --------  ----- ----- ----- ----- ----- ----------
    1 Stretch                  1     2                       1.08873
    2 Stretch                  2     3                       1.08927
    3 Stretch                  2     4                       1.08895
    4 Stretch                  2     5                       1.50873
    5 Stretch                  5     6                       1.22496
    6 Stretch                  5     7                       1.33277
    7 Stretch                  7     8                       1.01268
    8 Stretch                  7     9                       1.47220
    9 Stretch                  9    10                       1.09107
   10 Stretch                  9    11                       1.54106
   11 Stretch                  9    19                       1.54275
   12 Stretch                 11    12                       1.09053
   13 Stretch                 11    13                       1.08940
   14 Stretch                 11    14                       1.51741
   15 Stretch                 14    15                       1.21807
   16 Stretch                 14    16                       1.31233
   17 Stretch                 16    17                       1.00414
   18 Stretch                 16    18                       1.00309
   19 Stretch                 19    20                       1.22737
   20 Stretch                 19    21                       1.33511
   21 Stretch                 21    22                       1.01193
   22 Stretch                 21    23                       1.46532
   23 Stretch                 23    24                       1.09164
   24 Stretch                 23    25                       1.53792
   25 Stretch                 23    33                       1.54826
   26 Stretch                 25    26                       1.08958
   27 Stretch                 25    27                       1.08932
   28 Stretch                 25    28                       1.51747
   29 Stretch                 28    29                       1.21935
   30 Stretch                 28    30                       1.31139
   31 Stretch                 30    31                       1.00384
   32 Stretch                 30    32                       1.00638
   33 Stretch                 33    34                       1.22640
   34 Stretch                 33    35                       1.32695
   35 Stretch                 35    36                       1.00577
   36 Stretch                 35    37                       1.01140
   37 Bend                     1     2     3               109.53879
   38 Bend                     1     2     4               109.73754
   39 Bend                     1     2     5               109.07826
   40 Bend                     2     5     6               120.50860
   41 Bend                     2     5     7               116.83741
   42 Bend                     3     2     4               109.91646
   43 Bend                     3     2     5               109.03298
   44 Bend                     4     2     5               109.51780
   45 Bend                     5     7     8               118.01467
   46 Bend                     5     7     9               124.16021
   47 Bend                     6     5     7               122.64507
   48 Bend                     7     9    10               107.99632
   49 Bend                     7     9    11               109.00758
   50 Bend                     7     9    19               114.25911
   51 Bend                     8     7     9               117.43336
   52 Bend                     9    11    12               109.37374
   53 Bend                     9    11    13               109.11103
   54 Bend                     9    11    14               113.15201
   55 Bend                     9    19    20               119.85274
   56 Bend                     9    19    21               118.15652
   57 Bend                    10     9    11               108.50425
   58 Bend                    10     9    19               106.39462
   59 Bend                    11     9    19               110.48499
   60 Bend                    11    14    15               121.56541
   61 Bend                    11    14    16               118.66819
   62 Bend                    12    11    13               107.78434
   63 Bend                    12    11    14               107.84189
   64 Bend                    13    11    14               109.43563
   65 Bend                    14    16    17               115.99182
   66 Bend                    14    16    18               120.80206
   67 Bend                    15    14    16               119.76422
   68 Bend                    17    16    18               123.20609
   69 Bend                    19    21    22               117.37655
   70 Bend                    19    21    23               125.55421
   71 Bend                    20    19    21               121.98896
   72 Bend                    21    23    24               108.70935
   73 Bend                    21    23    25               107.52506
   74 Bend                    21    23    33               114.03795
   75 Bend                    22    21    23               116.65145
   76 Bend                    23    25    26               109.67080
   77 Bend                    23    25    27               109.73932
   78 Bend                    23    25    28               111.20300
   79 Bend                    23    33    34               119.79688
   80 Bend                    23    33    35               120.08117
   81 Bend                    24    23    25               108.80209
   82 Bend                    24    23    33               106.83036
   83 Bend                    25    23    33               110.82668
   84 Bend                    25    28    29               121.49302
   85 Bend                    25    28    30               118.18220
   86 Bend                    26    25    27               108.13048
   87 Bend                    26    25    28               109.56235
   88 Bend                    27    25    28               108.47243
   89 Bend                    28    30    31               116.68845
   90 Bend                    28    30    32               119.80990
   91 Bend                    29    28    30               120.24621
   92 Bend                    31    30    32               123.10188
   93 Bend                    33    35    36               118.49860
   94 Bend                    33    35    37               120.54915
   95 Bend                    34    33    35               120.01305
   96 Bend                    36    35    37               120.87891
   97 Torsion                  1     2     5     6          -6.26812
   98 Torsion                  1     2     5     7         174.79013
   99 Torsion                  2     5     7     8          -4.90939
  100 Torsion                  2     5     7     9        -177.52564
  101 Torsion                  3     2     5     6         113.31321
  102 Torsion                  3     2     5     7         -65.62854
  103 Torsion                  4     2     5     6        -126.38199
  104 Torsion                  4     2     5     7          54.67627
  105 Torsion                  5     7     9    10          56.20559
  106 Torsion                  5     7     9    11         173.90595
  107 Torsion                  5     7     9    19         -61.95277
  108 Torsion                  6     5     7     8         176.17340
  109 Torsion                  6     5     7     9           3.55715
  110 Torsion                  7     9    11    12          65.93236
  111 Torsion                  7     9    11    13        -176.39004
  112 Torsion                  7     9    11    14         -54.30572
  113 Torsion                  7     9    19    20         164.80413
  114 Torsion                  7     9    19    21         -14.71997
  115 Torsion                  8     7     9    10        -116.45014
  116 Torsion                  8     7     9    11           1.25021
  117 Torsion                  8     7     9    19         125.39150
  118 Torsion                  9    11    14    15          73.56871
  119 Torsion                  9    11    14    16        -105.89245
  120 Torsion                  9    19    21    22          -0.16480
  121 Torsion                  9    19    21    23         172.14062
  122 Torsion                 10     9    11    12        -176.68850
  123 Torsion                 10     9    11    13         -59.01090
  124 Torsion                 10     9    11    14          63.07342
  125 Torsion                 10     9    19    20          45.73708
  126 Torsion                 10     9    19    21        -133.78702
  127 Torsion                 11     9    19    20         -71.84849
  128 Torsion                 11     9    19    21         108.62740
  129 Torsion                 11    14    16    17         179.98319
  130 Torsion                 11    14    16    18          -0.08053
  131 Torsion                 12    11     9    19         -60.40823
  132 Torsion                 12    11    14    15         -47.53898
  133 Torsion                 12    11    14    16         132.99986
  134 Torsion                 13    11     9    19          57.26937
  135 Torsion                 13    11    14    15        -164.52866
  136 Torsion                 13    11    14    16          16.01018
  137 Torsion                 14    11     9    19         179.35368
  138 Torsion                 15    14    16    17           0.51207
  139 Torsion                 15    14    16    18        -179.55165
  140 Torsion                 19    21    23    24          40.25064
  141 Torsion                 19    21    23    25         157.88240
  142 Torsion                 19    21    23    33         -78.81243
  143 Torsion                 20    19    21    22        -179.67815
  144 Torsion                 20    19    21    23          -7.37273
  145 Torsion                 21    23    25    26        -175.60693
  146 Torsion                 21    23    25    27         -56.96263
  147 Torsion                 21    23    25    28          63.05542
  148 Torsion                 21    23    33    34        -174.20455
  149 Torsion                 21    23    33    35           2.00229
  150 Torsion                 22    21    23    24        -147.39415
  151 Torsion                 22    21    23    25         -29.76240
  152 Torsion                 22    21    23    33          93.54277
  153 Torsion                 23    25    28    29         -81.68255
  154 Torsion                 23    25    28    30          95.10059
  155 Torsion                 23    33    35    36        -179.03991
  156 Torsion                 23    33    35    37          -2.12679
  157 Torsion                 24    23    25    26         -58.03541
  158 Torsion                 24    23    25    27          60.60889
  159 Torsion                 24    23    25    28        -179.37305
  160 Torsion                 24    23    33    34          65.67198
  161 Torsion                 24    23    33    35        -118.12118
  162 Torsion                 25    23    33    34         -52.70896
  163 Torsion                 25    23    33    35         123.49788
  164 Torsion                 25    28    30    31        -177.42286
  165 Torsion                 25    28    30    32          -4.45487
  166 Torsion                 26    25    23    33          59.14255
  167 Torsion                 26    25    28    29         156.91640
  168 Torsion                 26    25    28    30         -26.30046
  169 Torsion                 27    25    23    33         177.78685
  170 Torsion                 27    25    28    29          39.08375
  171 Torsion                 27    25    28    30        -144.13310
  172 Torsion                 28    25    23    33         -62.19510
  173 Torsion                 29    28    30    31          -0.59810
  174 Torsion                 29    28    30    32         172.36989
  175 Torsion                 34    33    35    36          -2.84132
  176 Torsion                 34    33    35    37         174.07180


            XYZ format geometry
            -------------------
    37
 geometry
 H                    -3.43831159    -0.29627507     1.91302513
 C                    -3.03287063    -0.87912455     1.08765121
 H                    -3.34620735    -0.43850330     0.14204293
 H                    -3.38767018    -1.90652959     1.15378878
 C                    -1.52618700    -0.86026092     1.16395067
 O                    -0.95405238    -0.15909431     1.98952099
 N                    -0.86970115    -1.61737847     0.28527477
 H                    -1.41208068    -2.21467847    -0.32675314
 C                     0.59509090    -1.76039092     0.24902988
 H                     0.92442886    -2.10592355     1.23013625
 C                     0.96937109    -2.82863686    -0.79674205
 H                     0.69935858    -2.47161382    -1.79116992
 H                     2.04779329    -2.98199207    -0.77972003
 C                     0.26716736    -4.15495230    -0.57240237
 O                    -0.91666177    -4.29956294    -0.82003386
 N                     0.95934723    -5.16008913    -0.08991614
 H                     0.45505876    -6.01822322     0.04276775
 H                     1.93345033    -5.05635754     0.12582655
 C                     1.35369207    -0.44566837    -0.02683585
 O                     2.55931460    -0.37825915     0.19308305
 N                     0.66072315     0.59536696    -0.49433292
 H                    -0.33111819     0.46386979    -0.64584611
 C                     1.17578270     1.95736370    -0.65820031
 H                     2.19622222     1.90201773    -1.04201018
 C                     0.29218979     2.66444957    -1.69958696
 H                     0.69177369     3.65676727    -1.90649826
 H                     0.29432139     2.09744690    -2.62971030
 C                    -1.14014251     2.78475799    -1.21310670
 O                    -1.92566648     1.85714920    -1.30957967
 N                    -1.50211143     3.89816347    -0.62229306
 H                    -2.44268850     3.93855291    -0.27391330
 H                    -0.81850311     4.61473826    -0.44340134
 C                     1.23516713     2.77169113     0.65726475
 O                     1.54809576     3.95710389     0.62660091
 N                     0.87592700     2.20950803     1.80429818
 H                     0.90982902     2.76476699     2.64222248
 H                     0.53124665     1.25887644     1.82513189

 ==============================================================================
                                internuclear distances
 ------------------------------------------------------------------------------
       center one      |      center two      | atomic units |  angstroms
 ------------------------------------------------------------------------------
    2 C                |   1 H                |     2.05741  |     1.08873
    3 H                |   2 C                |     2.05842  |     1.08927
    4 H                |   2 C                |     2.05782  |     1.08895
    5 C                |   2 C                |     2.85109  |     1.50873
    6 O                |   5 C                |     2.31485  |     1.22496
    7 N                |   5 C                |     2.51857  |     1.33277
    8 H                |   7 N                |     1.91369  |     1.01268
    9 C                |   7 N                |     2.78206  |     1.47220
   10 H                |   9 C                |     2.06182  |     1.09107
   11 C                |   9 C                |     2.91219  |     1.54106
   12 H                |  11 C                |     2.06081  |     1.09053
   13 H                |  11 C                |     2.05868  |     1.08940
   14 C                |  11 C                |     2.86749  |     1.51741
   15 O                |  14 C                |     2.30181  |     1.21807
   16 N                |  14 C                |     2.47994  |     1.31233
   17 H                |  16 N                |     1.89756  |     1.00414
   18 H                |  16 N                |     1.89556  |     1.00309
   19 C                |   9 C                |     2.91537  |     1.54275
   20 O                |  19 C                |     2.31939  |     1.22737
   21 N                |  19 C                |     2.52299  |     1.33511
   22 H                |  21 N                |     1.91227  |     1.01193
   23 C                |  21 N                |     2.76906  |     1.46532
   24 H                |  23 C                |     2.06289  |     1.09164
   25 C                |  23 C                |     2.90624  |     1.53792
   26 H                |  25 C                |     2.05900  |     1.08958
   27 H                |  25 C                |     2.05852  |     1.08932
   28 C                |  25 C                |     2.86760  |     1.51747
   29 O                |  28 C                |     2.30424  |     1.21935
   30 N                |  28 C                |     2.47818  |     1.31139
   31 H                |  30 N                |     1.89697  |     1.00384
   32 H                |  30 N                |     1.90178  |     1.00638
   33 C                |  23 C                |     2.92578  |     1.54826
   34 O                |  33 C                |     2.31757  |     1.22640
   35 N                |  33 C                |     2.50757  |     1.32695
   36 H                |  35 N                |     1.90064  |     1.00577
   37 H                |  35 N                |     1.91128  |     1.01140
 ------------------------------------------------------------------------------
                         number of included internuclear distances:         36
 ==============================================================================



 ==============================================================================
                                 internuclear angles
 ------------------------------------------------------------------------------
        center 1       |       center 2       |       center 3       |  degrees
 ------------------------------------------------------------------------------
    1 H                |   2 C                |   3 H                |   109.54
    1 H                |   2 C                |   4 H                |   109.74
    1 H                |   2 C                |   5 C                |   109.08
    3 H                |   2 C                |   4 H                |   109.92
    3 H                |   2 C                |   5 C                |   109.03
    4 H                |   2 C                |   5 C                |   109.52
    2 C                |   5 C                |   6 O                |   120.51
    2 C                |   5 C                |   7 N                |   116.84
    6 O                |   5 C                |   7 N                |   122.65
    5 C                |   7 N                |   8 H                |   118.01
    5 C                |   7 N                |   9 C                |   124.16
    8 H                |   7 N                |   9 C                |   117.43
    7 N                |   9 C                |  10 H                |   108.00
    7 N                |   9 C                |  11 C                |   109.01
    7 N                |   9 C                |  19 C                |   114.26
   10 H                |   9 C                |  11 C                |   108.50
   10 H                |   9 C                |  19 C                |   106.39
   11 C                |   9 C                |  19 C                |   110.48
    9 C                |  11 C                |  12 H                |   109.37
    9 C                |  11 C                |  13 H                |   109.11
    9 C                |  11 C                |  14 C                |   113.15
   12 H                |  11 C                |  13 H                |   107.78
   12 H                |  11 C                |  14 C                |   107.84
   13 H                |  11 C                |  14 C                |   109.44
   11 C                |  14 C                |  15 O                |   121.57
   11 C                |  14 C                |  16 N                |   118.67
   15 O                |  14 C                |  16 N                |   119.76
   14 C                |  16 N                |  17 H                |   115.99
   14 C                |  16 N                |  18 H                |   120.80
   17 H                |  16 N                |  18 H                |   123.21
    9 C                |  19 C                |  20 O                |   119.85
    9 C                |  19 C                |  21 N                |   118.16
   20 O                |  19 C                |  21 N                |   121.99
   19 C                |  21 N                |  22 H                |   117.38
   19 C                |  21 N                |  23 C                |   125.55
   22 H                |  21 N                |  23 C                |   116.65
   21 N                |  23 C                |  24 H                |   108.71
   21 N                |  23 C                |  25 C                |   107.53
   21 N                |  23 C                |  33 C                |   114.04
   24 H                |  23 C                |  25 C                |   108.80
   24 H                |  23 C                |  33 C                |   106.83
   25 C                |  23 C                |  33 C                |   110.83
   23 C                |  25 C                |  26 H                |   109.67
   23 C                |  25 C                |  27 H                |   109.74
   23 C                |  25 C                |  28 C                |   111.20
   26 H                |  25 C                |  27 H                |   108.13
   26 H                |  25 C                |  28 C                |   109.56
   27 H                |  25 C                |  28 C                |   108.47
   25 C                |  28 C                |  29 O                |   121.49
   25 C                |  28 C                |  30 N                |   118.18
   29 O                |  28 C                |  30 N                |   120.25
   28 C                |  30 N                |  31 H                |   116.69
   28 C                |  30 N                |  32 H                |   119.81
   31 H                |  30 N                |  32 H                |   123.10
   23 C                |  33 C                |  34 O                |   119.80
   23 C                |  33 C                |  35 N                |   120.08
   34 O                |  33 C                |  35 N                |   120.01
   33 C                |  35 N                |  36 H                |   118.50
   33 C                |  35 N                |  37 H                |   120.55
   36 H                |  35 N                |  37 H                |   120.88
 ------------------------------------------------------------------------------
                            number of included internuclear angles:         60
 ==============================================================================



  library name resolved from: environment
  library file name is: </opt/rit/el9/20230413/app/linux-rhel9-x86_64_v3/gcc-11.2.1/nwchem-7.2.0-oxtctbuhfuzyfaoziquq6bki22grib3g/share/nwchem/libraries/>
  


 Summary of "ao basis" -> "" (cartesian)
 ------------------------------------------------------------------------------
       Tag                 Description            Shells   Functions and Types
 ---------------- ------------------------------  ------  ---------------------
 *                        aug-cc-pvdz                 on all atoms 


                      Basis "ao basis" -> "ao basis" (cartesian)
                      -----
  H (Hydrogen)
  ------------
            Exponent  Coefficients 
       -------------- ---------------------------------------------------------
  1 S  1.30100000E+01  0.019685
  1 S  1.96200000E+00  0.137977
  1 S  4.44600000E-01  0.478148

  2 S  1.22000000E-01  1.000000

  3 S  2.97400000E-02  1.000000

  4 P  7.27000000E-01  1.000000

  5 P  1.41000000E-01  1.000000

  C (Carbon)
  ----------
            Exponent  Coefficients 
       -------------- ---------------------------------------------------------
  1 S  6.66500000E+03  0.000692
  1 S  1.00000000E+03  0.005329
  1 S  2.28000000E+02  0.027077
  1 S  6.47100000E+01  0.101718
  1 S  2.10600000E+01  0.274740
  1 S  7.49500000E+00  0.448564
  1 S  2.79700000E+00  0.285074
  1 S  5.21500000E-01  0.015204

  2 S  6.66500000E+03 -0.000146
  2 S  1.00000000E+03 -0.001154
  2 S  2.28000000E+02 -0.005725
  2 S  6.47100000E+01 -0.023312
  2 S  2.10600000E+01 -0.063955
  2 S  7.49500000E+00 -0.149981
  2 S  2.79700000E+00 -0.127262
  2 S  5.21500000E-01  0.544529

  3 S  1.59600000E-01  1.000000

  4 S  4.69000000E-02  1.000000

  5 P  9.43900000E+00  0.038109
  5 P  2.00200000E+00  0.209480
  5 P  5.45600000E-01  0.508557

  6 P  1.51700000E-01  1.000000

  7 P  4.04100000E-02  1.000000

  8 D  5.50000000E-01  1.000000

  9 D  1.51000000E-01  1.000000

  O (Oxygen)
  ----------
            Exponent  Coefficients 
       -------------- ---------------------------------------------------------
  1 S  1.17200000E+04  0.000710
  1 S  1.75900000E+03  0.005470
  1 S  4.00800000E+02  0.027837
  1 S  1.13700000E+02  0.104800
  1 S  3.70300000E+01  0.283062
  1 S  1.32700000E+01  0.448719
  1 S  5.02500000E+00  0.270952
  1 S  1.01300000E+00  0.015458

  2 S  1.17200000E+04 -0.000160
  2 S  1.75900000E+03 -0.001263
  2 S  4.00800000E+02 -0.006267
  2 S  1.13700000E+02 -0.025716
  2 S  3.70300000E+01 -0.070924
  2 S  1.32700000E+01 -0.165411
  2 S  5.02500000E+00 -0.116955
  2 S  1.01300000E+00  0.557368

  3 S  3.02300000E-01  1.000000

  4 S  7.89600000E-02  1.000000

  5 P  1.77000000E+01  0.043018
  5 P  3.85400000E+00  0.228913
  5 P  1.04600000E+00  0.508728

  6 P  2.75300000E-01  1.000000

  7 P  6.85600000E-02  1.000000

  8 D  1.18500000E+00  1.000000

  9 D  3.32000000E-01  1.000000

  N (Nitrogen)
  ------------
            Exponent  Coefficients 
       -------------- ---------------------------------------------------------
  1 S  9.04600000E+03  0.000700
  1 S  1.35700000E+03  0.005389
  1 S  3.09300000E+02  0.027406
  1 S  8.77300000E+01  0.103207
  1 S  2.85600000E+01  0.278723
  1 S  1.02100000E+01  0.448540
  1 S  3.83800000E+00  0.278238
  1 S  7.46600000E-01  0.015440

  2 S  9.04600000E+03 -0.000153
  2 S  1.35700000E+03 -0.001208
  2 S  3.09300000E+02 -0.005992
  2 S  8.77300000E+01 -0.024544
  2 S  2.85600000E+01 -0.067459
  2 S  1.02100000E+01 -0.158078
  2 S  3.83800000E+00 -0.121831
  2 S  7.46600000E-01  0.549003

  3 S  2.24800000E-01  1.000000

  4 S  6.12400000E-02  1.000000

  5 P  1.35500000E+01  0.039919
  5 P  2.91700000E+00  0.217169
  5 P  7.97300000E-01  0.510319

  6 P  2.18500000E-01  1.000000

  7 P  5.61100000E-02  1.000000

  8 D  8.17000000E-01  1.000000

  9 D  2.30000000E-01  1.000000



 Summary of "ao basis" -> "ao basis" (cartesian)
 ------------------------------------------------------------------------------
       Tag                 Description            Shells   Functions and Types
 ---------------- ------------------------------  ------  ---------------------
 H                        aug-cc-pvdz                5        9   3s2p
 C                        aug-cc-pvdz                9       25   4s3p2d
 O                        aug-cc-pvdz                9       25   4s3p2d
 N                        aug-cc-pvdz                9       25   4s3p2d


                                 NWChem SCF Module
                                 -----------------



  ao basis        = "ao basis"
  functions       =   653
  atoms           =    37
  closed shells   =    76
  open shells     =     0
  charge          =   0.00
  wavefunction    = RHF 
  input vectors   = atomic
  output vectors  = ./ASN_ASN_0.movecs
  use symmetry    = F
  symmetry adapt  = F


 Summary of "ao basis" -> "ao basis" (cartesian)
 ------------------------------------------------------------------------------
       Tag                 Description            Shells   Functions and Types
 ---------------- ------------------------------  ------  ---------------------
 H                        aug-cc-pvdz                5        9   3s2p
 C                        aug-cc-pvdz                9       25   4s3p2d
 O                        aug-cc-pvdz                9       25   4s3p2d
 N                        aug-cc-pvdz                9       25   4s3p2d



 Forming initial guess at       0.7s


 !! The overlap matrix has   5 vectors deemed linearly dependent with
    eigenvalues:
 2.65D-06 4.15D-06 6.15D-06 7.87D-06 9.09D-06


      Superposition of Atomic Density Guess
      -------------------------------------

 Sum of atomic energies:       -1030.50653915

      Non-variational initial energy
      ------------------------------

 Total energy =   -1043.169362
 1-e energy   =   -4794.610587
 2-e energy   =    2046.038040
 HOMO         =      -0.309708
 LUMO         =       0.012337


 Starting SCF solution at     256.6s



 ----------------------------------------------
         Quadratically convergent ROHF

 Convergence threshold     :          1.000E-04
 Maximum no. of iterations :           30
 Final Fock-matrix accuracy:          1.000E-10
 ----------------------------------------------


              iter       energy          gnorm     gmax       time
             ----- ------------------- --------- --------- --------
                 1    -1034.8940399159  2.94D+00  1.76D-01    525.3
                 2    -1035.3397828717  9.23D-01  3.68D-02   1065.1
                 3    -1035.4147826789  7.73D-02  4.01D-03   1852.0
                 4    -1035.4156803382  4.99D-03  3.12D-04   2896.8
                 5    -1035.4156848011  1.02D-05  5.52D-07   4716.7


       Final RHF  results 
       ------------------ 

         Total SCF energy =  -1035.415684801086
      One-electron energy =  -4808.037545502377
      Two-electron energy =   2067.218676631653
 Nuclear repulsion energy =   1705.403184069638

        Time for solution =   4461.3s


             Final eigenvalues
             -----------------

              1      
    1  -20.5443
    2  -20.5376
    3  -20.5355
    4  -20.5340
    5  -20.5198
    6  -15.6192
    7  -15.6075
    8  -15.6019
    9  -15.6010
   10  -15.5799
   11  -11.3780
   12  -11.3691
   13  -11.3656
   14  -11.3643
   15  -11.3559
   16  -11.3211
   17  -11.3111
   18  -11.2798
   19  -11.2646
   20  -11.2418
   21   -1.4170
   22   -1.4058
   23   -1.4025
   24   -1.3931
   25   -1.3819
   26   -1.2646
   27   -1.2516
   28   -1.2485
   29   -1.2359
   30   -1.2048
   31   -1.0938
   32   -1.0698
   33   -1.0073
   34   -0.9556
   35   -0.9230
   36   -0.8358
   37   -0.8244
   38   -0.8175
   39   -0.8050
   40   -0.7894
   41   -0.7657
   42   -0.7508
   43   -0.7405
   44   -0.7210
   45   -0.7114
   46   -0.6896
   47   -0.6825
   48   -0.6778
   49   -0.6681
   50   -0.6453
   51   -0.6239
   52   -0.6216
   53   -0.6150
   54   -0.6142
   55   -0.6035
   56   -0.5968
   57   -0.5880
   58   -0.5816
   59   -0.5764
   60   -0.5724
   61   -0.5550
   62   -0.5505
   63   -0.5465
   64   -0.5372
   65   -0.5257
   66   -0.5113
   67   -0.4548
   68   -0.4506
   69   -0.4416
   70   -0.4372
   71   -0.4337
   72   -0.4318
   73   -0.4228
   74   -0.4049
   75   -0.4007
   76   -0.3901
   77    0.0236
   78    0.0340
   79    0.0382
   80    0.0455
   81    0.0491
   82    0.0524
   83    0.0561
   84    0.0621
   85    0.0648
   86    0.0688

                       ROHF Final Molecular Orbital Analysis
                       -------------------------------------

 Vector   21  Occ=2.000000D+00  E=-1.416982D+00
              MO Center= -3.5D-01, -4.2D+00, -6.2D-01, r^2= 1.3D+00
   Bfn.  Coefficient  Atom+Function         Bfn.  Coefficient  Atom+Function  
  ----- ------------  ---------------      ----- ------------  ---------------
   241      0.362083  15 O  s               240      0.342868  15 O  s         
   215      0.247626  14 C  s         

 Vector   22  Occ=2.000000D+00  E=-1.405762D+00
              MO Center= -1.0D+00,  1.6D+00, -6.1D-01, r^2= 5.2D+00
   Bfn.  Coefficient  Atom+Function         Bfn.  Coefficient  Atom+Function  
  ----- ------------  ---------------      ----- ------------  ---------------
   495      0.310616  29 O  s               494      0.290401  29 O  s         
   469      0.208655  28 C  s         

 Vector   23  Occ=2.000000D+00  E=-1.402487D+00
              MO Center= -8.2D-01,  2.2D-01,  5.4D-01, r^2= 5.6D+00
   Bfn.  Coefficient  Atom+Function         Bfn.  Coefficient  Atom+Function  
  ----- ------------  ---------------      ----- ------------  ---------------
    80      0.266318   6 O  s                79      0.262617   6 O  s         
   495     -0.196241  29 O  s                54      0.185130   5 C  s         
   494     -0.184375  29 O  s         

 Vector   24  Occ=2.000000D+00  E=-1.393081D+00
              MO Center=  1.1D+00, -1.1D-01,  4.7D-01, r^2= 4.1D+00
   Bfn.  Coefficient  Atom+Function         Bfn.  Coefficient  Atom+Function  
  ----- ------------  ---------------      ----- ------------  ---------------
   334      0.316478  20 O  s               333      0.289996  20 O  s         
   308      0.201670  19 C  s                80     -0.195014   6 O  s         
    79     -0.188238   6 O  s         

 Vector   25  Occ=2.000000D+00  E=-1.381938D+00
              MO Center=  1.4D+00,  3.2D+00,  6.8D-01, r^2= 1.9D+00
   Bfn.  Coefficient  Atom+Function         Bfn.  Coefficient  Atom+Function  
  ----- ------------  ---------------      ----- ------------  ---------------
   588      0.376648  34 O  s               587      0.343287  34 O  s         
   562      0.236993  33 C  s         

 Vector   26  Occ=2.000000D+00  E=-1.264552D+00
              MO Center= -4.0D-03, -6.5D-01,  2.3D-01, r^2= 3.7D+00
   Bfn.  Coefficient  Atom+Function         Bfn.  Coefficient  Atom+Function  
  ----- ------------  ---------------      ----- ------------  ---------------
   105      0.334356   7 N  s               104      0.260449   7 N  s         
   334     -0.198117  20 O  s               358      0.197997  21 N  s         
    80     -0.183842   6 O  s               359      0.172510  21 N  s         
    79     -0.150706   6 O  s         

 Vector   27  Occ=2.000000D+00  E=-1.251597D+00
              MO Center=  6.4D-01, -4.9D+00, -2.6D-01, r^2= 1.4D+00
   Bfn.  Coefficient  Atom+Function         Bfn.  Coefficient  Atom+Function  
  ----- ------------  ---------------      ----- ------------  ---------------
   265      0.366028  16 N  s               266      0.361656  16 N  s         
   173     -0.260751  11 C  s               241     -0.230876  15 O  s         
   240     -0.193963  15 O  s               218      0.189525  14 C  px        
   139      0.182778   9 C  s               217      0.179927  14 C  s         
   298      0.169230  18 H  s               289      0.153843  17 H  s         

 Vector   28  Occ=2.000000D+00  E=-1.248546D+00
              MO Center=  2.6D-01,  1.1D-02,  3.6D-02, r^2= 4.3D+00
   Bfn.  Coefficient  Atom+Function         Bfn.  Coefficient  Atom+Function  
  ----- ------------  ---------------      ----- ------------  ---------------
   359      0.312512  21 N  s               105     -0.263392   7 N  s         
   358      0.261595  21 N  s               104     -0.219170   7 N  s         
   393     -0.198665  23 C  s         

 Vector   29  Occ=2.000000D+00  E=-1.235943D+00
              MO Center= -1.5D+00,  3.5D+00, -8.0D-01, r^2= 1.3D+00
   Bfn.  Coefficient  Atom+Function         Bfn.  Coefficient  Atom+Function  
  ----- ------------  ---------------      ----- ------------  ---------------
   519      0.366544  30 N  s               520      0.347871  30 N  s         
   495     -0.225737  29 O  s               473      0.208313  28 C  py        
   494     -0.190088  29 O  s               552      0.165390  32 H  s         
   427     -0.163722  25 C  s               471      0.161233  28 C  s         
   543      0.154300  31 H  s         

 Vector   30  Occ=2.000000D+00  E=-1.204766D+00
              MO Center=  9.6D-01,  2.3D+00,  1.4D+00, r^2= 1.8D+00
   Bfn.  Coefficient  Atom+Function         Bfn.  Coefficient  Atom+Function  
  ----- ------------  ---------------      ----- ------------  ---------------
   613      0.390043  35 N  s               612      0.365695  35 N  s         
   393     -0.206516  23 C  s               588     -0.197304  34 O  s         
   587     -0.163674  34 O  s               636      0.157878  36 H  s         
   645      0.158119  37 H  s         

 Vector   31  Occ=2.000000D+00  E=-1.093832D+00
              MO Center=  3.2D-01, -1.4D+00, -2.0D-01, r^2= 6.0D+00
   Bfn.  Coefficient  Atom+Function         Bfn.  Coefficient  Atom+Function  
  ----- ------------  ---------------      ----- ------------  ---------------
   172      0.226586  11 C  s               138      0.203310   9 C  s         
   173      0.184847  11 C  s               427     -0.184866  25 C  s         

 Vector   32  Occ=2.000000D+00  E=-1.069775D+00
              MO Center=  4.9D-01,  1.2D+00, -9.2D-01, r^2= 6.6D+00
   Bfn.  Coefficient  Atom+Function         Bfn.  Coefficient  Atom+Function  
  ----- ------------  ---------------      ----- ------------  ---------------
   427      0.297192  25 C  s               426      0.253154  25 C  s         
   392      0.190465  23 C  s               393      0.172589  23 C  s         

 Vector   33  Occ=2.000000D+00  E=-1.007302D+00
              MO Center= -1.9D+00, -1.3D+00,  7.0D-01, r^2= 5.0D+00
   Bfn.  Coefficient  Atom+Function         Bfn.  Coefficient  Atom+Function  
  ----- ------------  ---------------      ----- ------------  ---------------
    11      0.315788   2 C  s               173      0.267010  11 C  s         
    57     -0.168023   5 C  px               55      0.166634   5 C  s         

 Vector   34  Occ=2.000000D+00  E=-9.556302D-01
              MO Center=  1.8D-01,  2.4D-01, -4.3D-01, r^2= 9.3D+00
   Bfn.  Coefficient  Atom+Function         Bfn.  Coefficient  Atom+Function  
  ----- ------------  ---------------      ----- ------------  ---------------
   427      0.294362  25 C  s               173     -0.203616  11 C  s         
   432     -0.183087  25 C  px              179      0.175047  11 C  py        
   426      0.172120  25 C  s               564      0.165300  33 C  s         

 Vector   35  Occ=2.000000D+00  E=-9.230400D-01
              MO Center=  3.7D-01,  4.4D-02, -2.0D-01, r^2= 9.8D+00
   Bfn.  Coefficient  Atom+Function         Bfn.  Coefficient  Atom+Function  
  ----- ------------  ---------------      ----- ------------  ---------------
   173      0.206953  11 C  s               427      0.199614  25 C  s         
   138     -0.184326   9 C  s               392     -0.173759  23 C  s         
   179     -0.158905  11 C  py              393     -0.157712  23 C  s         

 Vector   36  Occ=2.000000D+00  E=-8.357971D-01
              MO Center=  3.0D-01, -1.3D+00,  9.4D-02, r^2= 1.1D+01
   Bfn.  Coefficient  Atom+Function         Bfn.  Coefficient  Atom+Function  
  ----- ------------  ---------------      ----- ------------  ---------------
   393      0.242986  23 C  s               269      0.168939  16 N  py        
   309      0.164202  19 C  s                12      0.151258   2 C  s         

 Vector   37  Occ=2.000000D+00  E=-8.244169D-01
              MO Center=  2.0D-01, -7.8D-01, -2.3D-01, r^2= 1.7D+01
   Bfn.  Coefficient  Atom+Function         Bfn.  Coefficient  Atom+Function  
  ----- ------------  ---------------      ----- ------------  ---------------
   393      0.240572  23 C  s               269     -0.174191  16 N  py        
   570      0.173509  33 C  pz              298      0.158291  18 H  s         
   268      0.157250  16 N  px              400      0.151959  23 C  pz        
   523     -0.152583  30 N  py        

 Vector   38  Occ=2.000000D+00  E=-8.174977D-01
              MO Center= -5.6D-01, -2.7D-01, -1.2D-01, r^2= 1.2D+01
   Bfn.  Coefficient  Atom+Function         Bfn.  Coefficient  Atom+Function  
  ----- ------------  ---------------      ----- ------------  ---------------
   217      0.187573  14 C  s               523      0.164114  30 N  py        
   108      0.160100   7 N  py              109      0.152098   7 N  pz        

 Vector   39  Occ=2.000000D+00  E=-8.049687D-01
              MO Center=  2.4D-01,  2.7D-01, -2.5D-01, r^2= 5.5D+00
   Bfn.  Coefficient  Atom+Function         Bfn.  Coefficient  Atom+Function  
  ----- ------------  ---------------      ----- ------------  ---------------
   309      0.280233  19 C  s               361      0.232346  21 N  px        
   359     -0.219406  21 N  s               382     -0.208213  22 H  s         
   105      0.173569   7 N  s               315      0.165454  19 C  py        
   362     -0.165650  21 N  py              128      0.159785   8 H  s         
   383     -0.156528  22 H  s               334     -0.152232  20 O  s         

 Vector   40  Occ=2.000000D+00  E=-7.894437D-01
              MO Center=  2.2D-01,  2.3D+00,  2.9D-01, r^2= 5.9D+00
   Bfn.  Coefficient  Atom+Function         Bfn.  Coefficient  Atom+Function  
  ----- ------------  ---------------      ----- ------------  ---------------
   617      0.234846  35 N  pz              570     -0.208589  33 C  pz        
   523     -0.198573  30 N  py              562     -0.176670  33 C  s         
   552     -0.163081  32 H  s               399     -0.160075  23 C  py        
   393     -0.153669  23 C  s               636      0.152090  36 H  s         
   588      0.151092  34 O  s         

 Vector   41  Occ=2.000000D+00  E=-7.657006D-01
              MO Center=  8.4D-01, -4.5D+00, -1.7D-01, r^2= 3.3D+00
   Bfn.  Coefficient  Atom+Function         Bfn.  Coefficient  Atom+Function  
  ----- ------------  ---------------      ----- ------------  ---------------
   268      0.344598  16 N  px              298      0.300271  18 H  s         
   289     -0.273738  17 H  s               269      0.193969  16 N  py        
   173     -0.191521  11 C  s               290     -0.163266  17 H  s         
   299      0.157864  18 H  s               139      0.151350   9 C  s         

 Vector   42  Occ=2.000000D+00  E=-7.507708D-01
              MO Center= -1.4D-01,  2.7D+00,  2.2D-01, r^2= 5.7D+00
   Bfn.  Coefficient  Atom+Function         Bfn.  Coefficient  Atom+Function  
  ----- ------------  ---------------      ----- ------------  ---------------
   522      0.247426  30 N  px              616     -0.238494  35 N  py        
   645      0.220256  37 H  s               563     -0.209641  33 C  s         
   552      0.208032  32 H  s               543     -0.187122  31 H  s         
   567     -0.183982  33 C  pz        

 Vector   43  Occ=2.000000D+00  E=-7.404882D-01
              MO Center= -1.3D-01,  1.4D+00,  8.8D-03, r^2= 8.6D+00
   Bfn.  Coefficient  Atom+Function         Bfn.  Coefficient  Atom+Function  
  ----- ------------  ---------------      ----- ------------  ---------------
   399      0.228866  23 C  py              522     -0.225821  30 N  px        
   552     -0.194740  32 H  s               361     -0.189041  21 N  px        
   543      0.175144  31 H  s               309     -0.162966  19 C  s         

 Vector   44  Occ=2.000000D+00  E=-7.210440D-01
              MO Center=  5.0D-02, -6.6D-01,  2.3D-01, r^2= 1.1D+01
   Bfn.  Coefficient  Atom+Function         Bfn.  Coefficient  Atom+Function  
  ----- ------------  ---------------      ----- ------------  ---------------
   144      0.210310   9 C  px              128      0.177669   8 H  s         
   427     -0.177344  25 C  s               107     -0.171214   7 N  px        
   312     -0.154812  19 C  py              616      0.150181  35 N  py        

 Vector   45  Occ=2.000000D+00  E=-7.113748D-01
              MO Center=  2.3D-01,  4.1D-01,  1.6D-01, r^2= 9.2D+00
   Bfn.  Coefficient  Atom+Function         Bfn.  Coefficient  Atom+Function  
  ----- ------------  ---------------      ----- ------------  ---------------
   636      0.167808  36 H  s               173      0.166240  11 C  s         
   107      0.153716   7 N  px        

 Vector   46  Occ=2.000000D+00  E=-6.896281D-01
              MO Center= -7.4D-01, -1.8D+00,  3.5D-01, r^2= 8.5D+00
   Bfn.  Coefficient  Atom+Function         Bfn.  Coefficient  Atom+Function  
  ----- ------------  ---------------      ----- ------------  ---------------
    82     -0.192801   6 O  px               17      0.190647   2 C  px        
    14      0.178656   2 C  px              106      0.161297   7 N  s         
    80     -0.153471   6 O  s                13     -0.152129   2 C  s         
   175     -0.150080  11 C  px              243      0.150013  15 O  px        

 Vector   47  Occ=2.000000D+00  E=-6.825218D-01
              MO Center= -8.7D-02,  6.7D-02, -5.3D-01, r^2= 1.2D+01
   Bfn.  Coefficient  Atom+Function         Bfn.  Coefficient  Atom+Function  
  ----- ------------  ---------------      ----- ------------  ---------------
   497      0.185729  29 O  px              473     -0.168966  28 C  py        
   243      0.155716  15 O  px              450     -0.155524  26 H  s         
   336     -0.150984  20 O  px        

 Vector   48  Occ=2.000000D+00  E=-6.777567D-01
              MO Center= -5.7D-01, -5.6D-01,  1.5D-01, r^2= 1.0D+01
   Bfn.  Coefficient  Atom+Function         Bfn.  Coefficient  Atom+Function  
  ----- ------------  ---------------      ----- ------------  ---------------
    80      0.167320   6 O  s                82      0.167297   6 O  px        
   497     -0.159427  29 O  px        

 Vector   49  Occ=2.000000D+00  E=-6.681482D-01
              MO Center=  5.3D-01,  1.2D+00,  2.3D-01, r^2= 1.0D+01
   Bfn.  Coefficient  Atom+Function         Bfn.  Coefficient  Atom+Function  
  ----- ------------  ---------------      ----- ------------  ---------------
   617      0.198168  35 N  pz              591     -0.181819  34 O  py        
   567     -0.177180  33 C  pz              636      0.175528  36 H  s         
   588     -0.166069  34 O  s         

 Vector   50  Occ=2.000000D+00  E=-6.453273D-01
              MO Center=  4.8D-01,  9.2D-01, -3.6D-01, r^2= 8.5D+00
   Bfn.  Coefficient  Atom+Function         Bfn.  Coefficient  Atom+Function  
  ----- ------------  ---------------      ----- ------------  ---------------
   336      0.226109  20 O  px              395      0.212658  23 C  px        
   416      0.183483  24 H  s         

 Vector   51  Occ=2.000000D+00  E=-6.239266D-01
              MO Center= -7.2D-01, -1.5D+00,  1.6D-01, r^2= 9.1D+00
   Bfn.  Coefficient  Atom+Function         Bfn.  Coefficient  Atom+Function  
  ----- ------------  ---------------      ----- ------------  ---------------
    35     -0.168217   3 H  s                16      0.158050   2 C  pz        
   220     -0.156273  14 C  pz              245     -0.152667  15 O  pz        
   368      0.153201  21 N  py        

 Vector   52  Occ=2.000000D+00  E=-6.216291D-01
              MO Center= -5.2D-01,  2.6D-01,  1.5D-01, r^2= 1.0D+01
   Bfn.  Coefficient  Atom+Function         Bfn.  Coefficient  Atom+Function  
  ----- ------------  ---------------      ----- ------------  ---------------
   173     -0.194208  11 C  s               139      0.188594   9 C  s         
    15      0.162325   2 C  py        

 Vector   53  Occ=2.000000D+00  E=-6.150140D-01
              MO Center=  3.9D-01,  2.5D-01, -1.2D-01, r^2= 1.3D+01
   Bfn.  Coefficient  Atom+Function         Bfn.  Coefficient  Atom+Function  
  ----- ------------  ---------------      ----- ------------  ---------------
   591     -0.222888  34 O  py              173      0.213527  11 C  s         
   139     -0.165956   9 C  s         

 Vector   54  Occ=2.000000D+00  E=-6.142033D-01
              MO Center=  1.2D-01, -1.3D+00, -8.4D-02, r^2= 1.1D+01
   Bfn.  Coefficient  Atom+Function         Bfn.  Coefficient  Atom+Function  
  ----- ------------  ---------------      ----- ------------  ---------------
   243      0.227883  15 O  px              217      0.215366  14 C  s         
   336      0.196971  20 O  px        

 Vector   55  Occ=2.000000D+00  E=-6.034989D-01
              MO Center=  2.9D-01,  1.2D+00,  2.3D-01, r^2= 1.2D+01
   Bfn.  Coefficient  Atom+Function         Bfn.  Coefficient  Atom+Function  
  ----- ------------  ---------------      ----- ------------  ---------------
   591      0.256206  34 O  py              566     -0.213704  33 C  py        
   173      0.174968  11 C  s               588      0.162135  34 O  s         
   393      0.151244  23 C  s         

 Vector   56  Occ=2.000000D+00  E=-5.967754D-01
              MO Center= -1.6D-01, -2.1D+00, -3.1D-01, r^2= 9.2D+00
   Bfn.  Coefficient  Atom+Function         Bfn.  Coefficient  Atom+Function  
  ----- ------------  ---------------      ----- ------------  ---------------
   243      0.256748  15 O  px              175      0.255416  11 C  px        
   205      0.240518  13 H  s               206      0.189102  13 H  s         
   218     -0.186077  14 C  px              217      0.174911  14 C  s         

 Vector   57  Occ=2.000000D+00  E=-5.880208D-01
              MO Center= -4.7D-01,  1.9D+00, -8.8D-01, r^2= 6.8D+00
   Bfn.  Coefficient  Atom+Function         Bfn.  Coefficient  Atom+Function  
  ----- ------------  ---------------      ----- ------------  ---------------
   498      0.329651  29 O  py              472     -0.269004  28 C  px        
   501      0.185302  29 O  py              475     -0.181468  28 C  px        
   427      0.173094  25 C  s               450      0.172744  26 H  s         
   429      0.166947  25 C  px              451      0.164499  26 H  s         
   495     -0.163965  29 O  s         

 Vector   58  Occ=2.000000D+00  E=-5.815886D-01
              MO Center=  6.5D-01,  4.5D-01,  1.6D-01, r^2= 8.3D+00
   Bfn.  Coefficient  Atom+Function         Bfn.  Coefficient  Atom+Function  
  ----- ------------  ---------------      ----- ------------  ---------------
   336     -0.216700  20 O  px              311      0.215224  19 C  px        

 Vector   59  Occ=2.000000D+00  E=-5.763666D-01
              MO Center= -1.1D+00, -1.5D+00,  5.6D-01, r^2= 8.5D+00
   Bfn.  Coefficient  Atom+Function         Bfn.  Coefficient  Atom+Function  
  ----- ------------  ---------------      ----- ------------  ---------------
     2      0.266810   1 H  s                16      0.229757   2 C  pz        
    84      0.186779   6 O  pz                1      0.175020   1 H  s         
    35     -0.171702   3 H  s                13     -0.169747   2 C  s         
   270      0.161003  16 N  pz              245      0.153174  15 O  pz        
    17      0.150028   2 C  px        

 Vector   60  Occ=2.000000D+00  E=-5.723595D-01
              MO Center=  2.3D-01,  3.8D-01, -3.0D-01, r^2= 1.1D+01
   Bfn.  Coefficient  Atom+Function         Bfn.  Coefficient  Atom+Function  
  ----- ------------  ---------------      ----- ------------  ---------------
   499      0.172010  29 O  pz              417     -0.157437  24 H  s         
   196      0.153538  12 H  s               313      0.152957  19 C  pz        
   338      0.151549  20 O  pz              474      0.151133  28 C  pz        

 Vector   61  Occ=2.000000D+00  E=-5.550138D-01
              MO Center= -1.2D+00, -5.7D-01,  3.1D-01, r^2= 1.0D+01
   Bfn.  Coefficient  Atom+Function         Bfn.  Coefficient  Atom+Function  
  ----- ------------  ---------------      ----- ------------  ---------------
   217      0.304934  14 C  s                 1     -0.253790   1 H  s         
   206      0.249908  13 H  s                15     -0.243516   2 C  py        
   310     -0.243906  19 C  s                 2     -0.238265   1 H  s         
    13      0.238030   2 C  s               140     -0.232891   9 C  s         
   471     -0.178660  28 C  s                44      0.176862   4 H  s         

 Vector   62  Occ=2.000000D+00  E=-5.505320D-01
              MO Center= -3.4D-02,  3.6D-01, -4.0D-01, r^2= 1.1D+01
   Bfn.  Coefficient  Atom+Function         Bfn.  Coefficient  Atom+Function  
  ----- ------------  ---------------      ----- ------------  ---------------
   451      0.197279  26 H  s               430      0.194078  25 C  py        
   471      0.185564  28 C  s               450      0.177125  26 H  s         
   196     -0.175716  12 H  s               177      0.170139  11 C  pz        

 Vector   63  Occ=2.000000D+00  E=-5.464588D-01
              MO Center=  2.4D-01,  1.4D+00, -6.0D-01, r^2= 9.6D+00
   Bfn.  Coefficient  Atom+Function         Bfn.  Coefficient  Atom+Function  
  ----- ------------  ---------------      ----- ------------  ---------------
   427      0.321709  25 C  s               459      0.248394  27 H  s         
   393     -0.225486  23 C  s               431     -0.197967  25 C  pz        
   400      0.187655  23 C  pz              397      0.166284  23 C  pz        
   430     -0.154178  25 C  py              460      0.150461  27 H  s         

 Vector   64  Occ=2.000000D+00  E=-5.371885D-01
              MO Center= -3.7D-01, -3.9D-01,  3.9D-01, r^2= 9.4D+00
   Bfn.  Coefficient  Atom+Function         Bfn.  Coefficient  Atom+Function  
  ----- ------------  ---------------      ----- ------------  ---------------
    16      0.204502   2 C  pz               35     -0.179327   3 H  s         
   173     -0.179982  11 C  s               318     -0.166374  19 C  py        
   427     -0.153182  25 C  s         

 Vector   65  Occ=2.000000D+00  E=-5.256656D-01
              MO Center=  5.1D-01,  2.1D+00, -4.3D-01, r^2= 6.3D+00
   Bfn.  Coefficient  Atom+Function         Bfn.  Coefficient  Atom+Function  
  ----- ------------  ---------------      ----- ------------  ---------------
   395      0.224733  23 C  px              431     -0.218849  25 C  pz        
   427      0.201216  25 C  s               590     -0.164162  34 O  px        
   615     -0.161818  35 N  px              432     -0.156900  25 C  px        

 Vector   66  Occ=2.000000D+00  E=-5.113363D-01
              MO Center= -9.3D-02, -7.0D-01,  5.5D-01, r^2= 7.6D+00
   Bfn.  Coefficient  Atom+Function         Bfn.  Coefficient  Atom+Function  
  ----- ------------  ---------------      ----- ------------  ---------------
   143      0.213645   9 C  pz              393     -0.202838  23 C  s         
    83      0.195715   6 O  py              162      0.190078  10 H  s         
   564      0.172335  33 C  s                84     -0.170132   6 O  pz        
   338     -0.167204  20 O  pz              177     -0.163417  11 C  pz        
   360     -0.162531  21 N  s                86      0.157374   6 O  py        

 Vector   67  Occ=2.000000D+00  E=-4.548461D-01
              MO Center=  5.8D-01, -2.2D+00, -1.8D-01, r^2= 8.1D+00
   Bfn.  Coefficient  Atom+Function         Bfn.  Coefficient  Atom+Function  
  ----- ------------  ---------------      ----- ------------  ---------------
   244      0.382601  15 O  py              337      0.339278  20 O  py        
   247      0.300487  15 O  py              340      0.265293  20 O  py        
   139      0.158060   9 C  s               338     -0.157416  20 O  pz        

 Vector   68  Occ=2.000000D+00  E=-4.505732D-01
              MO Center=  6.0D-01,  1.1D-01,  3.6D-01, r^2= 1.0D+01
   Bfn.  Coefficient  Atom+Function         Bfn.  Coefficient  Atom+Function  
  ----- ------------  ---------------      ----- ------------  ---------------
   592      0.293100  34 O  pz              173      0.275822  11 C  s         
   595      0.230263  34 O  pz              337     -0.211471  20 O  py        
   216     -0.203645  14 C  s               368      0.203449  21 N  py        
   363      0.192216  21 N  pz              471      0.193063  28 C  s         
   427     -0.186256  25 C  s               340     -0.174729  20 O  py        

 Vector   69  Occ=2.000000D+00  E=-4.415749D-01
              MO Center=  4.6D-01, -1.1D+00, -8.1D-02, r^2= 1.4D+01
   Bfn.  Coefficient  Atom+Function         Bfn.  Coefficient  Atom+Function  
  ----- ------------  ---------------      ----- ------------  ---------------
   244      0.311241  15 O  py              592     -0.263686  34 O  pz        
   247      0.250472  15 O  py              338      0.212620  20 O  pz        
   595     -0.206634  34 O  pz              270     -0.199374  16 N  pz        
   341      0.162847  20 O  pz              273     -0.157592  16 N  pz        
   417      0.153311  24 H  s         

 Vector   70  Occ=2.000000D+00  E=-4.372362D-01
              MO Center= -1.4D-01, -3.0D+00,  8.7D-02, r^2= 8.4D+00
   Bfn.  Coefficient  Atom+Function         Bfn.  Coefficient  Atom+Function  
  ----- ------------  ---------------      ----- ------------  ---------------
   245      0.339077  15 O  pz              248      0.267229  15 O  pz        
   270     -0.255097  16 N  pz               82      0.238825   6 O  px        
   273     -0.225781  16 N  pz              106      0.215815   7 N  s         
    85      0.190801   6 O  px              163     -0.189194  10 H  s         

 Vector   71  Occ=2.000000D+00  E=-4.337237D-01
              MO Center= -1.0D+00,  4.0D-01, -3.6D-01, r^2= 1.0D+01
   Bfn.  Coefficient  Atom+Function         Bfn.  Coefficient  Atom+Function  
  ----- ------------  ---------------      ----- ------------  ---------------
   497      0.311244  29 O  px               82      0.249633   6 O  px        
   500      0.242683  29 O  px              498     -0.215420  29 O  py        
    85      0.201464   6 O  px              501     -0.180218  29 O  py        
   360     -0.168777  21 N  s               429      0.168786  25 C  px        
   270      0.159941  16 N  pz               13     -0.156937   2 C  s         

 Vector   72  Occ=2.000000D+00  E=-4.318446D-01
              MO Center= -8.4D-01,  4.8D-01,  1.8D-01, r^2= 9.4D+00
   Bfn.  Coefficient  Atom+Function         Bfn.  Coefficient  Atom+Function  
  ----- ------------  ---------------      ----- ------------  ---------------
    82      0.319564   6 O  px               85      0.255022   6 O  px        
   497     -0.254267  29 O  px              417      0.202420  24 H  s         
   500     -0.197926  29 O  px               17      0.181915   2 C  px        
   498      0.175600  29 O  py              393     -0.154645  23 C  s         

 Vector   73  Occ=2.000000D+00  E=-4.228248D-01
              MO Center= -1.5D+00,  2.9D+00, -8.3D-01, r^2= 3.3D+00
   Bfn.  Coefficient  Atom+Function         Bfn.  Coefficient  Atom+Function  
  ----- ------------  ---------------      ----- ------------  ---------------
   499      0.396219  29 O  pz              524     -0.348700  30 N  pz        
   502      0.318036  29 O  pz              527     -0.287989  30 N  pz        
   526      0.212058  30 N  py              523      0.205766  30 N  py        
   521      0.167711  30 N  s               470      0.162772  28 C  s         
   563     -0.158817  33 C  s         

 Vector   74  Occ=2.000000D+00  E=-4.049020D-01
              MO Center=  4.5D-01,  3.7D-02,  5.3D-01, r^2= 8.2D+00
   Bfn.  Coefficient  Atom+Function         Bfn.  Coefficient  Atom+Function  
  ----- ------------  ---------------      ----- ------------  ---------------
   337     -0.244659  20 O  py              108      0.235139   7 N  py        
   111      0.216864   7 N  py              340     -0.201877  20 O  py        
   109     -0.196255   7 N  pz              112     -0.185935   7 N  pz        
   590     -0.172920  34 O  px              393      0.163657  23 C  s         
    83     -0.154606   6 O  py        

 Vector   75  Occ=2.000000D+00  E=-4.007308D-01
              MO Center=  8.2D-01,  2.0D+00,  1.1D+00, r^2= 5.9D+00
   Bfn.  Coefficient  Atom+Function         Bfn.  Coefficient  Atom+Function  
  ----- ------------  ---------------      ----- ------------  ---------------
   615     -0.368967  35 N  px              590      0.342444  34 O  px        
   618     -0.309078  35 N  px              593      0.273210  34 O  px        
   564      0.219823  33 C  s               360     -0.202829  21 N  s         
   428     -0.193007  25 C  s                56      0.179873   5 C  s         
   318      0.150511  19 C  py        

 Vector   76  Occ=2.000000D+00  E=-3.900958D-01
              MO Center=  1.2D+00,  1.3D+00,  6.4D-02, r^2= 4.9D+00
   Bfn.  Coefficient  Atom+Function         Bfn.  Coefficient  Atom+Function  
  ----- ------------  ---------------      ----- ------------  ---------------
   363      0.350305  21 N  pz              366      0.332280  21 N  pz        
   592     -0.295506  34 O  pz              338     -0.241331  20 O  pz        
   595     -0.233995  34 O  pz              173      0.216758  11 C  s         
   360     -0.193927  21 N  s               341     -0.189226  20 O  pz        
   397     -0.153914  23 C  pz        

 Vector   77  Occ=0.000000D+00  E= 2.361687D-02
              MO Center=  1.9D+00, -6.1D+00,  3.9D-01, r^2= 1.6D+01
   Bfn.  Coefficient  Atom+Function         Bfn.  Coefficient  Atom+Function  
  ----- ------------  ---------------      ----- ------------  ---------------
   217      3.623979  14 C  s               267     -3.107064  16 N  s         
   225     -2.181103  14 C  py              291     -1.844711  17 H  s         
   300     -1.809843  18 H  s               147      1.687067   9 C  px        
    13      1.282927   2 C  s               226      1.128444  14 C  pz        
   384      1.114519  22 H  s               174      1.091536  11 C  s         

 Vector   78  Occ=0.000000D+00  E= 3.400657D-02
              MO Center= -1.4D+00,  2.5D+00, -1.4D+00, r^2= 3.4D+01
   Bfn.  Coefficient  Atom+Function         Bfn.  Coefficient  Atom+Function  
  ----- ------------  ---------------      ----- ------------  ---------------
   384      6.192711  22 H  s               471      2.974880  28 C  s         
   521     -2.985883  30 N  s                63     -2.648313   5 C  px        
   461     -2.395213  27 H  s               198     -2.228942  12 H  s         
   437     -1.970321  25 C  pz               13     -1.833526   2 C  s         
   318      1.725496  19 C  py              310      1.698737  19 C  s         

 Vector   79  Occ=0.000000D+00  E= 3.815935D-02
              MO Center= -6.8D-01,  4.6D-01, -8.1D-01, r^2= 3.9D+01
   Bfn.  Coefficient  Atom+Function         Bfn.  Coefficient  Atom+Function  
  ----- ------------  ---------------      ----- ------------  ---------------
   428     -4.056599  25 C  s               384      4.004738  22 H  s         
   147      3.376287   9 C  px              461     -3.038992  27 H  s         
   318      2.896897  19 C  py               63      2.818328   5 C  px        
    56      2.694059   5 C  s               521      2.589707  30 N  s         
   198     -2.040064  12 H  s               437     -2.032038  25 C  pz        

 Vector   80  Occ=0.000000D+00  E= 4.550368D-02
              MO Center= -1.7D+00, -1.6D+00,  4.7D-01, r^2= 4.2D+01
   Bfn.  Coefficient  Atom+Function         Bfn.  Coefficient  Atom+Function  
  ----- ------------  ---------------      ----- ------------  ---------------
    63      3.448150   5 C  px               46      2.483924   4 H  s         
   428      2.301453  25 C  s               300     -1.808274  18 H  s         
   147      1.763459   9 C  px              310     -1.742900  19 C  s         
    12     -1.729340   2 C  s               521     -1.659983  30 N  s         
   198      1.630694  12 H  s               140     -1.596103   9 C  s         

 Vector   81  Occ=0.000000D+00  E= 4.906292D-02
              MO Center=  2.8D-01, -1.7D+00,  5.8D-02, r^2= 4.9D+01
   Bfn.  Coefficient  Atom+Function         Bfn.  Coefficient  Atom+Function  
  ----- ------------  ---------------      ----- ------------  ---------------
   318      2.885651  19 C  py              217     -2.698291  14 C  s         
   452     -2.566413  26 H  s               291     -2.552736  17 H  s         
   207      2.487026  13 H  s               360     -2.375258  21 N  s         
   174      2.186633  11 C  s               225     -1.954526  14 C  py        
     3      1.851947   1 H  s               394     -1.677001  23 C  s         

 Vector   82  Occ=0.000000D+00  E= 5.236075D-02
              MO Center=  6.9D-01,  7.1D-01,  3.1D-01, r^2= 4.0D+01
   Bfn.  Coefficient  Atom+Function         Bfn.  Coefficient  Atom+Function  
  ----- ------------  ---------------      ----- ------------  ---------------
   164      4.486006  10 H  s               428      3.131924  25 C  s         
   318     -2.951082  19 C  py              149     -2.922821   9 C  pz        
    56     -2.668763   5 C  s               564     -2.545771  33 C  s         
   452      2.301706  26 H  s               147     -1.833161   9 C  px        
   418      1.831803  24 H  s               545     -1.786568  31 H  s         

 Vector   83  Occ=0.000000D+00  E= 5.606755D-02
              MO Center=  1.8D-01, -8.2D-02,  1.1D+00, r^2= 4.6D+01
   Bfn.  Coefficient  Atom+Function         Bfn.  Coefficient  Atom+Function  
  ----- ------------  ---------------      ----- ------------  ---------------
   471      3.938925  28 C  s               614      3.226898  35 N  s         
   573     -2.888630  33 C  pz              638      2.889930  36 H  s         
   198      2.782990  12 H  s               452     -2.759543  26 H  s         
    63     -2.560131   5 C  px              428     -2.226005  25 C  s         
   300     -2.031322  18 H  s               147     -1.962916   9 C  px        

 Vector   84  Occ=0.000000D+00  E= 6.212979D-02
              MO Center=  1.0D+00, -6.2D-01, -7.0D-01, r^2= 3.8D+01
   Bfn.  Coefficient  Atom+Function         Bfn.  Coefficient  Atom+Function  
  ----- ------------  ---------------      ----- ------------  ---------------
   164      4.975967  10 H  s               207     -4.640521  13 H  s         
   418     -4.354360  24 H  s               564     -3.666705  33 C  s         
   147     -3.392820   9 C  px              614      3.363625  35 N  s         
   217     -3.314337  14 C  s               461      3.327962  27 H  s         
   401      3.014132  23 C  px              182     -2.843631  11 C  py        

 Vector   85  Occ=0.000000D+00  E= 6.481315D-02
              MO Center= -1.6D+00,  3.7D-01,  7.7D-02, r^2= 4.6D+01
   Bfn.  Coefficient  Atom+Function         Bfn.  Coefficient  Atom+Function  
  ----- ------------  ---------------      ----- ------------  ---------------
   471      5.674068  28 C  s               217      4.991774  14 C  s         
   140     -4.066266   9 C  s                 3      3.995988   1 H  s         
   521     -3.772859  30 N  s                46     -3.252035   4 H  s         
   174     -3.147350  11 C  s               461      2.998986  27 H  s         
   564      3.002515  33 C  s               554     -2.942955  32 H  s         

 Vector   86  Occ=0.000000D+00  E= 6.877211D-02
              MO Center= -4.3D-01,  1.6D-02,  1.2D+00, r^2= 4.2D+01
   Bfn.  Coefficient  Atom+Function         Bfn.  Coefficient  Atom+Function  
  ----- ------------  ---------------      ----- ------------  ---------------
   164     -4.987093  10 H  s                63      4.679806   5 C  px        
    37      3.539608   3 H  s               148     -3.414130   9 C  py        
   614      3.083724  35 N  s               368     -2.847869  21 N  py        
   638      2.713244  36 H  s               300      2.489952  18 H  s         
   310     -2.356431  19 C  s                13      2.329202   2 C  s         

 Vector   87  Occ=0.000000D+00  E= 7.076615D-02
              MO Center= -5.7D-01,  1.3D+00, -6.4D-01, r^2= 4.1D+01
   Bfn.  Coefficient  Atom+Function         Bfn.  Coefficient  Atom+Function  
  ----- ------------  ---------------      ----- ------------  ---------------
   418      5.759379  24 H  s               471     -5.718214  28 C  s         
   401     -4.634587  23 C  px                3     -3.906644   1 H  s         
   564      3.790810  33 C  s                37      3.367930   3 H  s         
   198     -2.870234  12 H  s               452     -2.518940  26 H  s         
   310     -2.217308  19 C  s               360     -2.003487  21 N  s         

 Vector   88  Occ=0.000000D+00  E= 7.958499D-02
              MO Center= -7.4D-01, -4.0D-02, -1.5D+00, r^2= 4.1D+01
   Bfn.  Coefficient  Atom+Function         Bfn.  Coefficient  Atom+Function  
  ----- ------------  ---------------      ----- ------------  ---------------
   452      5.851019  26 H  s               461     -5.595442  27 H  s         
   217     -5.042505  14 C  s                46     -4.200229   4 H  s         
   198      3.971087  12 H  s               207     -3.612598  13 H  s         
   164      3.345252  10 H  s               436     -3.243721  25 C  py        
   147     -3.036501   9 C  px               37      2.956200   3 H  s         

 Vector   89  Occ=0.000000D+00  E= 8.248140D-02
              MO Center=  1.1D+00, -4.4D-01, -1.1D+00, r^2= 4.4D+01
   Bfn.  Coefficient  Atom+Function         Bfn.  Coefficient  Atom+Function  
  ----- ------------  ---------------      ----- ------------  ---------------
   207      8.468777  13 H  s               217     -7.964507  14 C  s         
   471     -5.420040  28 C  s               198     -4.686486  12 H  s         
   140      4.415522   9 C  s               181     -4.339840  11 C  px        
   418     -4.074556  24 H  s               300     -3.889133  18 H  s         
   318      3.840770  19 C  py              452      3.299651  26 H  s         

 Vector   90  Occ=0.000000D+00  E= 9.173412D-02
              MO Center= -8.3D-01,  6.9D-01, -4.6D-01, r^2= 4.7D+01
   Bfn.  Coefficient  Atom+Function         Bfn.  Coefficient  Atom+Function  
  ----- ------------  ---------------      ----- ------------  ---------------
   471      8.395220  28 C  s               217     -6.587710  14 C  s         
   318     -5.398487  19 C  py              310      5.001878  19 C  s         
[...]
   106      7.741157   7 N  s               148      7.293253   9 C  py        
    63     -7.242992   5 C  px              147     -7.087559   9 C  px        
   428     -6.534630  25 C  s               149      5.901591   9 C  pz        

 Vector  185  Occ=0.000000D+00  E= 4.391916D-01
              MO Center= -8.4D-01,  1.3D-01, -3.4D-02, r^2= 2.3D+01
   Bfn.  Coefficient  Atom+Function         Bfn.  Coefficient  Atom+Function  
  ----- ------------  ---------------      ----- ------------  ---------------
   217    -13.627037  14 C  s                12     13.202040   2 C  s         
   173     -9.032514  11 C  s                63     -8.700471   5 C  px        
   140      8.295285   9 C  s               319     -8.206726  19 C  pz        
   564     -7.937691  33 C  s               182     -7.543694  11 C  py        
    45     -7.502146   4 H  s               318     -7.513785  19 C  py        

 Vector  186  Occ=0.000000D+00  E= 4.416950D-01
              MO Center= -6.2D-01, -5.5D-01, -2.3D-01, r^2= 2.3D+01
   Bfn.  Coefficient  Atom+Function         Bfn.  Coefficient  Atom+Function  
  ----- ------------  ---------------      ----- ------------  ---------------
   471     27.731561  28 C  s               217    -16.351765  14 C  s         
   106     10.240297   7 N  s               521    -10.201669  30 N  s         
   564    -10.116723  33 C  s               394    -10.060066  23 C  s         
   403      9.939693  23 C  pz               56     -9.805588   5 C  s         
   318     -9.442140  19 C  py              435      8.410325  25 C  px        

 Vector  187  Occ=0.000000D+00  E= 4.458069D-01
              MO Center=  4.2D-01,  2.0D-01,  9.7D-02, r^2= 2.0D+01
   Bfn.  Coefficient  Atom+Function         Bfn.  Coefficient  Atom+Function  
  ----- ------------  ---------------      ----- ------------  ---------------
   310     22.695525  19 C  s               428    -18.816515  25 C  s         
   217    -16.422592  14 C  s               140     16.025796   9 C  s         
   564     14.518042  33 C  s               471    -13.974600  28 C  s         
    56     12.639579   5 C  s                13    -12.516188   2 C  s         
   403    -10.780634  23 C  pz              360     -9.890809  21 N  s         

 Vector  188  Occ=0.000000D+00  E= 4.503396D-01
              MO Center=  4.6D-01, -8.3D-01, -4.5D-01, r^2= 2.2D+01
   Bfn.  Coefficient  Atom+Function         Bfn.  Coefficient  Atom+Function  
  ----- ------------  ---------------      ----- ------------  ---------------
   318     18.679654  19 C  py              564    -15.169553  33 C  s         
   147     10.294332   9 C  px              427    -10.042106  25 C  s         
   182      9.343657  11 C  py              173      8.859524  11 C  s         
    13      8.711816   2 C  s               113      8.648000   7 N  px        
   217      6.942955  14 C  s               460      6.767810  27 H  s         

 Vector  189  Occ=0.000000D+00  E= 4.527807D-01
              MO Center=  2.1D-01, -7.0D-01, -1.5D-01, r^2= 2.2D+01
   Bfn.  Coefficient  Atom+Function         Bfn.  Coefficient  Atom+Function  
  ----- ------------  ---------------      ----- ------------  ---------------
   318     17.602730  19 C  py              360    -14.395237  21 N  s         
   471    -11.823059  28 C  s               310     11.731111  19 C  s         
    56     10.934755   5 C  s               428    -10.820479  25 C  s         
   401     -9.609937  23 C  px              564      8.653503  33 C  s         
   174      8.147502  11 C  s               140      7.509373   9 C  s         

 Vector  190  Occ=0.000000D+00  E= 4.534315D-01
              MO Center=  2.8D-01, -7.8D-01,  6.1D-03, r^2= 2.3D+01
   Bfn.  Coefficient  Atom+Function         Bfn.  Coefficient  Atom+Function  
  ----- ------------  ---------------      ----- ------------  ---------------
   318     16.541762  19 C  py              564    -15.043748  33 C  s         
   384      8.783659  22 H  s               360      8.108844  21 N  s         
   402      7.554938  23 C  py              310      5.719783  19 C  s         
   369      5.356195  21 N  pz              197      4.762948  12 H  s         
   589      4.751648  34 O  s               319     -4.602960  19 C  pz        

 Vector  191  Occ=0.000000D+00  E= 4.557009D-01
              MO Center= -1.1D+00, -1.0D+00,  1.2D-01, r^2= 2.0D+01
   Bfn.  Coefficient  Atom+Function         Bfn.  Coefficient  Atom+Function  
  ----- ------------  ---------------      ----- ------------  ---------------
   564     12.614082  33 C  s               360    -10.931736  21 N  s         
   310     10.440380  19 C  s               113     -9.725140   7 N  px        
    13     -9.080957   2 C  s               106     -9.021634   7 N  s         
   140      8.559021   9 C  s               384     -7.355828  22 H  s         
   427      6.681953  25 C  s               401     -6.503882  23 C  px        

 Vector  192  Occ=0.000000D+00  E= 4.607446D-01
              MO Center= -4.0D-01, -9.6D-01,  1.1D-01, r^2= 2.0D+01
   Bfn.  Coefficient  Atom+Function         Bfn.  Coefficient  Atom+Function  
  ----- ------------  ---------------      ----- ------------  ---------------
   147     12.546281   9 C  px              319    -12.377812  19 C  pz        
   318     11.227297  19 C  py              564    -10.063945  33 C  s         
   402      9.144457  23 C  py              471      8.572208  28 C  s         
   217     -7.681495  14 C  s                63      7.005207   5 C  px        
   114     -6.999068   7 N  py              614     -5.958927  35 N  s         

 Vector  193  Occ=0.000000D+00  E= 4.676853D-01
              MO Center= -1.1D+00,  6.3D-01,  4.9D-01, r^2= 2.1D+01
   Bfn.  Coefficient  Atom+Function         Bfn.  Coefficient  Atom+Function  
  ----- ------------  ---------------      ----- ------------  ---------------
   318     15.224777  19 C  py              471    -14.354595  28 C  s         
   402     13.789947  23 C  py              147      9.202710   9 C  px        
   564     -8.404835  33 C  s               106      8.299325   7 N  s         
   217     -8.029667  14 C  s               360     -7.945081  21 N  s         
   140      6.912635   9 C  s                56      6.143591   5 C  s         

 Vector  194  Occ=0.000000D+00  E= 4.715822D-01
              MO Center=  6.3D-01,  1.4D+00, -7.8D-02, r^2= 2.0D+01
   Bfn.  Coefficient  Atom+Function         Bfn.  Coefficient  Atom+Function  
  ----- ------------  ---------------      ----- ------------  ---------------
   614    -13.953124  35 N  s               564     13.618008  33 C  s         
   471    -11.170154  28 C  s                13    -10.333510   2 C  s         
   217      8.622236  14 C  s               360     -8.665058  21 N  s         
   573      7.154022  33 C  pz               63     -7.103982   5 C  px        
   403     -6.840992  23 C  pz              521      6.732608  30 N  s         

 Vector  195  Occ=0.000000D+00  E= 4.767314D-01
              MO Center= -5.1D-01,  2.6D-01,  9.4D-02, r^2= 2.2D+01
   Bfn.  Coefficient  Atom+Function         Bfn.  Coefficient  Atom+Function  
  ----- ------------  ---------------      ----- ------------  ---------------
   360     21.402060  21 N  s                13     17.582678   2 C  s         
   471    -15.884592  28 C  s               140    -14.563877   9 C  s         
   217     13.547136  14 C  s                63     12.221575   5 C  px        
   147     11.881994   9 C  px              310    -11.908860  19 C  s         
   318     11.635664  19 C  py              114     -8.343372   7 N  py        

 Vector  196  Occ=0.000000D+00  E= 4.792105D-01
              MO Center= -4.6D-01, -3.0D-01,  3.1D-02, r^2= 1.9D+01
   Bfn.  Coefficient  Atom+Function         Bfn.  Coefficient  Atom+Function  
  ----- ------------  ---------------      ----- ------------  ---------------
   217     21.171854  14 C  s               564     17.770791  33 C  s         
   182     12.237203  11 C  py              174    -11.946583  11 C  s         
   140    -10.800573   9 C  s               368    -10.457500  21 N  py        
   106     10.390400   7 N  s                13    -10.313787   2 C  s         
   148     -9.363052   9 C  py              318      9.102625  19 C  py        

 Vector  197  Occ=0.000000D+00  E= 4.845168D-01
              MO Center= -3.7D-01,  1.2D+00, -1.0D-01, r^2= 2.0D+01
   Bfn.  Coefficient  Atom+Function         Bfn.  Coefficient  Atom+Function  
  ----- ------------  ---------------      ----- ------------  ---------------
   471     16.930219  28 C  s               564    -11.418360  33 C  s         
   614     11.198184  35 N  s               428     -9.651117  25 C  s         
   310      8.958870  19 C  s               318     -8.937926  19 C  py        
   427     -8.189225  25 C  s               521     -8.200285  30 N  s         
   451      7.574241  26 H  s               147     -7.385110   9 C  px        

 Vector  198  Occ=0.000000D+00  E= 4.902703D-01
              MO Center= -1.1D-01, -1.1D+00, -2.2D-01, r^2= 2.1D+01
   Bfn.  Coefficient  Atom+Function         Bfn.  Coefficient  Atom+Function  
  ----- ------------  ---------------      ----- ------------  ---------------
   428     20.009530  25 C  s                13     16.711852   2 C  s         
   217     16.170172  14 C  s               318     15.538343  19 C  py        
   564    -15.563427  33 C  s                56    -11.079416   5 C  s         
   174     10.958525  11 C  s                63      9.141359   5 C  px        
   360     -8.730653  21 N  s               403      7.719197  23 C  pz        

 Vector  199  Occ=0.000000D+00  E= 4.940531D-01
              MO Center= -4.1D-01,  8.8D-01,  3.8D-02, r^2= 2.0D+01
   Bfn.  Coefficient  Atom+Function         Bfn.  Coefficient  Atom+Function  
  ----- ------------  ---------------      ----- ------------  ---------------
   318     17.566180  19 C  py              428    -13.161408  25 C  s         
    56     12.835416   5 C  s               471    -12.687758  28 C  s         
   148    -11.957055   9 C  py              147      9.641021   9 C  px        
   521      8.248786  30 N  s               140     -8.149594   9 C  s         
   460      8.135459  27 H  s                63      7.244225   5 C  px        

 Vector  200  Occ=0.000000D+00  E= 4.975653D-01
              MO Center=  3.9D-01,  7.6D-01,  9.4D-02, r^2= 2.0D+01
   Bfn.  Coefficient  Atom+Function         Bfn.  Coefficient  Atom+Function  
  ----- ------------  ---------------      ----- ------------  ---------------
   217     16.753046  14 C  s                56    -11.749960   5 C  s         
   147     -8.092869   9 C  px              564     -7.633373  33 C  s         
   614      7.302135  35 N  s               174      6.164421  11 C  s         
   114      5.881817   7 N  py              182      5.842893  11 C  py        
   403      5.854551  23 C  pz              360     -5.694442  21 N  s         

 Vector  201  Occ=0.000000D+00  E= 5.010808D-01
              MO Center=  3.4D-01, -1.1D+00, -2.5D-02, r^2= 2.5D+01
   Bfn.  Coefficient  Atom+Function         Bfn.  Coefficient  Atom+Function  
  ----- ------------  ---------------      ----- ------------  ---------------
   564     27.208997  33 C  s               428    -21.295485  25 C  s         
   318    -16.794160  19 C  py              403    -15.584228  23 C  pz        
   471    -15.273691  28 C  s               394     13.396527  23 C  s         
   310     12.494790  19 C  s                56     11.764982   5 C  s         
   217     11.349006  14 C  s               384    -10.999189  22 H  s         


 center of mass
 --------------
 x =   0.02933242 y =   0.01820469 z =   0.00498459

 moments of inertia (a.u.)
 ------------------
        8708.699629181809          -0.000000000000          -0.000000000000
          -0.000000000000        3189.165444768216           0.000000000001
          -0.000000000000           0.000000000001        9734.667997176317

  Mulliken analysis of the total density
  --------------------------------------

    Atom       Charge   Shell Charges
 -----------   ------   -------------------------------------------------------
    1 H    1     0.95   0.77  0.22  0.00  0.03 -0.07
    2 C    6     6.37   2.01  0.66  0.29  0.19  2.07  1.01 -0.03  0.06  0.11
    3 H    1     0.81   0.76  0.09  0.01  0.03 -0.07
    4 H    1     0.82   0.76  0.08  0.01  0.03 -0.07
    5 C    6     5.13   2.01  0.68  0.10 -0.04  1.89  0.36 -0.10  0.24 -0.02
    6 O    8     8.86   2.01  0.81  1.00  0.19  2.80  1.87  0.17  0.01 -0.01
    7 N    7     7.71   2.01  0.72  0.88 -0.09  2.45  1.45  0.21  0.05  0.04
    8 H    1     0.91   0.74  0.18 -0.01  0.06 -0.06
    9 C    6     6.12   2.01  0.66  0.13  0.02  1.99  0.87  0.18  0.14  0.12
   10 H    1     1.14   0.78  0.29  0.00  0.03  0.03
   11 C    6     6.40   2.01  0.66  0.73 -0.14  2.06  0.88 -0.04  0.09  0.16
   12 H    1     0.83   0.77  0.08  0.00  0.03 -0.06
   13 H    1     0.99   0.78  0.25 -0.01  0.03 -0.07
   14 C    6     4.51   2.01  0.68 -0.02  0.12  1.91 -0.26  0.01  0.24 -0.17
   15 O    8     8.80   2.01  0.82  1.02  0.17  2.80  1.84  0.13  0.02 -0.01
   16 N    7     7.16   2.01  0.72  0.77 -0.19  2.47  1.26  0.09  0.04 -0.02
   17 H    1     0.98   0.75  0.20 -0.01  0.06 -0.02
   18 H    1     0.97   0.76  0.21 -0.01  0.06 -0.04
   19 C    6     4.85   2.01  0.68  0.19  0.02  1.89  0.18 -0.04  0.24 -0.32
   20 O    8     8.90   2.01  0.82  1.05  0.20  2.79  1.86  0.16  0.01 -0.00
   21 N    7     7.56   2.01  0.72  0.79 -0.06  2.46  1.41  0.16  0.06  0.02
   22 H    1     0.84   0.74  0.23 -0.02  0.06 -0.17
   23 C    6     6.13   2.01  0.66  0.00  0.00  1.99  1.24  0.03  0.14  0.06
   24 H    1     1.04   0.77  0.25 -0.01  0.03 -0.01
   25 C    6     6.50   2.01  0.66  0.84 -0.06  2.06  0.77 -0.02  0.09  0.16
   26 H    1     0.91   0.77  0.19 -0.01  0.03 -0.07
   27 H    1     0.86   0.77  0.15 -0.01  0.03 -0.08
   28 C    6     4.56   2.01  0.68  0.01  0.06  1.91 -0.23  0.00  0.24 -0.13
   29 O    8     8.87   2.01  0.81  1.03  0.19  2.80  1.86  0.16  0.02 -0.00
   30 N    7     7.17   2.01  0.72  0.77 -0.16  2.47  1.25  0.08  0.04 -0.02
   31 H    1     0.99   0.75  0.21 -0.01  0.05 -0.02
   32 H    1     0.93   0.75  0.18 -0.01  0.06 -0.04
   33 C    6     4.44   2.01  0.68  0.07 -0.10  1.89 -0.18 -0.03  0.24 -0.13
   34 O    8     8.90   2.01  0.82  1.04  0.21  2.80  1.86  0.16  0.01 -0.00
   35 N    7     7.22   2.01  0.72  0.83 -0.19  2.46  1.24  0.11  0.04 -0.01
   36 H    1     1.03   0.76  0.24 -0.01  0.05 -0.02
   37 H    1     0.85   0.73  0.18 -0.00  0.06 -0.12

       Multipole analysis of the density wrt the origin
       ------------------------------------------------

     L   x y z        total         open         nuclear
     -   - - -        -----         ----         -------
     0   0 0 0      0.000000      0.000000    152.000000

     1   1 0 0     -0.373936      0.000000      0.000000
     1   0 1 0     -1.367792      0.000000     -0.000000
     1   0 0 1     -0.354712      0.000000      0.000000

     2   2 0 0    -94.552748      0.000000   1158.915697
     2   1 1 0    -17.406909      0.000000    -23.337431
     2   1 0 1     -6.618509      0.000000    -20.710996
     2   0 2 0    -73.894156      0.000000   4093.012809
     2   0 1 1     -5.795623      0.000000    -12.593027
     2   0 0 2    -88.300092      0.000000    599.484951


 Task  times  cpu:     4718.5s     wall:     4734.2s


                                NWChem Input Module
                                -------------------


 Summary of allocated global arrays
-----------------------------------
  No active global arrays


MA_summarize_allocated_blocks: starting scan ...
MA_summarize_allocated_blocks: scan completed: 0 heap blocks, 0 stack blocks
MA usage statistics:

	allocation statistics:
					      heap	     stack
					      ----	     -----
	current number of blocks	         0	         0
	maximum number of blocks	        16	        14
	current total bytes		         0	         0
	maximum total bytes		    138336	  29746664
	maximum total K-bytes		       139	     29747
	maximum total M-bytes		         1	        30


                                     CITATION
                                     --------
                Please cite the following reference when publishing
                           results obtained with NWChem:

          E. Apra, E. J. Bylaska, W. A. de Jong, N. Govind, K. Kowalski,
       T. P. Straatsma, M. Valiev, H. J. J. van Dam, Y. Alexeev, J. Anchell,
       V. Anisimov, F. W. Aquino, R. Atta-Fynn, J. Autschbach, N. P. Bauman,
     J. C. Becca, D. E. Bernholdt, K. Bhaskaran-Nair, S. Bogatko, P. Borowski,
         J. Boschen, J. Brabec, A. Bruner, E. Cauet, Y. Chen, G. N. Chuev,
      C. J. Cramer, J. Daily, M. J. O. Deegan, T. H. Dunning Jr., M. Dupuis,
   K. G. Dyall, G. I. Fann, S. A. Fischer, A. Fonari, H. Fruchtl, L. Gagliardi,
      J. Garza, N. Gawande, S. Ghosh, K. Glaesemann, A. W. Gotz, J. Hammond,
       V. Helms, E. D. Hermes, K. Hirao, S. Hirata, M. Jacquelin, L. Jensen,
   B. G. Johnson, H. Jonsson, R. A. Kendall, M. Klemm, R. Kobayashi, V. Konkov,
      S. Krishnamoorthy, M. Krishnan, Z. Lin, R. D. Lins, R. J. Littlefield,
      A. J. Logsdail, K. Lopata, W. Ma, A. V. Marenich, J. Martin del Campo,
   D. Mejia-Rodriguez, J. E. Moore, J. M. Mullin, T. Nakajima, D. R. Nascimento,
    J. A. Nichols, P. J. Nichols, J. Nieplocha, A. Otero-de-la-Roza, B. Palmer,
    A. Panyala, T. Pirojsirikul, B. Peng, R. Peverati, J. Pittner, L. Pollack,
   R. M. Richard, P. Sadayappan, G. C. Schatz, W. A. Shelton, D. W. Silverstein,
   D. M. A. Smith, T. A. Soares, D. Song, M. Swart, H. L. Taylor, G. S. Thomas,
            V. Tipparaju, D. G. Truhlar, K. Tsemekhman, T. Van Voorhis,
      A. Vazquez-Mayagoitia, P. Verma, O. Villa, A. Vishnu, K. D. Vogiatzis,
        D. Wang, J. H. Weare, M. J. Williamson, T. L. Windus, K. Wolinski,
        A. T. Wong, Q. Wu, C. Yang, Q. Yu, M. Zacharias, Z. Zhang, Y. Zhao,
                                and R. J. Harrison
                        "NWChem: Past, present, and future
                         J. Chem. Phys. 152, 184102 (2020)
                               doi:10.1063/5.0004997

                                      AUTHORS
                                      -------
  E. Apra, E. J. Bylaska, N. Govind, K. Kowalski, M. Valiev, D. Mejia-Rodriguez,
       A. Kunitsa, N. P. Bauman, A. Panyala, W. A. de Jong, T. P. Straatsma,
   H. J. J. van Dam, D. Wang, T. L. Windus, J. Hammond, J. Autschbach, A. Woods,
    K. Bhaskaran-Nair, J. Brabec, K. Lopata, S. A. Fischer, S. Krishnamoorthy,
     M. Jacquelin, W. Ma, M. Klemm, O. Villa, Y. Chen, V. Anisimov, F. Aquino,
     S. Hirata, M. T. Hackler, E. Hermes, L. Jensen, J. E. Moore, J. C. Becca,
      V. Konjkov, T. Risthaus, M. Malagoli, A. Marenich, A. Otero-de-la-Roza,
        J. Mullin, P. Nichols, R. Peverati, J. Pittner, Y. Zhao, P.-D. Fan,
        A. Fonari, M. J. Williamson, R. J. Harrison, J. R. Rehr, M. Dupuis,
     D. Silverstein, D. M. A. Smith, J. Nieplocha, V. Tipparaju, M. Krishnan,
     B. E. Van Kuiken, A. Vazquez-Mayagoitia, M. Swart, Q. Wu, T. Van Voorhis,
     A. A. Auer, M. Nooijen, L. D. Crosby, E. Brown, G. Cisneros, G. I. Fann,
   H. Fruchtl, J. Garza, K. Hirao, R. A. Kendall, J. A. Nichols, K. Tsemekhman,
    K. Wolinski, J. Anchell, D. E. Bernholdt, P. Borowski, T. Clark, D. Clerc,
   H. Dachsel, M. J. O. Deegan, K. Dyall, D. Elwood, E. Glendening, M. Gutowski,
   A. C. Hess, J. Jaffe, B. G. Johnson, J. Ju, R. Kobayashi, R. Kutteh, Z. Lin,
   R. Littlefield, X. Long, B. Meng, T. Nakajima, S. Niu, L. Pollack, M. Rosing,
   K. Glaesemann, G. Sandrone, M. Stave, H. Taylor, G. Thomas, J. H. van Lenthe,
                               A. T. Wong, Z. Zhang.

 Total times  cpu:     4718.5s     wall:     4734.7s
