export TMOUT=5400
export TMPDIR=/tmp
export PTMPDIR=/tmp/ptmp
 argument  1 = inputs/ASP_GLY_0.nw



============================== echo of input deck ==============================
start ASP_GLY_0
geometry
H          1.12300        3.26100        0.74800
C          2.20800        3.32400        0.70900
H          2.55400        3.16100       -0.31000
H          2.65000        2.58200        1.37100
C          2.63700        4.70000        1.15700
O          1.79800        5.52200        1.50300
N          3.94300        4.93200        1.15100
H          4.57000        4.20500        0.81600
C          4.59000        6.22000        1.43300
H          4.04000        6.74300        2.21600
C          6.02800        5.95200        1.92500
H          6.47700        6.90500        2.21200
H          5.98600        5.32400        2.81600
C          6.92200        5.26400        0.87600
O          6.41700        4.37400        0.14900
O          8.08100        5.69900        0.73400
C          4.64700        7.13700        0.19400
O          4.45600        8.34700        0.30400
N          4.91600        6.56100       -0.98300
H          5.17200        5.57700       -0.94800
C          5.13000        7.28600       -2.24000
H          4.85000        6.63400       -3.06600
H          4.48200        8.16200       -2.26200
C          6.57100        7.76000       -2.48600
O          6.81600        8.47700       -3.45200
N          7.54900        7.38400       -1.67000
H          7.37800        6.76200       -0.88800
H          8.48100        7.70900       -1.85200
end

basis
 * library aug-cc-pvdz
end

echo

scf
 direct
end

task scf energy
================================================================================


                                         
                                         


             Northwest Computational Chemistry Package (NWChem) 7.2.0
             --------------------------------------------------------


                    Environmental Molecular Sciences Laboratory
                       Pacific Northwest National Laboratory
                                Richland, WA 99352

                              Copyright (c) 1994-2022
                       Pacific Northwest National Laboratory
                            Battelle Memorial Institute

             NWChem is an open-source computational chemistry package
                        distributed under the terms of the
                      Educational Community License (ECL) 2.0
             A copy of the license is included with this distribution
                              in the LICENSE.TXT file

                                  ACKNOWLEDGMENT
                                  --------------

            This software and its documentation were developed at the
            EMSL at Pacific Northwest National Laboratory, a multiprogram
            national laboratory, operated for the U.S. Department of Energy
            by Battelle under Contract Number DE-AC05-76RL01830. Support
            for this work was provided by the Department of Energy Office
            of Biological and Environmental Research, Office of Basic
            Energy Sciences, and the Office of Advanced Scientific Computing.


           Job information
           ---------------

    hostname        = nova21-swift-2
    program         = /opt/rit/el9/20230413/app/linux-rhel9-x86_64_v3/gcc-11.2.1/nwchem-7.2.0-oxtctbuhfuzyfaoziquq6bki22grib3g/bin/nwchem
    date            = Fri Jul 11 10:01:43 2025

    compiled        = Wed_May_17_23:46:39_2023
    source          = /tmp/root/spack-stage/spack-stage-nwchem-7.2.0-oxtctbuhfuzyfaoziquq6bki22grib3g/spack-src
    nwchem branch   = 7.2.0
    nwchem revision = d0d141fd
    ga revision     = 5.8.0
    use scalapack   = T
    input           = inputs/ASP_GLY_0.nw
    prefix          = ASP_GLY_0.
    data base       = ./ASP_GLY_0.db
    status          = startup
    nproc           =        8
    time left       =     -1s



           Memory information
           ------------------

    heap     =   26214396 doubles =    200.0 Mbytes
    stack    =   26214401 doubles =    200.0 Mbytes
    global   =   52428800 doubles =    400.0 Mbytes (distinct from heap & stack)
    total    =  104857597 doubles =    800.0 Mbytes
    verify   = yes
    hardfail = no 


           Directory information
           ---------------------

  0 permanent = .
  0 scratch   = .




                                NWChem Input Module
                                -------------------



 Scaling coordinates for geometry "geometry" by  1.889725989
 (inverse scale =  0.529177249)

 C1  symmetry detected

          ------
          auto-z
          ------
  no constraints, skipping    0.0000000000000000     
  no constraints, skipping    0.0000000000000000     


                             Geometry "geometry" -> ""
                             -------------------------

 Output coordinates in angstroms (scale by  1.889725989 to convert to a.u.)

  No.       Tag          Charge          X              Y              Z
 ---- ---------------- ---------- -------------- -------------- --------------
    1 H                    1.0000    -1.30968682    -4.56863835    -1.66962448
    2 C                    6.0000    -0.54912712    -3.79214298    -1.63330807
    3 H                    1.0000    -0.71489435    -3.07102301    -2.43152686
    4 H                    1.0000     0.44068605    -4.23273330    -1.73490562
    5 C                    6.0000    -0.63626244    -3.08032828    -0.30520858
    6 O                    8.0000    -1.46594240    -3.42952163     0.52486141
    7 N                    7.0000     0.22821908    -2.09181647    -0.11809334
    8 H                    1.0000     0.86216346    -1.84347941    -0.87329280
    9 C                    6.0000     0.26241638    -1.18492716     1.03666174
   10 H                    1.0000    -0.00266811    -1.73300563     1.94134854
   11 C                    6.0000     1.69569529    -0.63298621     1.18767418
   12 H                    1.0000     1.73711772    -0.02565675     2.09410350
   13 H                    1.0000     2.38497215    -1.46855916     1.31707372
   14 C                    6.0000     2.16214142     0.21233660    -0.01267509
   15 O                    8.0000     1.83550235    -0.15504298    -1.16766131
   16 O                    8.0000     2.75843072     1.27873896     0.23205958
   17 C                    6.0000    -0.71699260    -0.00244467     0.88917541
   18 O                    8.0000    -1.35557732     0.40344840     1.85878428
   19 N                    7.0000    -0.82954028     0.55272836    -0.32267521
   20 H                    1.0000    -0.17445930     0.22012154    -1.02642134
   21 C                    6.0000    -1.61351023     1.75561328    -0.62255683
   22 H                    1.0000    -1.92907162     1.71073921    -1.66380000
   23 H                    1.0000    -2.50516020     1.76638442     0.00402780
   24 C                    6.0000    -0.87566638     3.08750484    -0.41441182
   25 O                    8.0000    -1.49080429     4.14422056    -0.52498864
   26 N                    7.0000     0.42225818     3.09814470    -0.13335196
   27 H                    1.0000     0.95948500     2.24050162    -0.07432071
   28 H                    1.0000     0.87991868     3.98145365    -0.00036636

      Atomic Mass 
      ----------- 

      H                  1.007825
      C                 12.000000
      O                 15.994910
      N                 14.003070


 Effective nuclear repulsion energy (a.u.)    1175.3230459990

            Nuclear Dipole moment (a.u.) 
            ----------------------------
        X                 Y               Z
 ---------------- ---------------- ----------------
     0.0000000000     0.0000000000    -0.0000000000



                                Z-matrix (autoz)
                                -------- 

 Units are Angstrom for bonds and degrees for angles

      Type          Name      I     J     K     L     M      Value
      ----------- --------  ----- ----- ----- ----- ----- ----------
    1 Stretch                  1     2                       1.08753
    2 Stretch                  2     3                       1.08841
    3 Stretch                  2     4                       1.08820
    4 Stretch                  2     5                       1.50934
    5 Stretch                  5     6                       1.22447
    6 Stretch                  5     7                       1.32646
    7 Stretch                  7     8                       1.01680
    8 Stretch                  7     9                       1.46870
    9 Stretch                  9    10                       1.09047
   10 Stretch                  9    11                       1.54329
   11 Stretch                  9    17                       1.54248
   12 Stretch                 11    12                       1.09187
   13 Stretch                 11    13                       1.09088
   14 Stretch                 11    14                       1.54045
   15 Stretch                 14    15                       1.25525
   16 Stretch                 14    16                       1.24606
   17 Stretch                 17    18                       1.22991
   18 Stretch                 17    19                       1.33771
   19 Stretch                 19    20                       1.01736
   20 Stretch                 19    21                       1.46679
   21 Stretch                 21    22                       1.08894
   22 Stretch                 21    23                       1.08985
   23 Stretch                 21    24                       1.53677
   24 Stretch                 24    25                       1.22771
   25 Stretch                 24    26                       1.32805
   26 Stretch                 26    27                       1.01373
   27 Stretch                 26    28                       1.00368
   28 Bend                     1     2     3               110.00204
   29 Bend                     1     2     4               110.11569
   30 Bend                     1     2     5               109.01020
   31 Bend                     2     5     6               120.07439
   32 Bend                     2     5     7               115.97331
   33 Bend                     3     2     4               109.77408
   34 Bend                     3     2     5               108.90873
   35 Bend                     4     2     5               109.00237
   36 Bend                     5     7     8               118.91860
   37 Bend                     5     7     9               125.89102
   38 Bend                     6     5     7               123.95154
   39 Bend                     7     9    10               109.65058
   40 Bend                     7     9    11               108.62629
   41 Bend                     7     9    17               112.54458
   42 Bend                     8     7     9               114.74837
   43 Bend                     9    11    12               108.38467
   44 Bend                     9    11    13               108.93417
   45 Bend                     9    11    14               113.65464
   46 Bend                     9    17    18               120.48361
   47 Bend                     9    17    19               117.27089
   48 Bend                    10     9    11               108.92543
   49 Bend                    10     9    17               108.07597
   50 Bend                    11     9    17               108.95837
   51 Bend                    11    14    15               118.52750
   52 Bend                    11    14    16               117.48319
   53 Bend                    12    11    13               107.67426
   54 Bend                    12    11    14               109.27857
   55 Bend                    13    11    14               108.74927
   56 Bend                    15    14    16               123.76025
   57 Bend                    17    19    20               115.89985
   58 Bend                    17    19    21               124.78708
   59 Bend                    18    17    19               122.24476
   60 Bend                    19    21    22               108.45654
   61 Bend                    19    21    23               109.13793
   62 Bend                    19    21    24               115.24179
   63 Bend                    20    19    21               118.08885
   64 Bend                    21    24    25               119.55158
   65 Bend                    21    24    26               120.32087
   66 Bend                    22    21    23               108.24421
   67 Bend                    22    21    24               107.71973
   68 Bend                    23    21    24               107.84094
   69 Bend                    24    26    27               121.56563
   70 Bend                    24    26    28               118.73316
   71 Bend                    25    24    26               120.12215
   72 Bend                    27    26    28               119.68291
   73 Torsion                  1     2     5     6           0.87798
   74 Torsion                  1     2     5     7        -179.42717
   75 Torsion                  2     5     7     8           2.54378
   76 Torsion                  2     5     7     9         174.49038
   77 Torsion                  3     2     5     6         120.90701
   78 Torsion                  3     2     5     7         -59.39815
   79 Torsion                  4     2     5     6        -119.34504
   80 Torsion                  4     2     5     7          60.34981
   81 Torsion                  5     7     9    10          36.52591
   82 Torsion                  5     7     9    11         155.45868
   83 Torsion                  5     7     9    17         -83.80269
   84 Torsion                  6     5     7     8        -177.77456
   85 Torsion                  6     5     7     9          -5.82796
   86 Torsion                  7     9    11    12        -175.36674
   87 Torsion                  7     9    11    13         -58.47868
   88 Torsion                  7     9    11    14          62.93716
   89 Torsion                  7     9    17    18         140.82739
   90 Torsion                  7     9    17    19         -39.47891
   91 Torsion                  8     7     9    10        -151.23437
   92 Torsion                  8     7     9    11         -32.30160
   93 Torsion                  8     7     9    17          88.43703
   94 Torsion                  9    11    14    15         -38.70836
   95 Torsion                  9    11    14    16         136.00207
   96 Torsion                  9    17    19    20          -7.07865
   97 Torsion                  9    17    19    21        -174.14568
   98 Torsion                 10     9    11    12         -55.97915
   99 Torsion                 10     9    11    13          60.90891
  100 Torsion                 10     9    11    14        -177.67526
  101 Torsion                 10     9    17    18          19.59557
  102 Torsion                 10     9    17    19        -160.71073
  103 Torsion                 11     9    17    18         -98.62472
  104 Torsion                 11     9    17    19          81.06897
  105 Torsion                 12    11     9    17          61.70550
  106 Torsion                 12    11    14    15        -159.90594
  107 Torsion                 12    11    14    16          14.80449
  108 Torsion                 13    11     9    17         178.59356
  109 Torsion                 13    11    14    15          82.81057
  110 Torsion                 13    11    14    16        -102.47900
  111 Torsion                 14    11     9    17         -59.99061
  112 Torsion                 17    19    21    22        -152.80164
  113 Torsion                 17    19    21    23         -35.08032
  114 Torsion                 17    19    21    24          86.39550
  115 Torsion                 18    17    19    20         172.60926
  116 Torsion                 18    17    19    21           5.54223
  117 Torsion                 19    21    24    25        -173.47399
  118 Torsion                 19    21    24    26           7.37001
  119 Torsion                 20    19    21    22          40.39008
  120 Torsion                 20    19    21    23         158.11139
  121 Torsion                 20    19    21    24         -80.41279
  122 Torsion                 21    24    26    27           1.67547
  123 Torsion                 21    24    26    28        -179.88592
  124 Torsion                 22    21    24    25          65.32267
  125 Torsion                 22    21    24    26        -113.83333
  126 Torsion                 23    21    24    25         -51.29934
  127 Torsion                 23    21    24    26         129.54466
  128 Torsion                 25    24    26    27        -177.47570
  129 Torsion                 25    24    26    28           0.96292


            XYZ format geometry
            -------------------
    28
 geometry
 H                    -1.30968682    -4.56863835    -1.66962448
 C                    -0.54912712    -3.79214298    -1.63330807
 H                    -0.71489435    -3.07102301    -2.43152686
 H                     0.44068605    -4.23273330    -1.73490562
 C                    -0.63626244    -3.08032828    -0.30520858
 O                    -1.46594240    -3.42952163     0.52486141
 N                     0.22821908    -2.09181647    -0.11809334
 H                     0.86216346    -1.84347941    -0.87329280
 C                     0.26241638    -1.18492716     1.03666174
 H                    -0.00266811    -1.73300563     1.94134854
 C                     1.69569529    -0.63298621     1.18767418
 H                     1.73711772    -0.02565675     2.09410350
 H                     2.38497215    -1.46855916     1.31707372
 C                     2.16214142     0.21233660    -0.01267509
 O                     1.83550235    -0.15504298    -1.16766131
 O                     2.75843072     1.27873896     0.23205958
 C                    -0.71699260    -0.00244467     0.88917541
 O                    -1.35557732     0.40344840     1.85878428
 N                    -0.82954028     0.55272836    -0.32267521
 H                    -0.17445930     0.22012154    -1.02642134
 C                    -1.61351023     1.75561328    -0.62255683
 H                    -1.92907162     1.71073921    -1.66380000
 H                    -2.50516020     1.76638442     0.00402780
 C                    -0.87566638     3.08750484    -0.41441182
 O                    -1.49080429     4.14422056    -0.52498864
 N                     0.42225818     3.09814470    -0.13335196
 H                     0.95948500     2.24050162    -0.07432071
 H                     0.87991868     3.98145365    -0.00036636

 ==============================================================================
                                internuclear distances
 ------------------------------------------------------------------------------
       center one      |      center two      | atomic units |  angstroms
 ------------------------------------------------------------------------------
    2 C                |   1 H                |     2.05513  |     1.08753
    3 H                |   2 C                |     2.05681  |     1.08841
    4 H                |   2 C                |     2.05639  |     1.08820
    5 C                |   2 C                |     2.85225  |     1.50934
    6 O                |   5 C                |     2.31391  |     1.22447
    7 N                |   5 C                |     2.50665  |     1.32646
    8 H                |   7 N                |     1.92147  |     1.01680
    9 C                |   7 N                |     2.77544  |     1.46870
   10 H                |   9 C                |     2.06068  |     1.09047
   11 C                |   9 C                |     2.91639  |     1.54329
   12 H                |  11 C                |     2.06333  |     1.09187
   13 H                |  11 C                |     2.06147  |     1.09088
   14 C                |  11 C                |     2.91103  |     1.54045
   15 O                |  14 C                |     2.37208  |     1.25525
   16 O                |  14 C                |     2.35472  |     1.24606
   17 C                |   9 C                |     2.91487  |     1.54248
   18 O                |  17 C                |     2.32419  |     1.22991
   19 N                |  17 C                |     2.52790  |     1.33771
   20 H                |  19 N                |     1.92253  |     1.01736
   21 C                |  19 N                |     2.77183  |     1.46679
   22 H                |  21 C                |     2.05779  |     1.08894
   23 H                |  21 C                |     2.05951  |     1.08985
   24 C                |  21 C                |     2.90408  |     1.53677
   25 O                |  24 C                |     2.32003  |     1.22771
   26 N                |  24 C                |     2.50965  |     1.32805
   27 H                |  26 N                |     1.91567  |     1.01373
   28 H                |  26 N                |     1.89668  |     1.00368
 ------------------------------------------------------------------------------
                         number of included internuclear distances:         27
 ==============================================================================



 ==============================================================================
                                 internuclear angles
 ------------------------------------------------------------------------------
        center 1       |       center 2       |       center 3       |  degrees
 ------------------------------------------------------------------------------
    1 H                |   2 C                |   3 H                |   110.00
    1 H                |   2 C                |   4 H                |   110.12
    1 H                |   2 C                |   5 C                |   109.01
    3 H                |   2 C                |   4 H                |   109.77
    3 H                |   2 C                |   5 C                |   108.91
    4 H                |   2 C                |   5 C                |   109.00
    2 C                |   5 C                |   6 O                |   120.07
    2 C                |   5 C                |   7 N                |   115.97
    6 O                |   5 C                |   7 N                |   123.95
    5 C                |   7 N                |   8 H                |   118.92
    5 C                |   7 N                |   9 C                |   125.89
    8 H                |   7 N                |   9 C                |   114.75
    7 N                |   9 C                |  10 H                |   109.65
    7 N                |   9 C                |  11 C                |   108.63
    7 N                |   9 C                |  17 C                |   112.54
   10 H                |   9 C                |  11 C                |   108.93
   10 H                |   9 C                |  17 C                |   108.08
   11 C                |   9 C                |  17 C                |   108.96
    9 C                |  11 C                |  12 H                |   108.38
    9 C                |  11 C                |  13 H                |   108.93
    9 C                |  11 C                |  14 C                |   113.65
   12 H                |  11 C                |  13 H                |   107.67
   12 H                |  11 C                |  14 C                |   109.28
   13 H                |  11 C                |  14 C                |   108.75
   11 C                |  14 C                |  15 O                |   118.53
   11 C                |  14 C                |  16 O                |   117.48
   15 O                |  14 C                |  16 O                |   123.76
    9 C                |  17 C                |  18 O                |   120.48
    9 C                |  17 C                |  19 N                |   117.27
   18 O                |  17 C                |  19 N                |   122.24
   17 C                |  19 N                |  20 H                |   115.90
   17 C                |  19 N                |  21 C                |   124.79
   20 H                |  19 N                |  21 C                |   118.09
   19 N                |  21 C                |  22 H                |   108.46
   19 N                |  21 C                |  23 H                |   109.14
   19 N                |  21 C                |  24 C                |   115.24
   22 H                |  21 C                |  23 H                |   108.24
   22 H                |  21 C                |  24 C                |   107.72
   23 H                |  21 C                |  24 C                |   107.84
   21 C                |  24 C                |  25 O                |   119.55
   21 C                |  24 C                |  26 N                |   120.32
   25 O                |  24 C                |  26 N                |   120.12
   24 C                |  26 N                |  27 H                |   121.57
   24 C                |  26 N                |  28 H                |   118.73
   27 H                |  26 N                |  28 H                |   119.68
 ------------------------------------------------------------------------------
                            number of included internuclear angles:         45
 ==============================================================================



  library name resolved from: environment
  library file name is: </opt/rit/el9/20230413/app/linux-rhel9-x86_64_v3/gcc-11.2.1/nwchem-7.2.0-oxtctbuhfuzyfaoziquq6bki22grib3g/share/nwchem/libraries/>
  


 Summary of "ao basis" -> "" (cartesian)
 ------------------------------------------------------------------------------
       Tag                 Description            Shells   Functions and Types
 ---------------- ------------------------------  ------  ---------------------
 *                        aug-cc-pvdz                 on all atoms 


                      Basis "ao basis" -> "ao basis" (cartesian)
                      -----
  H (Hydrogen)
  ------------
            Exponent  Coefficients 
       -------------- ---------------------------------------------------------
  1 S  1.30100000E+01  0.019685
  1 S  1.96200000E+00  0.137977
  1 S  4.44600000E-01  0.478148

  2 S  1.22000000E-01  1.000000

  3 S  2.97400000E-02  1.000000

  4 P  7.27000000E-01  1.000000

  5 P  1.41000000E-01  1.000000

  C (Carbon)
  ----------
            Exponent  Coefficients 
       -------------- ---------------------------------------------------------
  1 S  6.66500000E+03  0.000692
  1 S  1.00000000E+03  0.005329
  1 S  2.28000000E+02  0.027077
  1 S  6.47100000E+01  0.101718
  1 S  2.10600000E+01  0.274740
  1 S  7.49500000E+00  0.448564
  1 S  2.79700000E+00  0.285074
  1 S  5.21500000E-01  0.015204

  2 S  6.66500000E+03 -0.000146
  2 S  1.00000000E+03 -0.001154
  2 S  2.28000000E+02 -0.005725
  2 S  6.47100000E+01 -0.023312
  2 S  2.10600000E+01 -0.063955
  2 S  7.49500000E+00 -0.149981
  2 S  2.79700000E+00 -0.127262
  2 S  5.21500000E-01  0.544529

  3 S  1.59600000E-01  1.000000

  4 S  4.69000000E-02  1.000000

  5 P  9.43900000E+00  0.038109
  5 P  2.00200000E+00  0.209480
  5 P  5.45600000E-01  0.508557

  6 P  1.51700000E-01  1.000000

  7 P  4.04100000E-02  1.000000

  8 D  5.50000000E-01  1.000000

  9 D  1.51000000E-01  1.000000

  O (Oxygen)
  ----------
            Exponent  Coefficients 
       -------------- ---------------------------------------------------------
  1 S  1.17200000E+04  0.000710
  1 S  1.75900000E+03  0.005470
  1 S  4.00800000E+02  0.027837
  1 S  1.13700000E+02  0.104800
  1 S  3.70300000E+01  0.283062
  1 S  1.32700000E+01  0.448719
  1 S  5.02500000E+00  0.270952
  1 S  1.01300000E+00  0.015458

  2 S  1.17200000E+04 -0.000160
  2 S  1.75900000E+03 -0.001263
  2 S  4.00800000E+02 -0.006267
  2 S  1.13700000E+02 -0.025716
  2 S  3.70300000E+01 -0.070924
  2 S  1.32700000E+01 -0.165411
  2 S  5.02500000E+00 -0.116955
  2 S  1.01300000E+00  0.557368

  3 S  3.02300000E-01  1.000000

  4 S  7.89600000E-02  1.000000

  5 P  1.77000000E+01  0.043018
  5 P  3.85400000E+00  0.228913
  5 P  1.04600000E+00  0.508728

  6 P  2.75300000E-01  1.000000

  7 P  6.85600000E-02  1.000000

  8 D  1.18500000E+00  1.000000

  9 D  3.32000000E-01  1.000000

  N (Nitrogen)
  ------------
            Exponent  Coefficients 
       -------------- ---------------------------------------------------------
  1 S  9.04600000E+03  0.000700
  1 S  1.35700000E+03  0.005389
  1 S  3.09300000E+02  0.027406
  1 S  8.77300000E+01  0.103207
  1 S  2.85600000E+01  0.278723
  1 S  1.02100000E+01  0.448540
  1 S  3.83800000E+00  0.278238
  1 S  7.46600000E-01  0.015440

  2 S  9.04600000E+03 -0.000153
  2 S  1.35700000E+03 -0.001208
  2 S  3.09300000E+02 -0.005992
  2 S  8.77300000E+01 -0.024544
  2 S  2.85600000E+01 -0.067459
  2 S  1.02100000E+01 -0.158078
  2 S  3.83800000E+00 -0.121831
  2 S  7.46600000E-01  0.549003

  3 S  2.24800000E-01  1.000000

  4 S  6.12400000E-02  1.000000

  5 P  1.35500000E+01  0.039919
  5 P  2.91700000E+00  0.217169
  5 P  7.97300000E-01  0.510319

  6 P  2.18500000E-01  1.000000

  7 P  5.61100000E-02  1.000000

  8 D  8.17000000E-01  1.000000

  9 D  2.30000000E-01  1.000000



 Summary of "ao basis" -> "ao basis" (cartesian)
 ------------------------------------------------------------------------------
       Tag                 Description            Shells   Functions and Types
 ---------------- ------------------------------  ------  ---------------------
 H                        aug-cc-pvdz                5        9   3s2p
 C                        aug-cc-pvdz                9       25   4s3p2d
 O                        aug-cc-pvdz                9       25   4s3p2d
 N                        aug-cc-pvdz                9       25   4s3p2d


 ------------------------------------------------------------------------
 scf: no. of closed-shell electrons is not even!                   0
 ------------------------------------------------------------------------
 scf: no. of closed-shell electrons is not even!                   0
 ------------------------------------------------------------------------
 ------------------------------------------------------------------------
  current input line : 
     0: 
 scf: no. of closed-shell electrons is not even!                   0
 ------------------------------------------------------------------------
 ------------------------------------------------------------------------
  current input line : 
     0: 
 ------------------------------------------------------------------------
 ------------------------------------------------------------------------
 There is an error in the input file
 scf: no. of closed-shell electrons is not even!                   0
 ------------------------------------------------------------------------
 ------------------------------------------------------------------------
  current input line : 
     0: 
 ------------------------------------------------------------------------
 ------------------------------------------------------------------------
 There is an error in the input file
 ------------------------------------------------------------------------
 For more information see the NWChem manual at https://nwchemgit.github.io


 For further details see manual section:                                                                                                                                                                                                                                                                
 scf: no. of closed-shell electrons is not even!                   0
 ------------------------------------------------------------------------
 ------------------------------------------------------------------------
  current input line : 
     0: 
 ------------------------------------------------------------------------
 ------------------------------------------------------------------------
 There is an error in the input file
 ------------------------------------------------------------------------
 For more information see the NWChem manual at https://nwchemgit.github.io


 For further details see manual section:                                                                                                                                                                                                                                                                
 scf: no. of closed-shell electrons is not even!                   0
 scf: no. of closed-shell electrons is not even!                   0
 ------------------------------------------------------------------------
 ------------------------------------------------------------------------
  current input line : 
     0: 
 ------------------------------------------------------------------------
 ------------------------------------------------------------------------
 There is an error in the input file
 ------------------------------------------------------------------------
 For more information see the NWChem manual at https://nwchemgit.github.io


 For further details see manual section:                                                                                                                                                                                                                                                                
 scf: no. of closed-shell electrons is not even!                   0
 ------------------------------------------------------------------------
 ------------------------------------------------------------------------
  current input line : 
     0: 
 ------------------------------------------------------------------------
 ------------------------------------------------------------------------
 There is an error in the input file
 ------------------------------------------------------------------------
 For more information see the NWChem manual at https://nwchemgit.github.io


 For further details see manual section:                                                                                                                                                                                                                                                                
 ------------------------------------------------------------------------
  current input line : 
    43: task scf energy
 ------------------------------------------------------------------------
 ------------------------------------------------------------------------
 There is an error in the input file
 ------------------------------------------------------------------------
 For more information see the NWChem manual at https://nwchemgit.github.io


 For further details see manual section:                                                                                                                                                                                                                                                                
0:scf: no. of closed-shell electrons is not even!:Received an Error in Communication
 ------------------------------------------------------------------------
 ------------------------------------------------------------------------
 There is an error in the input file
 ------------------------------------------------------------------------
 For more information see the NWChem manual at https://nwchemgit.github.io


 For further details see manual section:                                                                                                                                                                                                                                                                
1:scf: no. of closed-shell electrons is not even!:Received an Error in Communication
 ------------------------------------------------------------------------
 For more information see the NWChem manual at https://nwchemgit.github.io


 For further details see manual section:                                                                                                                                                                                                                                                                
2:scf: no. of closed-shell electrons is not even!:Received an Error in Communication
3:scf: no. of closed-shell electrons is not even!:Received an Error in Communication
4:scf: no. of closed-shell electrons is not even!:Received an Error in Communication
6:scf: no. of closed-shell electrons is not even!:Received an Error in Communication
7:scf: no. of closed-shell electrons is not even!:Received an Error in Communication
 ------------------------------------------------------------------------
 ------------------------------------------------------------------------
  current input line : 
     0: 
 ------------------------------------------------------------------------
 ------------------------------------------------------------------------
 There is an error in the input file
 ------------------------------------------------------------------------
 For more information see the NWChem manual at https://nwchemgit.github.io


 For further details see manual section:                                                                                                                                                                                                                                                                
5:scf: no. of closed-shell electrons is not even!:Received an Error in Communication
--------------------------------------------------------------------------
MPI_ABORT was invoked on rank 0 in communicator MPI COMMUNICATOR 3 DUP FROM 0
with errorcode -1.

NOTE: invoking MPI_ABORT causes Open MPI to kill all MPI processes.
You may or may not see output from other processes, depending on
exactly when Open MPI kills them.
--------------------------------------------------------------------------
--------------------------------------------------------------------------
MPI_ABORT was invoked on rank 1 in communicator MPI COMMUNICATOR 3 DUP FROM 0
with errorcode -1.

NOTE: invoking MPI_ABORT causes Open MPI to kill all MPI processes.
You may or may not see output from other processes, depending on
exactly when Open MPI kills them.
--------------------------------------------------------------------------
--------------------------------------------------------------------------
MPI_ABORT was invoked on rank 4 in communicator MPI COMMUNICATOR 3 DUP FROM 0
with errorcode -1.

NOTE: invoking MPI_ABORT causes Open MPI to kill all MPI processes.
You may or may not see output from other processes, depending on
exactly when Open MPI kills them.
--------------------------------------------------------------------------
--------------------------------------------------------------------------
MPI_ABORT was invoked on rank 6 in communicator MPI COMMUNICATOR 3 DUP FROM 0
with errorcode -1.

NOTE: invoking MPI_ABORT causes Open MPI to kill all MPI processes.
You may or may not see output from other processes, depending on
exactly when Open MPI kills them.
--------------------------------------------------------------------------
--------------------------------------------------------------------------
MPI_ABORT was invoked on rank 2 in communicator MPI COMMUNICATOR 3 DUP FROM 0
with errorcode -1.

NOTE: invoking MPI_ABORT causes Open MPI to kill all MPI processes.
You may or may not see output from other processes, depending on
exactly when Open MPI kills them.
--------------------------------------------------------------------------
--------------------------------------------------------------------------
MPI_ABORT was invoked on rank 3 in communicator MPI COMMUNICATOR 3 DUP FROM 0
with errorcode -1.

NOTE: invoking MPI_ABORT causes Open MPI to kill all MPI processes.
You may or may not see output from other processes, depending on
exactly when Open MPI kills them.
--------------------------------------------------------------------------
--------------------------------------------------------------------------
MPI_ABORT was invoked on rank 5 in communicator MPI COMMUNICATOR 3 DUP FROM 0
with errorcode -1.

NOTE: invoking MPI_ABORT causes Open MPI to kill all MPI processes.
You may or may not see output from other processes, depending on
exactly when Open MPI kills them.
--------------------------------------------------------------------------
--------------------------------------------------------------------------
MPI_ABORT was invoked on rank 7 in communicator MPI COMMUNICATOR 3 DUP FROM 0
with errorcode -1.

NOTE: invoking MPI_ABORT causes Open MPI to kill all MPI processes.
You may or may not see output from other processes, depending on
exactly when Open MPI kills them.
--------------------------------------------------------------------------
slurmstepd: error: *** STEP 6619389.117 ON nova21-swift-2 CANCELLED AT 2025-07-11T10:01:44 ***
srun: Job step aborted: Waiting up to 32 seconds for job step to finish.
slurmstepd: error: --task-epilog failed status=9
srun: error: nova21-swift-2: tasks 0-7: Killed
