export TMOUT=5400
export TMPDIR=/tmp
export PTMPDIR=/tmp/ptmp
 argument  1 = inputs/ASP_ALA_0.nw



============================== echo of input deck ==============================
start ASP_ALA_0
geometry
H          7.52100        6.38500        2.26900
C          6.98500        5.89800        3.08100
H          7.50300        6.07600        4.02100
H          6.92600        4.82800        2.89700
C          5.58700        6.47500        3.17400
O          5.24500        7.05600        4.19400
N          4.75300        6.36000        2.14500
H          3.85500        6.81100        2.24900
C          4.99200        5.70800        0.84800
H          6.04400        5.80700        0.58100
C          4.65700        4.20500        0.94600
H          5.22000        3.75400        1.76300
H          3.59300        4.09100        1.16300
C          5.00200        3.46300       -0.34900
O          6.03300        3.82400       -0.96100
O          4.17400        2.64100       -0.78800
C          4.17200        6.37400       -0.28000
O          3.21300        7.10000       -0.01900
N          4.54700        6.12100       -1.53700
H          5.30000        5.44500       -1.66000
C          3.80100        6.52600       -2.72800
H          3.38400        7.52000       -2.55900
C          4.79600        6.61000       -3.89300
H          5.22900        5.62600       -4.08200
H          4.28000        6.95300       -4.79000
H          5.59200        7.31500       -3.64900
C          2.61600        5.59400       -3.07600
O          1.74700        5.97000       -3.85800
N          2.54400        4.37900       -2.54200
H          3.27300        4.02400       -1.93100
H          1.76500        3.79300       -2.78100
end

basis
 * library aug-cc-pvdz
end

echo

scf
 direct
end

task scf energy
================================================================================


                                         
                                         


             Northwest Computational Chemistry Package (NWChem) 7.2.0
             --------------------------------------------------------


                    Environmental Molecular Sciences Laboratory
                       Pacific Northwest National Laboratory
                                Richland, WA 99352

                              Copyright (c) 1994-2022
                       Pacific Northwest National Laboratory
                            Battelle Memorial Institute

             NWChem is an open-source computational chemistry package
                        distributed under the terms of the
                      Educational Community License (ECL) 2.0
             A copy of the license is included with this distribution
                              in the LICENSE.TXT file

                                  ACKNOWLEDGMENT
                                  --------------

            This software and its documentation were developed at the
            EMSL at Pacific Northwest National Laboratory, a multiprogram
            national laboratory, operated for the U.S. Department of Energy
            by Battelle under Contract Number DE-AC05-76RL01830. Support
            for this work was provided by the Department of Energy Office
            of Biological and Environmental Research, Office of Basic
            Energy Sciences, and the Office of Advanced Scientific Computing.


           Job information
           ---------------

    hostname        = nova21-swift-3
    program         = /opt/rit/el9/20230413/app/linux-rhel9-x86_64_v3/gcc-11.2.1/nwchem-7.2.0-oxtctbuhfuzyfaoziquq6bki22grib3g/bin/nwchem
    date            = Thu Jul 10 09:26:33 2025

    compiled        = Wed_May_17_23:46:39_2023
    source          = /tmp/root/spack-stage/spack-stage-nwchem-7.2.0-oxtctbuhfuzyfaoziquq6bki22grib3g/spack-src
    nwchem branch   = 7.2.0
    nwchem revision = d0d141fd
    ga revision     = 5.8.0
    use scalapack   = T
    input           = inputs/ASP_ALA_0.nw
    prefix          = ASP_ALA_0.
    data base       = ./ASP_ALA_0.db
    status          = startup
    nproc           =        8
    time left       =     -1s



           Memory information
           ------------------

    heap     =   26214396 doubles =    200.0 Mbytes
    stack    =   26214401 doubles =    200.0 Mbytes
    global   =   52428800 doubles =    400.0 Mbytes (distinct from heap & stack)
    total    =  104857597 doubles =    800.0 Mbytes
    verify   = yes
    hardfail = no 


           Directory information
           ---------------------

  0 permanent = .
  0 scratch   = .




                                NWChem Input Module
                                -------------------



 Scaling coordinates for geometry "geometry" by  1.889725989
 (inverse scale =  0.529177249)

 C1  symmetry detected

          ------
          auto-z
          ------
  no constraints, skipping    0.0000000000000000     
  no constraints, skipping    0.0000000000000000     


                             Geometry "geometry" -> ""
                             -------------------------

 Output coordinates in angstroms (scale by  1.889725989 to convert to a.u.)

  No.       Tag          Charge          X              Y              Z
 ---- ---------------- ---------- -------------- -------------- --------------
    1 H                    1.0000    -0.05856500     3.66416608     1.92606097
    2 C                    6.0000    -0.34045773     4.16165236     1.00039749
    3 H                    1.0000    -0.30331389     5.24024185     1.13777667
    4 H                    1.0000    -1.34709410     3.86761935     0.71323059
    5 C                    6.0000     0.63359047     3.77225118    -0.09302779
    6 O                    8.0000     1.31630565     4.63686392    -0.62337654
    7 N                    7.0000     0.74957555     2.49793747    -0.45399043
    8 H                    1.0000     1.45296581     2.29622803    -1.15053651
    9 C                    6.0000     0.02326067     1.33253846     0.07397344
   10 H                    1.0000    -0.20652742     1.49522453     1.12683843
   11 C                    6.0000    -1.30565144     1.15197150    -0.68906403
   12 H                    1.0000    -1.88467490     2.07427816    -0.64500438
   13 H                    1.0000    -1.08780377     0.93728296    -1.73722062
   14 C                    6.0000    -2.14967195     0.02000593    -0.09501240
   15 O                    8.0000    -2.13214774    -0.11773910     1.14939317
   16 O                    8.0000    -2.69439119    -0.77663134    -0.88408718
   17 C                    6.0000     0.87686336     0.04709952    -0.01175386
   18 O                    8.0000     1.86472228    -0.00695278    -0.74393628
   19 N                    7.0000     0.49080311    -0.99175725     0.73417984
   20 H                    1.0000    -0.38376154    -0.88403780     1.24667101
   21 C                    6.0000     1.07173580    -2.33207195     0.66279550
   22 H                    1.0000     2.14916851    -2.23962592     0.51761119
   23 C                    6.0000     0.82213287    -3.01890849     2.01196560
   24 H                    1.0000    -0.25110227    -3.12273754     2.18182393
   25 H                    1.0000     1.28202151    -4.00734609     2.00921686
   26 H                    1.0000     1.26006491    -2.42506206     2.81554444
   27 C                    6.0000     0.53218774    -3.19086182    -0.50567395
   28 O                    8.0000     1.13293651    -4.20417297    -0.85260683
   29 N                    7.0000    -0.59055888    -2.84288037    -1.12608828
   30 H                    1.0000    -1.13338091    -2.03803313    -0.82884738
   31 H                    1.0000    -0.92007829    -3.41429923    -1.88256395

      Atomic Mass 
      ----------- 

      H                  1.007825
      C                 12.000000
      O                 15.994910
      N                 14.003070


 Effective nuclear repulsion energy (a.u.)    1287.1002379668

            Nuclear Dipole moment (a.u.) 
            ----------------------------
        X                 Y               Z
 ---------------- ---------------- ----------------
    -0.0000000000     0.0000000000     0.0000000000



                                Z-matrix (autoz)
                                -------- 

 Units are Angstrom for bonds and degrees for angles

      Type          Name      I     J     K     L     M      Value
      ----------- --------  ----- ----- ----- ----- ----- ----------
    1 Stretch                  1     2                       1.08803
    2 Stretch                  2     3                       1.08794
    3 Stretch                  2     4                       1.08731
    4 Stretch                  2     5                       1.51525
    5 Stretch                  5     6                       1.22267
    6 Stretch                  5     7                       1.32952
    7 Stretch                  7     8                       1.01026
    8 Stretch                  7     9                       1.47120
    9 Stretch                  9    10                       1.08986
   10 Stretch                  9    11                       1.54300
   11 Stretch                  9    17                       1.54543
   12 Stretch                 11    12                       1.08989
   13 Stretch                 11    13                       1.09187
   14 Stretch                 11    14                       1.53187
   15 Stretch                 14    15                       1.25213
   16 Stretch                 14    16                       1.24659
   17 Stretch                 17    18                       1.23080
   18 Stretch                 17    19                       1.33592
   19 Stretch                 19    20                       1.01937
   20 Stretch                 19    21                       1.46254
   21 Stretch                 21    22                       1.09109
   22 Stretch                 21    23                       1.53437
   23 Stretch                 21    27                       1.54724
   24 Stretch                 23    24                       1.09154
   25 Stretch                 23    25                       1.09019
   26 Stretch                 23    26                       1.09095
   27 Stretch                 27    28                       1.22803
   28 Stretch                 27    29                       1.32912
   29 Stretch                 29    30                       1.01528
   30 Stretch                 29    31                       1.00367
   31 Bend                     1     2     3               109.69607
   32 Bend                     1     2     4               109.93241
   33 Bend                     1     2     5               109.26122
   34 Bend                     2     5     6               119.35525
   35 Bend                     2     5     7               119.88850
   36 Bend                     3     2     4               109.45450
   37 Bend                     3     2     5               108.90224
   38 Bend                     4     2     5               109.57599
   39 Bend                     5     7     8               116.05932
   40 Bend                     5     7     9               128.22482
   41 Bend                     6     5     7               120.75110
   42 Bend                     7     9    10               109.42238
   43 Bend                     7     9    11               109.90278
   44 Bend                     7     9    17               111.48686
   45 Bend                     8     7     9               115.65798
   46 Bend                     9    11    12               109.78769
   47 Bend                     9    11    13               109.01965
   48 Bend                     9    11    14               111.66828
   49 Bend                     9    17    18               120.85343
   50 Bend                     9    17    19               117.14352
   51 Bend                    10     9    11               108.27695
   52 Bend                    10     9    17               107.10992
   53 Bend                    11     9    17               110.54470
   54 Bend                    11    14    15               117.32153
   55 Bend                    11    14    16               117.87302
   56 Bend                    12    11    13               108.13133
   57 Bend                    12    11    14               108.47747
   58 Bend                    13    11    14               109.68842
   59 Bend                    15    14    16               124.39508
   60 Bend                    17    19    20               116.51803
   61 Bend                    17    19    21               124.79254
   62 Bend                    18    17    19               122.00235
   63 Bend                    19    21    22               108.72839
   64 Bend                    19    21    23               107.61933
   65 Bend                    19    21    27               114.01700
   66 Bend                    20    19    21               117.52681
   67 Bend                    21    23    24               109.83758
   68 Bend                    21    23    25               109.57335
   69 Bend                    21    23    26               109.79842
   70 Bend                    21    27    28               120.05012
   71 Bend                    21    27    29               120.11693
   72 Bend                    22    21    23               108.39499
   73 Bend                    22    21    27               106.91121
   74 Bend                    23    21    27               111.03001
   75 Bend                    24    23    25               109.20302
   76 Bend                    24    23    26               109.38079
   77 Bend                    25    23    26               109.02935
   78 Bend                    27    29    30               121.50187
   79 Bend                    27    29    31               118.69180
   80 Bend                    28    27    29               119.82822
   81 Bend                    30    29    31               119.76573
   82 Torsion                  1     2     5     6        -117.97639
   83 Torsion                  1     2     5     7          61.20386
   84 Torsion                  2     5     7     8        -176.62105
   85 Torsion                  2     5     7     9           0.46819
   86 Torsion                  3     2     5     6           1.82656
   87 Torsion                  3     2     5     7        -178.99319
   88 Torsion                  4     2     5     6         121.52328
   89 Torsion                  4     2     5     7         -59.29647
   90 Torsion                  5     7     9    10         -31.82473
   91 Torsion                  5     7     9    11          86.94655
   92 Torsion                  5     7     9    17        -150.12263
   93 Torsion                  6     5     7     8           2.54757
   94 Torsion                  6     5     7     9         179.63680
   95 Torsion                  7     9    11    12         -54.89516
   96 Torsion                  7     9    11    13          63.38883
   97 Torsion                  7     9    11    14        -175.25127
   98 Torsion                  7     9    17    18         -17.27520
   99 Torsion                  7     9    17    19         163.02198
  100 Torsion                  8     7     9    10         145.27438
  101 Torsion                  8     7     9    11         -95.95434
  102 Torsion                  8     7     9    17          26.97648
  103 Torsion                  9    11    14    15          36.91772
  104 Torsion                  9    11    14    16        -136.05750
  105 Torsion                  9    17    19    20           4.88338
  106 Torsion                  9    17    19    21         172.21172
  107 Torsion                 10     9    11    12          64.57806
  108 Torsion                 10     9    11    13        -177.13795
  109 Torsion                 10     9    11    14         -55.77805
  110 Torsion                 10     9    17    18        -136.95092
  111 Torsion                 10     9    17    19          43.34626
  112 Torsion                 11     9    17    18         105.28792
  113 Torsion                 11     9    17    19         -74.41489
  114 Torsion                 12    11     9    17        -178.37897
  115 Torsion                 12    11    14    15         -84.20278
  116 Torsion                 12    11    14    16         102.82200
  117 Torsion                 13    11     9    17         -60.09498
  118 Torsion                 13    11    14    15         157.88922
  119 Torsion                 13    11    14    16         -15.08600
  120 Torsion                 14    11     9    17          61.26492
  121 Torsion                 17    19    21    22          38.48853
  122 Torsion                 17    19    21    23         155.70048
  123 Torsion                 17    19    21    27         -80.67692
  124 Torsion                 18    17    19    20        -174.81577
  125 Torsion                 18    17    19    21          -7.48743
  126 Torsion                 19    21    23    24          62.52037
  127 Torsion                 19    21    23    25        -177.52034
  128 Torsion                 19    21    23    26         -57.79862
  129 Torsion                 19    21    27    28         164.12184
  130 Torsion                 19    21    27    29         -16.67078
  131 Torsion                 20    19    21    22        -154.29937
  132 Torsion                 20    19    21    23         -37.08741
  133 Torsion                 20    19    21    27          86.53519
  134 Torsion                 21    27    29    30          -2.45217
  135 Torsion                 21    27    29    31         179.87161
  136 Torsion                 22    21    23    24         179.94904
  137 Torsion                 22    21    23    25         -60.09167
  138 Torsion                 22    21    23    26          59.63006
  139 Torsion                 22    21    27    28          43.93134
  140 Torsion                 22    21    27    29        -136.86129
  141 Torsion                 23    21    27    28         -74.11966
  142 Torsion                 23    21    27    29         105.08771
  143 Torsion                 24    23    21    27         -62.90324
  144 Torsion                 25    23    21    27          57.05605
  145 Torsion                 26    23    21    27         176.77777
  146 Torsion                 28    27    29    30         176.75697
  147 Torsion                 28    27    29    31          -0.91925


            XYZ format geometry
            -------------------
    31
 geometry
 H                    -0.05856500     3.66416608     1.92606097
 C                    -0.34045773     4.16165236     1.00039749
 H                    -0.30331389     5.24024185     1.13777667
 H                    -1.34709410     3.86761935     0.71323059
 C                     0.63359047     3.77225118    -0.09302779
 O                     1.31630565     4.63686392    -0.62337654
 N                     0.74957555     2.49793747    -0.45399043
 H                     1.45296581     2.29622803    -1.15053651
 C                     0.02326067     1.33253846     0.07397344
 H                    -0.20652742     1.49522453     1.12683843
 C                    -1.30565144     1.15197150    -0.68906403
 H                    -1.88467490     2.07427816    -0.64500438
 H                    -1.08780377     0.93728296    -1.73722062
 C                    -2.14967195     0.02000593    -0.09501240
 O                    -2.13214774    -0.11773910     1.14939317
 O                    -2.69439119    -0.77663134    -0.88408718
 C                     0.87686336     0.04709952    -0.01175386
 O                     1.86472228    -0.00695278    -0.74393628
 N                     0.49080311    -0.99175725     0.73417984
 H                    -0.38376154    -0.88403780     1.24667101
 C                     1.07173580    -2.33207195     0.66279550
 H                     2.14916851    -2.23962592     0.51761119
 C                     0.82213287    -3.01890849     2.01196560
 H                    -0.25110227    -3.12273754     2.18182393
 H                     1.28202151    -4.00734609     2.00921686
 H                     1.26006491    -2.42506206     2.81554444
 C                     0.53218774    -3.19086182    -0.50567395
 O                     1.13293651    -4.20417297    -0.85260683
 N                    -0.59055888    -2.84288037    -1.12608828
 H                    -1.13338091    -2.03803313    -0.82884738
 H                    -0.92007829    -3.41429923    -1.88256395

 ==============================================================================
                                internuclear distances
 ------------------------------------------------------------------------------
       center one      |      center two      | atomic units |  angstroms
 ------------------------------------------------------------------------------
    2 C                |   1 H                |     2.05608  |     1.08803
    3 H                |   2 C                |     2.05590  |     1.08794
    4 H                |   2 C                |     2.05471  |     1.08731
    5 C                |   2 C                |     2.86341  |     1.51525
    6 O                |   5 C                |     2.31051  |     1.22267
    7 N                |   5 C                |     2.51243  |     1.32952
    8 H                |   7 N                |     1.90911  |     1.01026
    9 C                |   7 N                |     2.78017  |     1.47120
   10 H                |   9 C                |     2.05954  |     1.08986
   11 C                |   9 C                |     2.91584  |     1.54300
   12 H                |  11 C                |     2.05959  |     1.08989
   13 H                |  11 C                |     2.06334  |     1.09187
   14 C                |  11 C                |     2.89481  |     1.53187
   15 O                |  14 C                |     2.36618  |     1.25213
   16 O                |  14 C                |     2.35572  |     1.24659
   17 C                |   9 C                |     2.92043  |     1.54543
   18 O                |  17 C                |     2.32588  |     1.23080
   19 N                |  17 C                |     2.52452  |     1.33592
   20 H                |  19 N                |     1.92633  |     1.01937
   21 C                |  19 N                |     2.76380  |     1.46254
   22 H                |  21 C                |     2.06187  |     1.09109
   23 C                |  21 C                |     2.89955  |     1.53437
   24 H                |  23 C                |     2.06272  |     1.09154
   25 H                |  23 C                |     2.06016  |     1.09019
   26 H                |  23 C                |     2.06160  |     1.09095
   27 C                |  21 C                |     2.92386  |     1.54724
   28 O                |  27 C                |     2.32064  |     1.22803
   29 N                |  27 C                |     2.51168  |     1.32912
   30 H                |  29 N                |     1.91859  |     1.01528
   31 H                |  29 N                |     1.89667  |     1.00367
 ------------------------------------------------------------------------------
                         number of included internuclear distances:         30
 ==============================================================================



 ==============================================================================
                                 internuclear angles
 ------------------------------------------------------------------------------
        center 1       |       center 2       |       center 3       |  degrees
 ------------------------------------------------------------------------------
    1 H                |   2 C                |   3 H                |   109.70
    1 H                |   2 C                |   4 H                |   109.93
    1 H                |   2 C                |   5 C                |   109.26
    3 H                |   2 C                |   4 H                |   109.45
    3 H                |   2 C                |   5 C                |   108.90
    4 H                |   2 C                |   5 C                |   109.58
    2 C                |   5 C                |   6 O                |   119.36
    2 C                |   5 C                |   7 N                |   119.89
    6 O                |   5 C                |   7 N                |   120.75
    5 C                |   7 N                |   8 H                |   116.06
    5 C                |   7 N                |   9 C                |   128.22
    8 H                |   7 N                |   9 C                |   115.66
    7 N                |   9 C                |  10 H                |   109.42
    7 N                |   9 C                |  11 C                |   109.90
    7 N                |   9 C                |  17 C                |   111.49
   10 H                |   9 C                |  11 C                |   108.28
   10 H                |   9 C                |  17 C                |   107.11
   11 C                |   9 C                |  17 C                |   110.54
    9 C                |  11 C                |  12 H                |   109.79
    9 C                |  11 C                |  13 H                |   109.02
    9 C                |  11 C                |  14 C                |   111.67
   12 H                |  11 C                |  13 H                |   108.13
   12 H                |  11 C                |  14 C                |   108.48
   13 H                |  11 C                |  14 C                |   109.69
   11 C                |  14 C                |  15 O                |   117.32
   11 C                |  14 C                |  16 O                |   117.87
   15 O                |  14 C                |  16 O                |   124.40
    9 C                |  17 C                |  18 O                |   120.85
    9 C                |  17 C                |  19 N                |   117.14
   18 O                |  17 C                |  19 N                |   122.00
   17 C                |  19 N                |  20 H                |   116.52
   17 C                |  19 N                |  21 C                |   124.79
   20 H                |  19 N                |  21 C                |   117.53
   19 N                |  21 C                |  22 H                |   108.73
   19 N                |  21 C                |  23 C                |   107.62
   19 N                |  21 C                |  27 C                |   114.02
   22 H                |  21 C                |  23 C                |   108.39
   22 H                |  21 C                |  27 C                |   106.91
   23 C                |  21 C                |  27 C                |   111.03
   21 C                |  23 C                |  24 H                |   109.84
   21 C                |  23 C                |  25 H                |   109.57
   21 C                |  23 C                |  26 H                |   109.80
   24 H                |  23 C                |  25 H                |   109.20
   24 H                |  23 C                |  26 H                |   109.38
   25 H                |  23 C                |  26 H                |   109.03
   21 C                |  27 C                |  28 O                |   120.05
   21 C                |  27 C                |  29 N                |   120.12
   28 O                |  27 C                |  29 N                |   119.83
   27 C                |  29 N                |  30 H                |   121.50
   27 C                |  29 N                |  31 H                |   118.69
   30 H                |  29 N                |  31 H                |   119.77
 ------------------------------------------------------------------------------
                            number of included internuclear angles:         51
 ==============================================================================



  library name resolved from: environment
  library file name is: </opt/rit/el9/20230413/app/linux-rhel9-x86_64_v3/gcc-11.2.1/nwchem-7.2.0-oxtctbuhfuzyfaoziquq6bki22grib3g/share/nwchem/libraries/>
  


 Summary of "ao basis" -> "" (cartesian)
 ------------------------------------------------------------------------------
       Tag                 Description            Shells   Functions and Types
 ---------------- ------------------------------  ------  ---------------------
 *                        aug-cc-pvdz                 on all atoms 


                      Basis "ao basis" -> "ao basis" (cartesian)
                      -----
  H (Hydrogen)
  ------------
            Exponent  Coefficients 
       -------------- ---------------------------------------------------------
  1 S  1.30100000E+01  0.019685
  1 S  1.96200000E+00  0.137977
  1 S  4.44600000E-01  0.478148

  2 S  1.22000000E-01  1.000000

  3 S  2.97400000E-02  1.000000

  4 P  7.27000000E-01  1.000000

  5 P  1.41000000E-01  1.000000

  C (Carbon)
  ----------
            Exponent  Coefficients 
       -------------- ---------------------------------------------------------
  1 S  6.66500000E+03  0.000692
  1 S  1.00000000E+03  0.005329
  1 S  2.28000000E+02  0.027077
  1 S  6.47100000E+01  0.101718
  1 S  2.10600000E+01  0.274740
  1 S  7.49500000E+00  0.448564
  1 S  2.79700000E+00  0.285074
  1 S  5.21500000E-01  0.015204

  2 S  6.66500000E+03 -0.000146
  2 S  1.00000000E+03 -0.001154
  2 S  2.28000000E+02 -0.005725
  2 S  6.47100000E+01 -0.023312
  2 S  2.10600000E+01 -0.063955
  2 S  7.49500000E+00 -0.149981
  2 S  2.79700000E+00 -0.127262
  2 S  5.21500000E-01  0.544529

  3 S  1.59600000E-01  1.000000

  4 S  4.69000000E-02  1.000000

  5 P  9.43900000E+00  0.038109
  5 P  2.00200000E+00  0.209480
  5 P  5.45600000E-01  0.508557

  6 P  1.51700000E-01  1.000000

  7 P  4.04100000E-02  1.000000

  8 D  5.50000000E-01  1.000000

  9 D  1.51000000E-01  1.000000

  O (Oxygen)
  ----------
            Exponent  Coefficients 
       -------------- ---------------------------------------------------------
  1 S  1.17200000E+04  0.000710
  1 S  1.75900000E+03  0.005470
  1 S  4.00800000E+02  0.027837
  1 S  1.13700000E+02  0.104800
  1 S  3.70300000E+01  0.283062
  1 S  1.32700000E+01  0.448719
  1 S  5.02500000E+00  0.270952
  1 S  1.01300000E+00  0.015458

  2 S  1.17200000E+04 -0.000160
  2 S  1.75900000E+03 -0.001263
  2 S  4.00800000E+02 -0.006267
  2 S  1.13700000E+02 -0.025716
  2 S  3.70300000E+01 -0.070924
  2 S  1.32700000E+01 -0.165411
  2 S  5.02500000E+00 -0.116955
  2 S  1.01300000E+00  0.557368

  3 S  3.02300000E-01  1.000000

  4 S  7.89600000E-02  1.000000

  5 P  1.77000000E+01  0.043018
  5 P  3.85400000E+00  0.228913
  5 P  1.04600000E+00  0.508728

  6 P  2.75300000E-01  1.000000

  7 P  6.85600000E-02  1.000000

  8 D  1.18500000E+00  1.000000

  9 D  3.32000000E-01  1.000000

  N (Nitrogen)
  ------------
            Exponent  Coefficients 
       -------------- ---------------------------------------------------------
  1 S  9.04600000E+03  0.000700
  1 S  1.35700000E+03  0.005389
  1 S  3.09300000E+02  0.027406
  1 S  8.77300000E+01  0.103207
  1 S  2.85600000E+01  0.278723
  1 S  1.02100000E+01  0.448540
  1 S  3.83800000E+00  0.278238
  1 S  7.46600000E-01  0.015440

  2 S  9.04600000E+03 -0.000153
  2 S  1.35700000E+03 -0.001208
  2 S  3.09300000E+02 -0.005992
  2 S  8.77300000E+01 -0.024544
  2 S  2.85600000E+01 -0.067459
  2 S  1.02100000E+01 -0.158078
  2 S  3.83800000E+00 -0.121831
  2 S  7.46600000E-01  0.549003

  3 S  2.24800000E-01  1.000000

  4 S  6.12400000E-02  1.000000

  5 P  1.35500000E+01  0.039919
  5 P  2.91700000E+00  0.217169
  5 P  7.97300000E-01  0.510319

  6 P  2.18500000E-01  1.000000

  7 P  5.61100000E-02  1.000000

  8 D  8.17000000E-01  1.000000

  9 D  2.30000000E-01  1.000000



 Summary of "ao basis" -> "ao basis" (cartesian)
 ------------------------------------------------------------------------------
       Tag                 Description            Shells   Functions and Types
 ---------------- ------------------------------  ------  ---------------------
 H                        aug-cc-pvdz                5        9   3s2p
 C                        aug-cc-pvdz                9       25   4s3p2d
 O                        aug-cc-pvdz                9       25   4s3p2d
 N                        aug-cc-pvdz                9       25   4s3p2d


 ------------------------------------------------------------------------
 scf: no. of closed-shell electrons is not even!                   0
 ------------------------------------------------------------------------
 scf: no. of closed-shell electrons is not even!                   0
 ------------------------------------------------------------------------
 ------------------------------------------------------------------------
  current input line : 
 scf: no. of closed-shell electrons is not even!                   0
 scf: no. of closed-shell electrons is not even!                   0
 ------------------------------------------------------------------------
 ------------------------------------------------------------------------
  current input line : 
     0: 
 ------------------------------------------------------------------------
 ------------------------------------------------------------------------
 There is an error in the input file
 scf: no. of closed-shell electrons is not even!                   0
 ------------------------------------------------------------------------
 ------------------------------------------------------------------------
  current input line : 
     0: 
 ------------------------------------------------------------------------
 ------------------------------------------------------------------------
 There is an error in the input file
 ------------------------------------------------------------------------
 For more information see the NWChem manual at https://nwchemgit.github.io
 scf: no. of closed-shell electrons is not even!                   0
 ------------------------------------------------------------------------
 ------------------------------------------------------------------------
  current input line : 
     0: 
 ------------------------------------------------------------------------
 ------------------------------------------------------------------------
 There is an error in the input file
 ------------------------------------------------------------------------
 For more information see the NWChem manual at https://nwchemgit.github.io


 For further details see manual section:                                                                                                                                                                                                                                                                
 scf: no. of closed-shell electrons is not even!                   0
 ------------------------------------------------------------------------
 ------------------------------------------------------------------------
  current input line : 
     0: 
 ------------------------------------------------------------------------
 ------------------------------------------------------------------------
 There is an error in the input file
 ------------------------------------------------------------------------
 For more information see the NWChem manual at https://nwchemgit.github.io


 For further details see manual section:                                                                                                                                                                                                                                                                
 scf: no. of closed-shell electrons is not even!                   0
 ------------------------------------------------------------------------
 ------------------------------------------------------------------------
  current input line : 
     0: 
 ------------------------------------------------------------------------
 ------------------------------------------------------------------------
 There is an error in the input file
 ------------------------------------------------------------------------
 For more information see the NWChem manual at https://nwchemgit.github.io


 For further details see manual section:                                                                                                                                                                                                                                                                
 ------------------------------------------------------------------------
  current input line : 
    46: task scf energy
 ------------------------------------------------------------------------
 ------------------------------------------------------------------------
 There is an error in the input file
 ------------------------------------------------------------------------
 For more information see the NWChem manual at https://nwchemgit.github.io


 For further details see manual section:                                                                                                                                                                                                                                                                
0:scf: no. of closed-shell electrons is not even!:Received an Error in Communication
     0: 
 ------------------------------------------------------------------------
 ------------------------------------------------------------------------
 There is an error in the input file
 ------------------------------------------------------------------------
 For more information see the NWChem manual at https://nwchemgit.github.io


 For further details see manual section:                                                                                                                                                                                                                                                                
1:scf: no. of closed-shell electrons is not even!:Received an Error in Communication
 ------------------------------------------------------------------------
 For more information see the NWChem manual at https://nwchemgit.github.io


 For further details see manual section:                                                                                                                                                                                                                                                                
3:scf: no. of closed-shell electrons is not even!:Received an Error in Communication


 For further details see manual section:                                                                                                                                                                                                                                                                
4:scf: no. of closed-shell electrons is not even!:Received an Error in Communication
5:scf: no. of closed-shell electrons is not even!:Received an Error in Communication
6:scf: no. of closed-shell electrons is not even!:Received an Error in Communication
7:scf: no. of closed-shell electrons is not even!:Received an Error in Communication
 ------------------------------------------------------------------------
 ------------------------------------------------------------------------
  current input line : 
     0: 
 ------------------------------------------------------------------------
 ------------------------------------------------------------------------
 There is an error in the input file
 ------------------------------------------------------------------------
 For more information see the NWChem manual at https://nwchemgit.github.io


 For further details see manual section:                                                                                                                                                                                                                                                                
2:scf: no. of closed-shell electrons is not even!:Received an Error in Communication
--------------------------------------------------------------------------
MPI_ABORT was invoked on rank 0 in communicator MPI COMMUNICATOR 3 DUP FROM 0
with errorcode -1.

NOTE: invoking MPI_ABORT causes Open MPI to kill all MPI processes.
You may or may not see output from other processes, depending on
exactly when Open MPI kills them.
--------------------------------------------------------------------------
--------------------------------------------------------------------------
MPI_ABORT was invoked on rank 2 in communicator MPI COMMUNICATOR 3 DUP FROM 0
with errorcode -1.

NOTE: invoking MPI_ABORT causes Open MPI to kill all MPI processes.
You may or may not see output from other processes, depending on
exactly when Open MPI kills them.
--------------------------------------------------------------------------
--------------------------------------------------------------------------
MPI_ABORT was invoked on rank 7 in communicator MPI COMMUNICATOR 3 DUP FROM 0
with errorcode -1.

NOTE: invoking MPI_ABORT causes Open MPI to kill all MPI processes.
You may or may not see output from other processes, depending on
exactly when Open MPI kills them.
--------------------------------------------------------------------------
--------------------------------------------------------------------------
MPI_ABORT was invoked on rank 6 in communicator MPI COMMUNICATOR 3 DUP FROM 0
with errorcode -1.

NOTE: invoking MPI_ABORT causes Open MPI to kill all MPI processes.
You may or may not see output from other processes, depending on
exactly when Open MPI kills them.
--------------------------------------------------------------------------
--------------------------------------------------------------------------
MPI_ABORT was invoked on rank 5 in communicator MPI COMMUNICATOR 3 DUP FROM 0
with errorcode -1.

NOTE: invoking MPI_ABORT causes Open MPI to kill all MPI processes.
You may or may not see output from other processes, depending on
exactly when Open MPI kills them.
--------------------------------------------------------------------------
--------------------------------------------------------------------------
MPI_ABORT was invoked on rank 1 in communicator MPI COMMUNICATOR 3 DUP FROM 0
with errorcode -1.

NOTE: invoking MPI_ABORT causes Open MPI to kill all MPI processes.
You may or may not see output from other processes, depending on
exactly when Open MPI kills them.
--------------------------------------------------------------------------
--------------------------------------------------------------------------
MPI_ABORT was invoked on rank 4 in communicator MPI COMMUNICATOR 3 DUP FROM 0
with errorcode -1.

NOTE: invoking MPI_ABORT causes Open MPI to kill all MPI processes.
You may or may not see output from other processes, depending on
exactly when Open MPI kills them.
--------------------------------------------------------------------------
--------------------------------------------------------------------------
MPI_ABORT was invoked on rank 3 in communicator MPI COMMUNICATOR 3 DUP FROM 0
with errorcode -1.

NOTE: invoking MPI_ABORT causes Open MPI to kill all MPI processes.
You may or may not see output from other processes, depending on
exactly when Open MPI kills them.
--------------------------------------------------------------------------
slurmstepd: error: *** STEP 6619389.76 ON nova21-swift-3 CANCELLED AT 2025-07-10T09:26:34 ***
srun: Job step aborted: Waiting up to 32 seconds for job step to finish.
slurmstepd: error: --task-epilog failed status=9
srun: error: nova21-swift-3: tasks 0-1,3-7: Killed
srun: error: nova21-swift-3: task 2: Exited with exit code 255
