export TMOUT=5400
export TMPDIR=/tmp
export PTMPDIR=/tmp/ptmp
 argument  1 = inputs/ASP_ASN_2.nw



============================== echo of input deck ==============================
start ASP_ASN_2
geometry
H          7.12600        1.97400        0.39800
C          7.78400        2.62900       -0.17000
H          7.49400        2.63000       -1.21900
H          8.81500        2.29600       -0.07000
C          7.66900        4.03400        0.37300
O          8.65700        4.59600        0.82400
N          6.45800        4.57600        0.32800
H          5.68900        4.02000       -0.01300
C          6.09700        5.91300        0.81400
H          6.71000        6.15900        1.68300
C          6.38500        6.96100       -0.28600
H          7.45600        6.97300       -0.49800
H          5.86300        6.66600       -1.19800
C          5.94600        8.37800        0.11100
O          6.25700        8.79700        1.25200
O          5.14600        8.96900       -0.64100
C          4.61600        5.94400        1.25800
O          3.84100        5.03100        0.96800
N          4.23400        7.02200        1.93900
H          4.95900        7.72000        2.07700
C          2.87500        7.43800        2.27900
H          2.44600        6.72300        2.98100
C          2.97500        8.82700        2.94500
H          3.26200        9.56300        2.19200
H          1.99400        9.10600        3.32900
C          3.97300        8.91500        4.08800
O          3.63800        8.73100        5.24600
N          5.22400        9.21400        3.81700
H          5.86100        9.24300        4.58700
H          5.55600        9.30100        2.85000
C          1.93500        7.53500        1.05700
O          0.73500        7.31000        1.17800
N          2.43500        7.89500       -0.12200
H          1.81600        7.95000       -0.91000
H          3.41300        8.15500       -0.21200
end

basis
 * library aug-cc-pvdz
end

echo

scf
 direct
end

task scf energy
================================================================================


                                         
                                         


             Northwest Computational Chemistry Package (NWChem) 7.2.0
             --------------------------------------------------------


                    Environmental Molecular Sciences Laboratory
                       Pacific Northwest National Laboratory
                                Richland, WA 99352

                              Copyright (c) 1994-2022
                       Pacific Northwest National Laboratory
                            Battelle Memorial Institute

             NWChem is an open-source computational chemistry package
                        distributed under the terms of the
                      Educational Community License (ECL) 2.0
             A copy of the license is included with this distribution
                              in the LICENSE.TXT file

                                  ACKNOWLEDGMENT
                                  --------------

            This software and its documentation were developed at the
            EMSL at Pacific Northwest National Laboratory, a multiprogram
            national laboratory, operated for the U.S. Department of Energy
            by Battelle under Contract Number DE-AC05-76RL01830. Support
            for this work was provided by the Department of Energy Office
            of Biological and Environmental Research, Office of Basic
            Energy Sciences, and the Office of Advanced Scientific Computing.


           Job information
           ---------------

    hostname        = nova21-swift-4
    program         = /opt/rit/el9/20230413/app/linux-rhel9-x86_64_v3/gcc-11.2.1/nwchem-7.2.0-oxtctbuhfuzyfaoziquq6bki22grib3g/bin/nwchem
    date            = Thu Jul 10 14:03:18 2025

    compiled        = Wed_May_17_23:46:39_2023
    source          = /tmp/root/spack-stage/spack-stage-nwchem-7.2.0-oxtctbuhfuzyfaoziquq6bki22grib3g/spack-src
    nwchem branch   = 7.2.0
    nwchem revision = d0d141fd
    ga revision     = 5.8.0
    use scalapack   = T
    input           = inputs/ASP_ASN_2.nw
    prefix          = ASP_ASN_2.
    data base       = ./ASP_ASN_2.db
    status          = startup
    nproc           =        8
    time left       =     -1s



           Memory information
           ------------------

    heap     =   26214394 doubles =    200.0 Mbytes
    stack    =   26214399 doubles =    200.0 Mbytes
    global   =   52428800 doubles =    400.0 Mbytes (distinct from heap & stack)
    total    =  104857593 doubles =    800.0 Mbytes
    verify   = yes
    hardfail = no 


           Directory information
           ---------------------

  0 permanent = .
  0 scratch   = .




                                NWChem Input Module
                                -------------------



 Scaling coordinates for geometry "geometry" by  1.889725989
 (inverse scale =  0.529177249)

 C1  symmetry detected

          ------
          auto-z
          ------
  no constraints, skipping    0.0000000000000000     
  no constraints, skipping    0.0000000000000000     


                             Geometry "geometry" -> ""
                             -------------------------

 Output coordinates in angstroms (scale by  1.889725989 to convert to a.u.)

  No.       Tag          Charge          X              Y              Z
 ---- ---------------- ---------- -------------- -------------- --------------
    1 H                    1.0000    -0.92820408     5.00319579    -2.16137653
    2 C                    6.0000    -0.55662226     5.25644880    -1.17021415
    3 H                    1.0000    -1.39008096     5.45795593    -0.49995787
    4 H                    1.0000     0.09186782     6.12814682    -1.22897775
    5 C                    6.0000     0.23821319     4.09113976    -0.62948276
    6 O                    8.0000     1.41716968     4.23915570    -0.34044664
    7 N                    7.0000    -0.42102342     2.94513731    -0.50950151
    8 H                    1.0000    -1.37884607     2.90041124    -0.82151649
    9 C                    6.0000     0.14162057     1.67685147    -0.03099473
   10 H                    1.0000     1.18794509     1.60874173    -0.33432965
   11 C                    6.0000     0.08829026     1.63476174     1.51387819
   12 H                    1.0000     0.71123735     2.43625300     1.91596985
   13 H                    1.0000    -0.93965934     1.81182725     1.83515754
   14 C                    6.0000     0.57419250     0.29718604     2.09094774
   15 O                    8.0000     1.64146711    -0.18824189     1.64435215
   16 O                    8.0000    -0.20552850    -0.33088530     2.83414796
   17 C                    6.0000    -0.61038534     0.48128686    -0.66073306
   18 O                    8.0000    -1.68087486     0.63676699    -1.25079416
   19 N                    7.0000    -0.04590442    -0.71322026    -0.49861263
   20 H                    1.0000     0.81436663    -0.71011505     0.04156981
   21 C                    6.0000    -0.62545407    -2.02747718    -0.76766277
   22 H                    1.0000    -0.78021646    -2.13842000    -1.84088702
   23 C                    6.0000     0.38698106    -3.08337985    -0.27479192
   24 H                    1.0000     0.42030773    -3.06274421     0.81586729
   25 H                    1.0000     0.04379503    -4.07149197    -0.58059545
   26 C                    6.0000     1.80489548    -2.89498370    -0.78881779
   27 O                    8.0000     2.19733100    -3.44832985    -1.80215258
   28 N                    7.0000     2.62958829    -2.12846608    -0.11045543
   29 H                    1.0000     3.54838069    -2.00659191    -0.48525834
   30 H                    1.0000     2.31228728    -1.58908959     0.70273279
   31 C                    6.0000    -1.97841773    -2.26228139    -0.06009701
   32 O                    8.0000    -2.82908485    -2.98338426    -0.57160663
   33 N                    7.0000    -2.19994906    -1.69902112     1.12451379
   34 H                    1.0000    -3.08429176    -1.85443812     1.57274760
   35 H                    1.0000    -1.47158726    -1.16261623     1.58705339

      Atomic Mass 
      ----------- 

      H                  1.007825
      C                 12.000000
      O                 15.994910
      N                 14.003070


 Effective nuclear repulsion energy (a.u.)    1685.5145889098

            Nuclear Dipole moment (a.u.) 
            ----------------------------
        X                 Y               Z
 ---------------- ---------------- ----------------
    -0.0000000000     0.0000000000     0.0000000000



                                Z-matrix (autoz)
                                -------- 

 Units are Angstrom for bonds and degrees for angles

      Type          Name      I     J     K     L     M      Value
      ----------- --------  ----- ----- ----- ----- ----- ----------
    1 Stretch                  1     2                       1.08840
    2 Stretch                  2     3                       1.08835
    3 Stretch                  2     4                       1.08805
    4 Stretch                  2     5                       1.51066
    5 Stretch                  5     6                       1.22286
    6 Stretch                  5     7                       1.32752
    7 Stretch                  7     8                       1.00835
    8 Stretch                  7     9                       1.46768
    9 Stretch                  9    10                       1.09153
   10 Stretch                  9    11                       1.54637
   11 Stretch                  9    17                       1.54643
   12 Stretch                 11    12                       1.09185
   13 Stretch                 11    13                       1.09145
   14 Stretch                 11    14                       1.53565
   15 Stretch                 14    15                       1.25466
   16 Stretch                 14    16                       1.24691
   17 Stretch                 17    18                       1.23219
   18 Stretch                 17    19                       1.33108
   19 Stretch                 19    20                       1.01581
   20 Stretch                 19    21                       1.46135
   21 Stretch                 21    22                       1.08999
   22 Stretch                 21    23                       1.54366
   23 Stretch                 21    31                       1.54476
   24 Stretch                 23    24                       1.09136
   25 Stretch                 23    25                       1.08980
   26 Stretch                 23    26                       1.51993
   27 Stretch                 26    27                       1.21944
   28 Stretch                 26    28                       1.31447
   29 Stretch                 28    29                       0.99975
   30 Stretch                 28    30                       1.02610
   31 Stretch                 31    32                       1.22689
   32 Stretch                 31    33                       1.33028
   33 Stretch                 33    34                       1.00356
   34 Stretch                 33    35                       1.01596
   35 Bend                     1     2     3               110.02700
   36 Bend                     1     2     4               109.92032
   37 Bend                     1     2     5               109.03247
   38 Bend                     2     5     6               119.90043
   39 Bend                     2     5     7               115.91152
   40 Bend                     3     2     4               109.95938
   41 Bend                     3     2     5               108.98441
   42 Bend                     4     2     5               108.88952
   43 Bend                     5     7     8               118.81815
   44 Bend                     5     7     9               125.80862
   45 Bend                     6     5     7               124.18669
   46 Bend                     7     9    10               109.31711
   47 Bend                     7     9    11               109.63422
   48 Bend                     7     9    17               110.41961
   49 Bend                     8     7     9               115.25823
   50 Bend                     9    11    12               109.16290
   51 Bend                     9    11    13               108.79255
   52 Bend                     9    11    14               112.84345
   53 Bend                     9    17    18               121.32701
   54 Bend                     9    17    19               115.97430
   55 Bend                    10     9    11               107.99839
   56 Bend                    10     9    17               107.74233
   57 Bend                    11     9    17               111.65475
   58 Bend                    11    14    15               118.18993
   59 Bend                    11    14    16               117.70053
   60 Bend                    12    11    13               108.05083
   61 Bend                    12    11    14               108.69132
   62 Bend                    13    11    14               109.18969
   63 Bend                    15    14    16               123.31260
   64 Bend                    17    19    20               114.90837
   65 Bend                    17    19    21               128.05837
   66 Bend                    18    17    19               122.68269
   67 Bend                    19    21    22               109.21585
   68 Bend                    19    21    23               107.23457
   69 Bend                    19    21    31               113.56039
   70 Bend                    20    19    21               115.88176
   71 Bend                    21    23    24               109.03685
   72 Bend                    21    23    25               108.90927
   73 Bend                    21    23    26               114.77655
   74 Bend                    21    31    32               120.37365
   75 Bend                    21    31    33               119.29981
   76 Bend                    22    21    23               109.74769
   77 Bend                    22    21    31               108.12976
   78 Bend                    23    21    31               108.91805
   79 Bend                    23    26    27               121.66817
   80 Bend                    23    26    28               118.88364
   81 Bend                    24    23    25               107.88967
   82 Bend                    24    23    26               107.88701
   83 Bend                    25    23    26               108.13507
   84 Bend                    26    28    29               117.01347
   85 Bend                    26    28    30               121.43351
   86 Bend                    27    26    28               119.44249
   87 Bend                    29    28    30               121.14553
   88 Bend                    31    33    34               118.61429
   89 Bend                    31    33    35               120.63608
   90 Bend                    32    31    33               120.30874
   91 Bend                    34    33    35               120.67534
   92 Torsion                  1     2     5     6         120.01943
   93 Torsion                  1     2     5     7         -59.57486
   94 Torsion                  2     5     7     8           3.03900
   95 Torsion                  2     5     7     9         178.94345
   96 Torsion                  3     2     5     6        -119.86277
   97 Torsion                  3     2     5     7          60.54294
   98 Torsion                  4     2     5     6           0.08776
   99 Torsion                  4     2     5     7        -179.50653
  100 Torsion                  5     7     9    10         -33.14189
  101 Torsion                  5     7     9    11          85.06718
  102 Torsion                  5     7     9    17        -151.50551
  103 Torsion                  6     5     7     8        -176.53582
  104 Torsion                  6     5     7     9          -0.63138
  105 Torsion                  7     9    11    12         -62.85890
  106 Torsion                  7     9    11    13          54.83588
  107 Torsion                  7     9    11    14         176.17488
  108 Torsion                  7     9    17    18         -13.12959
  109 Torsion                  7     9    17    19         168.28756
  110 Torsion                  8     7     9    10         142.89065
  111 Torsion                  8     7     9    11         -98.90028
  112 Torsion                  8     7     9    17          24.52703
  113 Torsion                  9    11    14    15          46.62804
  114 Torsion                  9    11    14    16        -123.49331
  115 Torsion                  9    17    19    20           1.18307
  116 Torsion                  9    17    19    21         168.29457
  117 Torsion                 10     9    11    12          56.16631
  118 Torsion                 10     9    11    13         173.86109
  119 Torsion                 10     9    11    14         -64.79992
  120 Torsion                 10     9    17    18        -132.45165
  121 Torsion                 10     9    17    19          48.96550
  122 Torsion                 11     9    17    18         109.11810
  123 Torsion                 11     9    17    19         -69.46475
  124 Torsion                 12    11     9    17         174.44357
  125 Torsion                 12    11    14    15         -74.60625
  126 Torsion                 12    11    14    16         115.27239
  127 Torsion                 13    11     9    17         -67.86165
  128 Torsion                 13    11    14    15         167.74159
  129 Torsion                 13    11    14    16          -2.37976
  130 Torsion                 14    11     9    17          53.47735
  131 Torsion                 17    19    21    22          66.90142
  132 Torsion                 17    19    21    23        -174.23281
  133 Torsion                 17    19    21    31         -53.86153
  134 Torsion                 18    17    19    20        -177.37867
  135 Torsion                 18    17    19    21         -10.26717
  136 Torsion                 19    21    23    24          69.93579
  137 Torsion                 19    21    23    25        -172.56780
  138 Torsion                 19    21    23    26         -51.20306
  139 Torsion                 19    21    31    32         149.04751
  140 Torsion                 19    21    31    33         -32.48254
  141 Torsion                 20    19    21    22        -126.09327
  142 Torsion                 20    19    21    23          -7.22750
  143 Torsion                 20    19    21    31         113.14378
  144 Torsion                 21    23    26    27         -92.67904
  145 Torsion                 21    23    26    28          88.19452
  146 Torsion                 21    31    33    34         179.68071
  147 Torsion                 21    31    33    35          -3.43243
  148 Torsion                 22    21    23    24        -171.54218
  149 Torsion                 22    21    23    25         -54.04577
  150 Torsion                 22    21    23    26          67.31897
  151 Torsion                 22    21    31    32          27.67531
  152 Torsion                 22    21    31    33        -153.85474
  153 Torsion                 23    21    31    32         -91.53708
  154 Torsion                 23    21    31    33          86.93287
  155 Torsion                 23    26    28    29        -178.58125
  156 Torsion                 23    26    28    30          -5.82900
  157 Torsion                 24    23    21    31         -53.34363
  158 Torsion                 24    23    26    27         145.55449
  159 Torsion                 24    23    26    28         -33.57195
  160 Torsion                 25    23    21    31          64.15278
  161 Torsion                 25    23    26    27          29.10772
  162 Torsion                 25    23    26    28        -150.01873
  163 Torsion                 26    23    21    31        -174.48248
  164 Torsion                 27    26    28    29           2.27249
  165 Torsion                 27    26    28    30         175.02474
  166 Torsion                 32    31    33    34          -1.84833
  167 Torsion                 32    31    33    35         175.03853


            XYZ format geometry
            -------------------
    35
 geometry
 H                    -0.92820408     5.00319579    -2.16137653
 C                    -0.55662226     5.25644880    -1.17021415
 H                    -1.39008096     5.45795593    -0.49995787
 H                     0.09186782     6.12814682    -1.22897775
 C                     0.23821319     4.09113976    -0.62948276
 O                     1.41716968     4.23915570    -0.34044664
 N                    -0.42102342     2.94513731    -0.50950151
 H                    -1.37884607     2.90041124    -0.82151649
 C                     0.14162057     1.67685147    -0.03099473
 H                     1.18794509     1.60874173    -0.33432965
 C                     0.08829026     1.63476174     1.51387819
 H                     0.71123735     2.43625300     1.91596985
 H                    -0.93965934     1.81182725     1.83515754
 C                     0.57419250     0.29718604     2.09094774
 O                     1.64146711    -0.18824189     1.64435215
 O                    -0.20552850    -0.33088530     2.83414796
 C                    -0.61038534     0.48128686    -0.66073306
 O                    -1.68087486     0.63676699    -1.25079416
 N                    -0.04590442    -0.71322026    -0.49861263
 H                     0.81436663    -0.71011505     0.04156981
 C                    -0.62545407    -2.02747718    -0.76766277
 H                    -0.78021646    -2.13842000    -1.84088702
 C                     0.38698106    -3.08337985    -0.27479192
 H                     0.42030773    -3.06274421     0.81586729
 H                     0.04379503    -4.07149197    -0.58059545
 C                     1.80489548    -2.89498370    -0.78881779
 O                     2.19733100    -3.44832985    -1.80215258
 N                     2.62958829    -2.12846608    -0.11045543
 H                     3.54838069    -2.00659191    -0.48525834
 H                     2.31228728    -1.58908959     0.70273279
 C                    -1.97841773    -2.26228139    -0.06009701
 O                    -2.82908485    -2.98338426    -0.57160663
 N                    -2.19994906    -1.69902112     1.12451379
 H                    -3.08429176    -1.85443812     1.57274760
 H                    -1.47158726    -1.16261623     1.58705339

 ==============================================================================
                                internuclear distances
 ------------------------------------------------------------------------------
       center one      |      center two      | atomic units |  angstroms
 ------------------------------------------------------------------------------
    2 C                |   1 H                |     2.05678  |     1.08840
    3 H                |   2 C                |     2.05668  |     1.08835
    4 H                |   2 C                |     2.05611  |     1.08805
    5 C                |   2 C                |     2.85474  |     1.51066
    6 O                |   5 C                |     2.31087  |     1.22286
    7 N                |   5 C                |     2.50865  |     1.32752
    8 H                |   7 N                |     1.90551  |     1.00835
    9 C                |   7 N                |     2.77351  |     1.46768
   10 H                |   9 C                |     2.06270  |     1.09153
   11 C                |   9 C                |     2.92221  |     1.54637
   12 H                |  11 C                |     2.06329  |     1.09185
   13 H                |  11 C                |     2.06253  |     1.09145
   14 C                |  11 C                |     2.90196  |     1.53565
   15 O                |  14 C                |     2.37096  |     1.25466
   16 O                |  14 C                |     2.35632  |     1.24691
   17 C                |   9 C                |     2.92234  |     1.54643
   18 O                |  17 C                |     2.32850  |     1.23219
   19 N                |  17 C                |     2.51537  |     1.33108
   20 H                |  19 N                |     1.91961  |     1.01581
   21 C                |  19 N                |     2.76155  |     1.46135
   22 H                |  21 C                |     2.05978  |     1.08999
   23 C                |  21 C                |     2.91709  |     1.54366
   24 H                |  23 C                |     2.06238  |     1.09136
   25 H                |  23 C                |     2.05942  |     1.08980
   26 C                |  23 C                |     2.87226  |     1.51993
   27 O                |  26 C                |     2.30442  |     1.21944
   28 N                |  26 C                |     2.48400  |     1.31447
   29 H                |  28 N                |     1.88926  |     0.99975
   30 H                |  28 N                |     1.93905  |     1.02610
   31 C                |  21 C                |     2.91918  |     1.54476
   32 O                |  31 C                |     2.31849  |     1.22689
   33 N                |  31 C                |     2.51386  |     1.33028
   34 H                |  33 N                |     1.89645  |     1.00356
   35 H                |  33 N                |     1.91989  |     1.01596
 ------------------------------------------------------------------------------
                         number of included internuclear distances:         34
 ==============================================================================



 ==============================================================================
                                 internuclear angles
 ------------------------------------------------------------------------------
        center 1       |       center 2       |       center 3       |  degrees
 ------------------------------------------------------------------------------
    1 H                |   2 C                |   3 H                |   110.03
    1 H                |   2 C                |   4 H                |   109.92
    1 H                |   2 C                |   5 C                |   109.03
    3 H                |   2 C                |   4 H                |   109.96
    3 H                |   2 C                |   5 C                |   108.98
    4 H                |   2 C                |   5 C                |   108.89
    2 C                |   5 C                |   6 O                |   119.90
    2 C                |   5 C                |   7 N                |   115.91
    6 O                |   5 C                |   7 N                |   124.19
    5 C                |   7 N                |   8 H                |   118.82
    5 C                |   7 N                |   9 C                |   125.81
    8 H                |   7 N                |   9 C                |   115.26
    7 N                |   9 C                |  10 H                |   109.32
    7 N                |   9 C                |  11 C                |   109.63
    7 N                |   9 C                |  17 C                |   110.42
   10 H                |   9 C                |  11 C                |   108.00
   10 H                |   9 C                |  17 C                |   107.74
   11 C                |   9 C                |  17 C                |   111.65
    9 C                |  11 C                |  12 H                |   109.16
    9 C                |  11 C                |  13 H                |   108.79
    9 C                |  11 C                |  14 C                |   112.84
   12 H                |  11 C                |  13 H                |   108.05
   12 H                |  11 C                |  14 C                |   108.69
   13 H                |  11 C                |  14 C                |   109.19
   11 C                |  14 C                |  15 O                |   118.19
   11 C                |  14 C                |  16 O                |   117.70
   15 O                |  14 C                |  16 O                |   123.31
    9 C                |  17 C                |  18 O                |   121.33
    9 C                |  17 C                |  19 N                |   115.97
   18 O                |  17 C                |  19 N                |   122.68
   17 C                |  19 N                |  20 H                |   114.91
   17 C                |  19 N                |  21 C                |   128.06
   20 H                |  19 N                |  21 C                |   115.88
   19 N                |  21 C                |  22 H                |   109.22
   19 N                |  21 C                |  23 C                |   107.23
   19 N                |  21 C                |  31 C                |   113.56
   22 H                |  21 C                |  23 C                |   109.75
   22 H                |  21 C                |  31 C                |   108.13
   23 C                |  21 C                |  31 C                |   108.92
   21 C                |  23 C                |  24 H                |   109.04
   21 C                |  23 C                |  25 H                |   108.91
   21 C                |  23 C                |  26 C                |   114.78
   24 H                |  23 C                |  25 H                |   107.89
   24 H                |  23 C                |  26 C                |   107.89
   25 H                |  23 C                |  26 C                |   108.14
   23 C                |  26 C                |  27 O                |   121.67
   23 C                |  26 C                |  28 N                |   118.88
   27 O                |  26 C                |  28 N                |   119.44
   26 C                |  28 N                |  29 H                |   117.01
   26 C                |  28 N                |  30 H                |   121.43
   29 H                |  28 N                |  30 H                |   121.15
   21 C                |  31 C                |  32 O                |   120.37
   21 C                |  31 C                |  33 N                |   119.30
   32 O                |  31 C                |  33 N                |   120.31
   31 C                |  33 N                |  34 H                |   118.61
   31 C                |  33 N                |  35 H                |   120.64
   34 H                |  33 N                |  35 H                |   120.68
 ------------------------------------------------------------------------------
                            number of included internuclear angles:         57
 ==============================================================================



  library name resolved from: environment
  library file name is: </opt/rit/el9/20230413/app/linux-rhel9-x86_64_v3/gcc-11.2.1/nwchem-7.2.0-oxtctbuhfuzyfaoziquq6bki22grib3g/share/nwchem/libraries/>
  


 Summary of "ao basis" -> "" (cartesian)
 ------------------------------------------------------------------------------
       Tag                 Description            Shells   Functions and Types
 ---------------- ------------------------------  ------  ---------------------
 *                        aug-cc-pvdz                 on all atoms 


                      Basis "ao basis" -> "ao basis" (cartesian)
                      -----
  H (Hydrogen)
  ------------
            Exponent  Coefficients 
       -------------- ---------------------------------------------------------
  1 S  1.30100000E+01  0.019685
  1 S  1.96200000E+00  0.137977
  1 S  4.44600000E-01  0.478148

  2 S  1.22000000E-01  1.000000

  3 S  2.97400000E-02  1.000000

  4 P  7.27000000E-01  1.000000

  5 P  1.41000000E-01  1.000000

  C (Carbon)
  ----------
            Exponent  Coefficients 
       -------------- ---------------------------------------------------------
  1 S  6.66500000E+03  0.000692
  1 S  1.00000000E+03  0.005329
  1 S  2.28000000E+02  0.027077
  1 S  6.47100000E+01  0.101718
  1 S  2.10600000E+01  0.274740
  1 S  7.49500000E+00  0.448564
  1 S  2.79700000E+00  0.285074
  1 S  5.21500000E-01  0.015204

  2 S  6.66500000E+03 -0.000146
  2 S  1.00000000E+03 -0.001154
  2 S  2.28000000E+02 -0.005725
  2 S  6.47100000E+01 -0.023312
  2 S  2.10600000E+01 -0.063955
  2 S  7.49500000E+00 -0.149981
  2 S  2.79700000E+00 -0.127262
  2 S  5.21500000E-01  0.544529

  3 S  1.59600000E-01  1.000000

  4 S  4.69000000E-02  1.000000

  5 P  9.43900000E+00  0.038109
  5 P  2.00200000E+00  0.209480
  5 P  5.45600000E-01  0.508557

  6 P  1.51700000E-01  1.000000

  7 P  4.04100000E-02  1.000000

  8 D  5.50000000E-01  1.000000

  9 D  1.51000000E-01  1.000000

  O (Oxygen)
  ----------
            Exponent  Coefficients 
       -------------- ---------------------------------------------------------
  1 S  1.17200000E+04  0.000710
  1 S  1.75900000E+03  0.005470
  1 S  4.00800000E+02  0.027837
  1 S  1.13700000E+02  0.104800
  1 S  3.70300000E+01  0.283062
  1 S  1.32700000E+01  0.448719
  1 S  5.02500000E+00  0.270952
  1 S  1.01300000E+00  0.015458

  2 S  1.17200000E+04 -0.000160
  2 S  1.75900000E+03 -0.001263
  2 S  4.00800000E+02 -0.006267
  2 S  1.13700000E+02 -0.025716
  2 S  3.70300000E+01 -0.070924
  2 S  1.32700000E+01 -0.165411
  2 S  5.02500000E+00 -0.116955
  2 S  1.01300000E+00  0.557368

  3 S  3.02300000E-01  1.000000

  4 S  7.89600000E-02  1.000000

  5 P  1.77000000E+01  0.043018
  5 P  3.85400000E+00  0.228913
  5 P  1.04600000E+00  0.508728

  6 P  2.75300000E-01  1.000000

  7 P  6.85600000E-02  1.000000

  8 D  1.18500000E+00  1.000000

  9 D  3.32000000E-01  1.000000

  N (Nitrogen)
  ------------
            Exponent  Coefficients 
       -------------- ---------------------------------------------------------
  1 S  9.04600000E+03  0.000700
  1 S  1.35700000E+03  0.005389
  1 S  3.09300000E+02  0.027406
  1 S  8.77300000E+01  0.103207
  1 S  2.85600000E+01  0.278723
  1 S  1.02100000E+01  0.448540
  1 S  3.83800000E+00  0.278238
  1 S  7.46600000E-01  0.015440

  2 S  9.04600000E+03 -0.000153
  2 S  1.35700000E+03 -0.001208
  2 S  3.09300000E+02 -0.005992
  2 S  8.77300000E+01 -0.024544
  2 S  2.85600000E+01 -0.067459
  2 S  1.02100000E+01 -0.158078
  2 S  3.83800000E+00 -0.121831
  2 S  7.46600000E-01  0.549003

  3 S  2.24800000E-01  1.000000

  4 S  6.12400000E-02  1.000000

  5 P  1.35500000E+01  0.039919
  5 P  2.91700000E+00  0.217169
  5 P  7.97300000E-01  0.510319

  6 P  2.18500000E-01  1.000000

  7 P  5.61100000E-02  1.000000

  8 D  8.17000000E-01  1.000000

  9 D  2.30000000E-01  1.000000



 Summary of "ao basis" -> "ao basis" (cartesian)
 ------------------------------------------------------------------------------
       Tag                 Description            Shells   Functions and Types
 ---------------- ------------------------------  ------  ---------------------
 H                        aug-cc-pvdz                5        9   3s2p
 C                        aug-cc-pvdz                9       25   4s3p2d
 O                        aug-cc-pvdz                9       25   4s3p2d
 N                        aug-cc-pvdz                9       25   4s3p2d


 ------------------------------------------------------------------------
 scf: no. of closed-shell electrons is not even!                   0
 ------------------------------------------------------------------------
 ------------------------------------------------------------------------
  current input line : 
     0: 
 ------------------------------------------------------------------------
 scf: no. of closed-shell electrons is not even!                   0
 ------------------------------------------------------------------------
 ------------------------------------------------------------------------
  current input line : 
     0: 
 ------------------------------------------------------------------------
 ------------------------------------------------------------------------
 There is an error in the input file
 scf: no. of closed-shell electrons is not even!                   0
 ------------------------------------------------------------------------
 ------------------------------------------------------------------------
  current input line : 
     0: 
 ------------------------------------------------------------------------
 ------------------------------------------------------------------------
 There is an error in the input file
 ------------------------------------------------------------------------
 For more information see the NWChem manual at https://nwchemgit.github.io

 scf: no. of closed-shell electrons is not even!                   0
 ------------------------------------------------------------------------
 ------------------------------------------------------------------------
  current input line : 
     0: 
 ------------------------------------------------------------------------
 ------------------------------------------------------------------------
 There is an error in the input file
 ------------------------------------------------------------------------
 For more information see the NWChem manual at https://nwchemgit.github.io


 For further details see manual section:                                                                                                                                                                                                                                                                
 scf: no. of closed-shell electrons is not even!                   0
 ------------------------------------------------------------------------
 ------------------------------------------------------------------------
  current input line : 
     0: 
 ------------------------------------------------------------------------
 ------------------------------------------------------------------------
 There is an error in the input file
 ------------------------------------------------------------------------
 For more information see the NWChem manual at https://nwchemgit.github.io


 For further details see manual section:                                                                                                                                                                                                                                                                
 scf: no. of closed-shell electrons is not even!                   0
 ------------------------------------------------------------------------
 ------------------------------------------------------------------------
  current input line : 
     0: 
 ------------------------------------------------------------------------
 ------------------------------------------------------------------------
 There is an error in the input file
 ------------------------------------------------------------------------
 For more information see the NWChem manual at https://nwchemgit.github.io


 For further details see manual section:                                                                                                                                                                                                                                                                
 scf: no. of closed-shell electrons is not even!                   0
 ------------------------------------------------------------------------
 ------------------------------------------------------------------------
  current input line : 
     0: 
 ------------------------------------------------------------------------
 ------------------------------------------------------------------------
 There is an error in the input file
 ------------------------------------------------------------------------
 For more information see the NWChem manual at https://nwchemgit.github.io


 For further details see manual section:                                                                                                                                                                                                                                                                
 ------------------------------------------------------------------------
 There is an error in the input file
 ------------------------------------------------------------------------
 For more information see the NWChem manual at https://nwchemgit.github.io


 For further details see manual section:                                                                                                                                                                                                                                                                
1:scf: no. of closed-shell electrons is not even!:Received an Error in Communication
 ------------------------------------------------------------------------
 For more information see the NWChem manual at https://nwchemgit.github.io


 For further details see manual section:                                                                                                                                                                                                                                                                
2:scf: no. of closed-shell electrons is not even!:Received an Error in Communication

 For further details see manual section:                                                                                                                                                                                                                                                                
3:scf: no. of closed-shell electrons is not even!:Received an Error in Communication
4:scf: no. of closed-shell electrons is not even!:Received an Error in Communication
5:scf: no. of closed-shell electrons is not even!:Received an Error in Communication
6:scf: no. of closed-shell electrons is not even!:Received an Error in Communication
7:scf: no. of closed-shell electrons is not even!:Received an Error in Communication
 scf: no. of closed-shell electrons is not even!                   0
 ------------------------------------------------------------------------
 ------------------------------------------------------------------------
  current input line : 
    50: task scf energy
 ------------------------------------------------------------------------
 ------------------------------------------------------------------------
 There is an error in the input file
 ------------------------------------------------------------------------
 For more information see the NWChem manual at https://nwchemgit.github.io


 For further details see manual section:                                                                                                                                                                                                                                                                
0:scf: no. of closed-shell electrons is not even!:Received an Error in Communication
--------------------------------------------------------------------------
MPI_ABORT was invoked on rank 0 in communicator MPI COMMUNICATOR 3 DUP FROM 0
with errorcode -1.

NOTE: invoking MPI_ABORT causes Open MPI to kill all MPI processes.
You may or may not see output from other processes, depending on
exactly when Open MPI kills them.
--------------------------------------------------------------------------
--------------------------------------------------------------------------
MPI_ABORT was invoked on rank 3 in communicator MPI COMMUNICATOR 3 DUP FROM 0
with errorcode -1.

NOTE: invoking MPI_ABORT causes Open MPI to kill all MPI processes.
You may or may not see output from other processes, depending on
exactly when Open MPI kills them.
--------------------------------------------------------------------------
--------------------------------------------------------------------------
MPI_ABORT was invoked on rank 1 in communicator MPI COMMUNICATOR 3 DUP FROM 0
with errorcode -1.

NOTE: invoking MPI_ABORT causes Open MPI to kill all MPI processes.
You may or may not see output from other processes, depending on
exactly when Open MPI kills them.
--------------------------------------------------------------------------
--------------------------------------------------------------------------
MPI_ABORT was invoked on rank 5 in communicator MPI COMMUNICATOR 3 DUP FROM 0
with errorcode -1.

NOTE: invoking MPI_ABORT causes Open MPI to kill all MPI processes.
You may or may not see output from other processes, depending on
exactly when Open MPI kills them.
--------------------------------------------------------------------------
--------------------------------------------------------------------------
MPI_ABORT was invoked on rank 6 in communicator MPI COMMUNICATOR 3 DUP FROM 0
with errorcode -1.

NOTE: invoking MPI_ABORT causes Open MPI to kill all MPI processes.
You may or may not see output from other processes, depending on
exactly when Open MPI kills them.
--------------------------------------------------------------------------
--------------------------------------------------------------------------
MPI_ABORT was invoked on rank 7 in communicator MPI COMMUNICATOR 3 DUP FROM 0
with errorcode -1.

NOTE: invoking MPI_ABORT causes Open MPI to kill all MPI processes.
You may or may not see output from other processes, depending on
exactly when Open MPI kills them.
--------------------------------------------------------------------------
--------------------------------------------------------------------------
MPI_ABORT was invoked on rank 2 in communicator MPI COMMUNICATOR 3 DUP FROM 0
with errorcode -1.

NOTE: invoking MPI_ABORT causes Open MPI to kill all MPI processes.
You may or may not see output from other processes, depending on
exactly when Open MPI kills them.
--------------------------------------------------------------------------
--------------------------------------------------------------------------
MPI_ABORT was invoked on rank 4 in communicator MPI COMMUNICATOR 3 DUP FROM 0
with errorcode -1.

NOTE: invoking MPI_ABORT causes Open MPI to kill all MPI processes.
You may or may not see output from other processes, depending on
exactly when Open MPI kills them.
--------------------------------------------------------------------------
slurmstepd: error: *** STEP 6619389.89 ON nova21-swift-4 CANCELLED AT 2025-07-10T14:03:18 ***
srun: Job step aborted: Waiting up to 32 seconds for job step to finish.
slurmstepd: error: --task-epilog failed status=9
srun: error: nova21-swift-4: tasks 0-2,4-7: Killed
srun: error: nova21-swift-4: task 3: Exited with exit code 255
