export TMOUT=5400
export TMPDIR=/tmp
export PTMPDIR=/tmp/ptmp
 argument  1 = inputs/ASP_CYS_5.nw



============================== echo of input deck ==============================
start ASP_CYS_5
geometry
H         -3.49300        3.22200        4.67900
C         -2.86400        2.89800        5.50500
H         -1.88900        3.37700        5.44000
H         -2.74600        1.81700        5.48300
C         -3.51800        3.29400        6.80600
O         -4.59400        3.87700        6.79900
N         -2.86000        2.96500        7.91100
H         -1.95900        2.50500        7.82500
C         -3.23400        3.34500        9.27900
H         -4.32100        3.35700        9.37300
C         -2.65800        2.29500       10.25700
H         -2.98500        2.55400       11.26600
H         -3.08600        1.32100       10.01400
C         -1.11900        2.17000       10.24000
O         -0.55100        1.98900       11.33400
O         -0.50100        2.35900        9.16100
C         -2.70900        4.74600        9.65300
O         -3.44400        5.59700       10.15100
N         -1.41600        4.96700        9.41200
H         -0.90000        4.16300        9.06700
C         -0.64900        6.16700        9.72900
H         -1.24300        7.04200        9.46300
C         -0.37900        6.19500       11.24600
H          0.03400        7.17100       11.50100
H         -1.32100        6.07100       11.78400
S          0.80200        4.91500       11.78900
H          0.06700        3.80400       11.56300
C          0.66600        6.23100        8.92400
O          1.18300        7.31300        8.66200
N          1.21000        5.10000        8.47800
H          0.81400        4.20600        8.74300
H          2.07100        5.15300        7.96400
end

basis
 * library aug-cc-pvdz
end

echo

scf
 direct
end

task scf energy
================================================================================


                                         
                                         


             Northwest Computational Chemistry Package (NWChem) 7.2.0
             --------------------------------------------------------


                    Environmental Molecular Sciences Laboratory
                       Pacific Northwest National Laboratory
                                Richland, WA 99352

                              Copyright (c) 1994-2022
                       Pacific Northwest National Laboratory
                            Battelle Memorial Institute

             NWChem is an open-source computational chemistry package
                        distributed under the terms of the
                      Educational Community License (ECL) 2.0
             A copy of the license is included with this distribution
                              in the LICENSE.TXT file

                                  ACKNOWLEDGMENT
                                  --------------

            This software and its documentation were developed at the
            EMSL at Pacific Northwest National Laboratory, a multiprogram
            national laboratory, operated for the U.S. Department of Energy
            by Battelle under Contract Number DE-AC05-76RL01830. Support
            for this work was provided by the Department of Energy Office
            of Biological and Environmental Research, Office of Basic
            Energy Sciences, and the Office of Advanced Scientific Computing.


           Job information
           ---------------

    hostname        = nova21-speedy-12
    program         = /opt/rit/el9/20230413/app/linux-rhel9-x86_64_v3/gcc-11.2.1/nwchem-7.2.0-oxtctbuhfuzyfaoziquq6bki22grib3g/bin/nwchem
    date            = Fri Jul 11 03:00:04 2025

    compiled        = Wed_May_17_23:46:39_2023
    source          = /tmp/root/spack-stage/spack-stage-nwchem-7.2.0-oxtctbuhfuzyfaoziquq6bki22grib3g/spack-src
    nwchem branch   = 7.2.0
    nwchem revision = d0d141fd
    ga revision     = 5.8.0
    use scalapack   = T
    input           = inputs/ASP_CYS_5.nw
    prefix          = ASP_CYS_5.
    data base       = ./ASP_CYS_5.db
    status          = startup
    nproc           =        8
    time left       =     -1s



           Memory information
           ------------------

    heap     =   26214396 doubles =    200.0 Mbytes
    stack    =   26214401 doubles =    200.0 Mbytes
    global   =   52428800 doubles =    400.0 Mbytes (distinct from heap & stack)
    total    =  104857597 doubles =    800.0 Mbytes
    verify   = yes
    hardfail = no 


           Directory information
           ---------------------

  0 permanent = .
  0 scratch   = .




                                NWChem Input Module
                                -------------------



 Scaling coordinates for geometry "geometry" by  1.889725989
 (inverse scale =  0.529177249)

 C1  symmetry detected

          ------
          auto-z
          ------
  no constraints, skipping    0.0000000000000000     
  no constraints, skipping    0.0000000000000000     


                             Geometry "geometry" -> ""
                             -------------------------

 Output coordinates in angstroms (scale by  1.889725989 to convert to a.u.)

  No.       Tag          Charge          X              Y              Z
 ---- ---------------- ---------- -------------- -------------- --------------
    1 H                    1.0000     2.14216037    -4.58338448     1.33949731
    2 C                    6.0000     1.40413709    -3.80927901     1.53691911
    3 H                    1.0000     1.88387187    -2.94614013     1.99423389
    4 H                    1.0000     0.62827779    -4.19220363     2.19599428
    5 C                    6.0000     0.77494040    -3.38540884     0.23247340
    6 O                    8.0000     1.12110722    -3.91385096    -0.81568281
    7 N                    7.0000    -0.15041188    -2.43714618     0.31463846
    8 H                    1.0000    -0.35815184    -2.03398727     1.22299081
    9 C                    6.0000    -0.81266913    -1.78229968    -0.82039079
   10 H                    1.0000    -0.95757190    -2.50270969    -1.62696478
   11 C                    6.0000    -2.19406137    -1.26704600    -0.35452695
   12 H                    1.0000    -2.70256622    -0.82960803    -1.21601510
   13 H                    1.0000    -2.78907503    -2.11882207    -0.02084257
   14 C                    6.0000    -2.14629553    -0.22783998     0.78661471
   15 O                    8.0000    -2.96226943     0.71219582     0.73426697
   16 O                    8.0000    -1.23500177    -0.30744670     1.64980208
   17 C                    6.0000     0.01928360    -0.60832561    -1.37531562
   18 O                    8.0000     0.25569853    -0.49844166    -2.57717397
   19 N                    7.0000     0.45200503     0.27565589    -0.47526014
   20 H                    1.0000     0.13000503     0.11412244     0.47443452
   21 C                    6.0000     1.19342234     1.50641272    -0.72886610
   22 H                    1.0000     1.96891542     1.30145961    -1.46766358
   23 C                    6.0000     0.22513886     2.55696238    -1.30657322
   24 H                    1.0000     0.81237379     3.40553507    -1.65764236
   25 H                    1.0000    -0.30440293     2.13053600    -2.16093265
   26 S                   16.0000    -0.98576081     3.16586144    -0.08551879
   27 H                    1.0000    -1.71928201     2.04619477     0.09864204
   28 C                    6.0000     1.88785366     2.02567616     0.54764344
   29 O                    8.0000     2.90706479     2.70513034     0.46885449
   30 N                    7.0000     1.39342919     1.69021624     1.73803165
   31 H                    1.0000     0.52156204     1.17817000     1.80074779
   32 H                    1.0000     1.84760587     2.04216518     2.56154940

      Atomic Mass 
      ----------- 

      H                  1.007825
      C                 12.000000
      O                 15.994910
      N                 14.003070
      S                 31.972070


 Effective nuclear repulsion energy (a.u.)    1588.1383509796

            Nuclear Dipole moment (a.u.) 
            ----------------------------
        X                 Y               Z
 ---------------- ---------------- ----------------
    -0.0000000000     0.0000000000    -0.0000000000



                                Z-matrix (autoz)
                                -------- 

 Units are Angstrom for bonds and degrees for angles

      Type          Name      I     J     K     L     M      Value
      ----------- --------  ----- ----- ----- ----- ----- ----------
    1 Stretch                  1     2                       1.08761
    2 Stretch                  2     3                       1.08825
    3 Stretch                  2     4                       1.08764
    4 Stretch                  2     5                       1.50902
    5 Stretch                  5     6                       1.22381
    6 Stretch                  5     7                       1.32749
    7 Stretch                  7     8                       1.01528
    8 Stretch                  7     9                       1.46823
    9 Stretch                  9    10                       1.09112
   10 Stretch                  9    11                       1.54621
   11 Stretch                  9    17                       1.54217
   12 Stretch                 11    12                       1.09183
   13 Stretch                 11    13                       1.09129
   14 Stretch                 11    14                       1.54416
   15 Stretch                 14    15                       1.24588
   16 Stretch                 14    16                       1.25773
   17 Stretch                 17    18                       1.22981
   18 Stretch                 17    19                       1.33371
   19 Stretch                 19    20                       1.01572
   20 Stretch                 19    21                       1.45903
   21 Stretch                 21    22                       1.09051
   22 Stretch                 21    23                       1.54109
   23 Stretch                 21    28                       1.54316
   24 Stretch                 23    24                       1.09003
   25 Stretch                 23    25                       1.09187
   26 Stretch                 23    26                       1.82428
   27 Stretch                 26    27                       1.35116
   28 Stretch                 28    29                       1.22746
   29 Stretch                 28    30                       1.33192
   30 Stretch                 30    31                       1.01305
   31 Stretch                 30    32                       1.00415
   32 Bend                     1     2     3               109.97820
   33 Bend                     1     2     4               110.08805
   34 Bend                     1     2     5               109.02315
   35 Bend                     2     5     6               120.07486
   36 Bend                     2     5     7               115.96314
   37 Bend                     3     2     4               109.81948
   38 Bend                     3     2     5               108.92202
   39 Bend                     4     2     5               108.98242
   40 Bend                     5     7     8               118.79378
   41 Bend                     5     7     9               125.81485
   42 Bend                     6     5     7               123.96116
   43 Bend                     7     9    10               109.68696
   44 Bend                     7     9    11               108.58354
   45 Bend                     7     9    17               111.98506
   46 Bend                     8     7     9               114.97620
   47 Bend                     9    11    12               108.17205
   48 Bend                     9    11    13               108.61144
   49 Bend                     9    11    14               114.78959
   50 Bend                     9    17    18               121.55911
   51 Bend                     9    17    19               115.89675
   52 Bend                    10     9    11               108.91069
   53 Bend                    10     9    17               107.95431
   54 Bend                    11     9    17               109.67618
   55 Bend                    11    14    15               117.15964
   56 Bend                    11    14    16               119.14353
   57 Bend                    12    11    13               107.45997
   58 Bend                    12    11    14               109.13973
   59 Bend                    13    11    14               108.43236
   60 Bend                    15    14    16               123.44455
   61 Bend                    17    19    20               115.00641
   62 Bend                    17    19    21               127.34919
   63 Bend                    18    17    19               122.54232
   64 Bend                    19    21    22               108.69828
   65 Bend                    19    21    23               108.71824
   66 Bend                    19    21    28               111.63775
   67 Bend                    20    19    21               117.24281
   68 Bend                    21    23    24               108.23589
   69 Bend                    21    23    25               109.37884
   70 Bend                    21    23    26               113.18304
   71 Bend                    21    28    29               120.45262
   72 Bend                    21    28    30               119.17684
   73 Bend                    22    21    23               108.72107
   74 Bend                    22    21    28               107.67649
   75 Bend                    23    21    28               111.31227
   76 Bend                    23    26    27               100.07797
   77 Bend                    24    23    25               108.25812
   78 Bend                    24    23    26               108.25993
   79 Bend                    25    23    26               109.40066
   80 Bend                    28    30    31               120.13967
   81 Bend                    28    30    32               118.47597
   82 Bend                    29    28    30               120.33250
   83 Bend                    31    30    32               121.04071
   84 Torsion                  1     2     5     6           0.46131
   85 Torsion                  1     2     5     7        -179.85948
   86 Torsion                  2     5     7     8           2.06003
   87 Torsion                  2     5     7     9         174.27058
   88 Torsion                  3     2     5     6         120.47703
   89 Torsion                  3     2     5     7         -59.84376
   90 Torsion                  4     2     5     6        -119.72391
   91 Torsion                  4     2     5     7          59.95530
   92 Torsion                  5     7     9    10          35.45358
   93 Torsion                  5     7     9    11         154.36427
   94 Torsion                  5     7     9    17         -84.38252
   95 Torsion                  6     5     7     8        -178.27466
   96 Torsion                  6     5     7     9          -6.06411
   97 Torsion                  7     9    11    12        -176.99487
   98 Torsion                  7     9    11    13         -60.65121
   99 Torsion                  7     9    11    14          60.88425
  100 Torsion                  7     9    17    18         130.45648
  101 Torsion                  7     9    17    19         -50.02298
  102 Torsion                  8     7     9    10        -152.07549
  103 Torsion                  8     7     9    11         -33.16479
  104 Torsion                  8     7     9    17          88.08842
  105 Torsion                  9    11    14    15         141.54009
  106 Torsion                  9    11    14    16         -32.89032
  107 Torsion                  9    17    19    20          -4.12320
  108 Torsion                  9    17    19    21        -176.58860
  109 Torsion                 10     9    11    12         -57.59688
  110 Torsion                 10     9    11    13          58.74678
  111 Torsion                 10     9    11    14        -179.71776
  112 Torsion                 10     9    17    18           9.61139
  113 Torsion                 10     9    17    19        -170.86808
  114 Torsion                 11     9    17    18        -108.92266
  115 Torsion                 11     9    17    19          70.59788
  116 Torsion                 12    11     9    17          60.34361
  117 Torsion                 12    11    14    15          19.94496
  118 Torsion                 12    11    14    16        -154.48544
  119 Torsion                 13    11     9    17         176.68728
  120 Torsion                 13    11    14    15         -96.82687
  121 Torsion                 13    11    14    16          88.74273
  122 Torsion                 14    11     9    17         -61.77726
  123 Torsion                 17    19    21    22         -43.57442
  124 Torsion                 17    19    21    23          74.61883
  125 Torsion                 17    19    21    28        -162.20247
  126 Torsion                 18    17    19    20         175.39216
  127 Torsion                 18    17    19    21           2.92676
  128 Torsion                 19    21    23    24        -170.04708
  129 Torsion                 19    21    23    25         -52.30017
  130 Torsion                 19    21    23    26          69.95462
  131 Torsion                 19    21    28    29         152.87237
  132 Torsion                 19    21    28    30         -24.89197
  133 Torsion                 20    19    21    22         144.10670
  134 Torsion                 20    19    21    23         -97.70005
  135 Torsion                 20    19    21    28          25.47865
  136 Torsion                 21    23    26    27         -67.67621
  137 Torsion                 21    28    30    31          -5.99955
  138 Torsion                 21    28    30    32        -179.33971
  139 Torsion                 22    21    23    24         -51.86823
  140 Torsion                 22    21    23    25          65.87868
  141 Torsion                 22    21    23    26        -171.86653
  142 Torsion                 22    21    28    29          33.63700
  143 Torsion                 22    21    28    30        -144.12734
  144 Torsion                 23    21    28    29         -85.43605
  145 Torsion                 23    21    28    30          96.79960
  146 Torsion                 24    23    21    28          66.57911
  147 Torsion                 24    23    26    27         172.33922
  148 Torsion                 25    23    21    28        -175.67397
  149 Torsion                 25    23    26    27          54.56639
  150 Torsion                 26    23    21    28         -53.41919
  151 Torsion                 29    28    30    31         176.23336
  152 Torsion                 29    28    30    32           2.89320


            XYZ format geometry
            -------------------
    32
 geometry
 H                     2.14216037    -4.58338448     1.33949731
 C                     1.40413709    -3.80927901     1.53691911
 H                     1.88387187    -2.94614013     1.99423389
 H                     0.62827779    -4.19220363     2.19599428
 C                     0.77494040    -3.38540884     0.23247340
 O                     1.12110722    -3.91385096    -0.81568281
 N                    -0.15041188    -2.43714618     0.31463846
 H                    -0.35815184    -2.03398727     1.22299081
 C                    -0.81266913    -1.78229968    -0.82039079
 H                    -0.95757190    -2.50270969    -1.62696478
 C                    -2.19406137    -1.26704600    -0.35452695
 H                    -2.70256622    -0.82960803    -1.21601510
 H                    -2.78907503    -2.11882207    -0.02084257
 C                    -2.14629553    -0.22783998     0.78661471
 O                    -2.96226943     0.71219582     0.73426697
 O                    -1.23500177    -0.30744670     1.64980208
 C                     0.01928360    -0.60832561    -1.37531562
 O                     0.25569853    -0.49844166    -2.57717397
 N                     0.45200503     0.27565589    -0.47526014
 H                     0.13000503     0.11412244     0.47443452
 C                     1.19342234     1.50641272    -0.72886610
 H                     1.96891542     1.30145961    -1.46766358
 C                     0.22513886     2.55696238    -1.30657322
 H                     0.81237379     3.40553507    -1.65764236
 H                    -0.30440293     2.13053600    -2.16093265
 S                    -0.98576081     3.16586144    -0.08551879
 H                    -1.71928201     2.04619477     0.09864204
 C                     1.88785366     2.02567616     0.54764344
 O                     2.90706479     2.70513034     0.46885449
 N                     1.39342919     1.69021624     1.73803165
 H                     0.52156204     1.17817000     1.80074779
 H                     1.84760587     2.04216518     2.56154940

 ==============================================================================
                                internuclear distances
 ------------------------------------------------------------------------------
       center one      |      center two      | atomic units |  angstroms
 ------------------------------------------------------------------------------
    2 C                |   1 H                |     2.05528  |     1.08761
    3 H                |   2 C                |     2.05650  |     1.08825
    4 H                |   2 C                |     2.05535  |     1.08764
    5 C                |   2 C                |     2.85163  |     1.50902
    6 O                |   5 C                |     2.31267  |     1.22381
    7 N                |   5 C                |     2.50859  |     1.32749
    8 H                |   7 N                |     1.91860  |     1.01528
    9 C                |   7 N                |     2.77455  |     1.46823
   10 H                |   9 C                |     2.06192  |     1.09112
   11 C                |   9 C                |     2.92191  |     1.54621
   12 H                |  11 C                |     2.06326  |     1.09183
   13 H                |  11 C                |     2.06223  |     1.09129
   14 C                |  11 C                |     2.91804  |     1.54416
   15 O                |  14 C                |     2.35437  |     1.24588
   16 O                |  14 C                |     2.37677  |     1.25773
   17 C                |   9 C                |     2.91429  |     1.54217
   18 O                |  17 C                |     2.32400  |     1.22981
   19 N                |  17 C                |     2.52034  |     1.33371
   20 H                |  19 N                |     1.91944  |     1.01572
   21 C                |  19 N                |     2.75717  |     1.45903
   22 H                |  21 C                |     2.06077  |     1.09051
   23 C                |  21 C                |     2.91225  |     1.54109
   24 H                |  23 C                |     2.05986  |     1.09003
   25 H                |  23 C                |     2.06334  |     1.09187
   26 S                |  23 C                |     3.44740  |     1.82428
   27 H                |  26 S                |     2.55331  |     1.35116
   28 C                |  21 C                |     2.91615  |     1.54316
   29 O                |  28 C                |     2.31956  |     1.22746
   30 N                |  28 C                |     2.51697  |     1.33192
   31 H                |  30 N                |     1.91439  |     1.01305
   32 H                |  30 N                |     1.89758  |     1.00415
 ------------------------------------------------------------------------------
                         number of included internuclear distances:         31
 ==============================================================================



 ==============================================================================
                                 internuclear angles
 ------------------------------------------------------------------------------
        center 1       |       center 2       |       center 3       |  degrees
 ------------------------------------------------------------------------------
    1 H                |   2 C                |   3 H                |   109.98
    1 H                |   2 C                |   4 H                |   110.09
    1 H                |   2 C                |   5 C                |   109.02
    3 H                |   2 C                |   4 H                |   109.82
    3 H                |   2 C                |   5 C                |   108.92
    4 H                |   2 C                |   5 C                |   108.98
    2 C                |   5 C                |   6 O                |   120.07
    2 C                |   5 C                |   7 N                |   115.96
    6 O                |   5 C                |   7 N                |   123.96
    5 C                |   7 N                |   8 H                |   118.79
    5 C                |   7 N                |   9 C                |   125.81
    8 H                |   7 N                |   9 C                |   114.98
    7 N                |   9 C                |  10 H                |   109.69
    7 N                |   9 C                |  11 C                |   108.58
    7 N                |   9 C                |  17 C                |   111.99
   10 H                |   9 C                |  11 C                |   108.91
   10 H                |   9 C                |  17 C                |   107.95
   11 C                |   9 C                |  17 C                |   109.68
    9 C                |  11 C                |  12 H                |   108.17
    9 C                |  11 C                |  13 H                |   108.61
    9 C                |  11 C                |  14 C                |   114.79
   12 H                |  11 C                |  13 H                |   107.46
   12 H                |  11 C                |  14 C                |   109.14
   13 H                |  11 C                |  14 C                |   108.43
   11 C                |  14 C                |  15 O                |   117.16
   11 C                |  14 C                |  16 O                |   119.14
   15 O                |  14 C                |  16 O                |   123.44
    9 C                |  17 C                |  18 O                |   121.56
    9 C                |  17 C                |  19 N                |   115.90
   18 O                |  17 C                |  19 N                |   122.54
   17 C                |  19 N                |  20 H                |   115.01
   17 C                |  19 N                |  21 C                |   127.35
   20 H                |  19 N                |  21 C                |   117.24
   19 N                |  21 C                |  22 H                |   108.70
   19 N                |  21 C                |  23 C                |   108.72
   19 N                |  21 C                |  28 C                |   111.64
   22 H                |  21 C                |  23 C                |   108.72
   22 H                |  21 C                |  28 C                |   107.68
   23 C                |  21 C                |  28 C                |   111.31
   21 C                |  23 C                |  24 H                |   108.24
   21 C                |  23 C                |  25 H                |   109.38
   21 C                |  23 C                |  26 S                |   113.18
   24 H                |  23 C                |  25 H                |   108.26
   24 H                |  23 C                |  26 S                |   108.26
   25 H                |  23 C                |  26 S                |   109.40
   23 C                |  26 S                |  27 H                |   100.08
   21 C                |  28 C                |  29 O                |   120.45
   21 C                |  28 C                |  30 N                |   119.18
   29 O                |  28 C                |  30 N                |   120.33
   28 C                |  30 N                |  31 H                |   120.14
   28 C                |  30 N                |  32 H                |   118.48
   31 H                |  30 N                |  32 H                |   121.04
 ------------------------------------------------------------------------------
                            number of included internuclear angles:         52
 ==============================================================================



  library name resolved from: environment
  library file name is: </opt/rit/el9/20230413/app/linux-rhel9-x86_64_v3/gcc-11.2.1/nwchem-7.2.0-oxtctbuhfuzyfaoziquq6bki22grib3g/share/nwchem/libraries/>
  


 Summary of "ao basis" -> "" (cartesian)
 ------------------------------------------------------------------------------
       Tag                 Description            Shells   Functions and Types
 ---------------- ------------------------------  ------  ---------------------
 *                        aug-cc-pvdz                 on all atoms 


                      Basis "ao basis" -> "ao basis" (cartesian)
                      -----
  H (Hydrogen)
  ------------
            Exponent  Coefficients 
       -------------- ---------------------------------------------------------
  1 S  1.30100000E+01  0.019685
  1 S  1.96200000E+00  0.137977
  1 S  4.44600000E-01  0.478148

  2 S  1.22000000E-01  1.000000

  3 S  2.97400000E-02  1.000000

  4 P  7.27000000E-01  1.000000

  5 P  1.41000000E-01  1.000000

  C (Carbon)
  ----------
            Exponent  Coefficients 
       -------------- ---------------------------------------------------------
  1 S  6.66500000E+03  0.000692
  1 S  1.00000000E+03  0.005329
  1 S  2.28000000E+02  0.027077
  1 S  6.47100000E+01  0.101718
  1 S  2.10600000E+01  0.274740
  1 S  7.49500000E+00  0.448564
  1 S  2.79700000E+00  0.285074
  1 S  5.21500000E-01  0.015204

  2 S  6.66500000E+03 -0.000146
  2 S  1.00000000E+03 -0.001154
  2 S  2.28000000E+02 -0.005725
  2 S  6.47100000E+01 -0.023312
  2 S  2.10600000E+01 -0.063955
  2 S  7.49500000E+00 -0.149981
  2 S  2.79700000E+00 -0.127262
  2 S  5.21500000E-01  0.544529

  3 S  1.59600000E-01  1.000000

  4 S  4.69000000E-02  1.000000

  5 P  9.43900000E+00  0.038109
  5 P  2.00200000E+00  0.209480
  5 P  5.45600000E-01  0.508557

  6 P  1.51700000E-01  1.000000

  7 P  4.04100000E-02  1.000000

  8 D  5.50000000E-01  1.000000

  9 D  1.51000000E-01  1.000000

  O (Oxygen)
  ----------
            Exponent  Coefficients 
       -------------- ---------------------------------------------------------
  1 S  1.17200000E+04  0.000710
  1 S  1.75900000E+03  0.005470
  1 S  4.00800000E+02  0.027837
  1 S  1.13700000E+02  0.104800
  1 S  3.70300000E+01  0.283062
  1 S  1.32700000E+01  0.448719
  1 S  5.02500000E+00  0.270952
  1 S  1.01300000E+00  0.015458

  2 S  1.17200000E+04 -0.000160
  2 S  1.75900000E+03 -0.001263
  2 S  4.00800000E+02 -0.006267
  2 S  1.13700000E+02 -0.025716
  2 S  3.70300000E+01 -0.070924
  2 S  1.32700000E+01 -0.165411
  2 S  5.02500000E+00 -0.116955
  2 S  1.01300000E+00  0.557368

  3 S  3.02300000E-01  1.000000

  4 S  7.89600000E-02  1.000000

  5 P  1.77000000E+01  0.043018
  5 P  3.85400000E+00  0.228913
  5 P  1.04600000E+00  0.508728

  6 P  2.75300000E-01  1.000000

  7 P  6.85600000E-02  1.000000

  8 D  1.18500000E+00  1.000000

  9 D  3.32000000E-01  1.000000

  N (Nitrogen)
  ------------
            Exponent  Coefficients 
       -------------- ---------------------------------------------------------
  1 S  9.04600000E+03  0.000700
  1 S  1.35700000E+03  0.005389
  1 S  3.09300000E+02  0.027406
  1 S  8.77300000E+01  0.103207
  1 S  2.85600000E+01  0.278723
  1 S  1.02100000E+01  0.448540
  1 S  3.83800000E+00  0.278238
  1 S  7.46600000E-01  0.015440

  2 S  9.04600000E+03 -0.000153
  2 S  1.35700000E+03 -0.001208
  2 S  3.09300000E+02 -0.005992
  2 S  8.77300000E+01 -0.024544
  2 S  2.85600000E+01 -0.067459
  2 S  1.02100000E+01 -0.158078
  2 S  3.83800000E+00 -0.121831
  2 S  7.46600000E-01  0.549003

  3 S  2.24800000E-01  1.000000

  4 S  6.12400000E-02  1.000000

  5 P  1.35500000E+01  0.039919
  5 P  2.91700000E+00  0.217169
  5 P  7.97300000E-01  0.510319

  6 P  2.18500000E-01  1.000000

  7 P  5.61100000E-02  1.000000

  8 D  8.17000000E-01  1.000000

  9 D  2.30000000E-01  1.000000

  S (Sulphur)
  -----------
            Exponent  Coefficients 
       -------------- ---------------------------------------------------------
  1 S  1.10800000E+05  0.000248
  1 S  1.66100000E+04  0.001920
  1 S  3.78100000E+03  0.009962
  1 S  1.07100000E+03  0.040298
  1 S  3.49800000E+02  0.128604
  1 S  1.26300000E+02  0.303480
  1 S  4.92600000E+01  0.421432
  1 S  2.01600000E+01  0.230781
  1 S  5.72000000E+00  0.017897
  1 S  2.18200000E+00 -0.002975
  1 S  4.32700000E-01  0.000850

  2 S  1.10800000E+05 -0.000069
  2 S  1.66100000E+04 -0.000528
  2 S  3.78100000E+03 -0.002797
  2 S  1.07100000E+03 -0.011265
  2 S  3.49800000E+02 -0.038883
  2 S  1.26300000E+02 -0.099503
  2 S  4.92600000E+01 -0.199740
  2 S  2.01600000E+01 -0.123360
  2 S  5.72000000E+00  0.513194
  2 S  2.18200000E+00  0.607120
  2 S  4.32700000E-01  0.039675

  3 S  1.10800000E+05  0.000020
  3 S  1.66100000E+04  0.000153
  3 S  3.78100000E+03  0.000810
  3 S  1.07100000E+03  0.003290
  3 S  3.49800000E+02  0.011297
  3 S  1.26300000E+02  0.029639
  3 S  4.92600000E+01  0.059985
  3 S  2.01600000E+01  0.041325
  3 S  5.72000000E+00 -0.207474
  3 S  2.18200000E+00 -0.392889
  3 S  4.32700000E-01  0.632840

  4 S  1.57000000E-01  1.000000

  5 S  5.07000000E-02  1.000000

  6 P  3.99700000E+02  0.004475
  6 P  9.41900000E+01  0.034171
  6 P  2.97500000E+01  0.144250
  6 P  1.07700000E+01  0.353928
  6 P  4.11900000E+00  0.459085
  6 P  1.62500000E+00  0.206383
  6 P  4.72600000E-01  0.010214

  7 P  3.99700000E+02 -0.001163
  7 P  9.41900000E+01 -0.008657
  7 P  2.97500000E+01 -0.039089
  7 P  1.07700000E+01 -0.093463
  7 P  4.11900000E+00 -0.147994
  7 P  1.62500000E+00  0.030190
  7 P  4.72600000E-01  0.561573

  8 P  1.40700000E-01  1.000000

  9 P  3.99000000E-02  1.000000

 10 D  4.79000000E-01  1.000000

 11 D  1.52000000E-01  1.000000



 Summary of "ao basis" -> "ao basis" (cartesian)
 ------------------------------------------------------------------------------
       Tag                 Description            Shells   Functions and Types
 ---------------- ------------------------------  ------  ---------------------
 H                        aug-cc-pvdz                5        9   3s2p
 C                        aug-cc-pvdz                9       25   4s3p2d
 O                        aug-cc-pvdz                9       25   4s3p2d
 N                        aug-cc-pvdz                9       25   4s3p2d
 S                        aug-cc-pvdz               11       29   5s4p2d


 ------------------------------------------------------------------------
 scf: no. of closed-shell electrons is not even!                   0
 ------------------------------------------------------------------------
 ------------------------------------------------------------------------
  current input line : 
    47: task scf energy
 ------------------------------------------------------------------------
 ------------------------------------------------------------------------
 There is an error in the input file
 scf: no. of closed-shell electrons is not even!                   0
 scf: no. of closed-shell electrons is not even!                   0
 ------------------------------------------------------------------------
 ------------------------------------------------------------------------
  current input line : 
     0: 
 ------------------------------------------------------------------------
 ------------------------------------------------------------------------
 There is an error in the input file
 ------------------------------------------------------------------------
 For more information see the NWChem manual at https://nwchemgit.github.io


 For further details see manual section:                                                                                                                                                                                                                                                                
 scf: no. of closed-shell electrons is not even!                   0
 ------------------------------------------------------------------------
 ------------------------------------------------------------------------
  current input line : 
     0: 
 ------------------------------------------------------------------------
 ------------------------------------------------------------------------
 There is an error in the input file
 ------------------------------------------------------------------------
 For more information see the NWChem manual at https://nwchemgit.github.io


 For further details see manual section:                                                                                                                                                                                                                                                                
 scf: no. of closed-shell electrons is not even!                   0
 ------------------------------------------------------------------------
 ------------------------------------------------------------------------
  current input line : 
     0: 
 ------------------------------------------------------------------------
 ------------------------------------------------------------------------
 There is an error in the input file
 ------------------------------------------------------------------------
 For more information see the NWChem manual at https://nwchemgit.github.io


 For further details see manual section:                                                                                                                                                                                                                                                                
 scf: no. of closed-shell electrons is not even!                   0
 ------------------------------------------------------------------------
 ------------------------------------------------------------------------
  current input line : 
     0: 
 ------------------------------------------------------------------------
 ------------------------------------------------------------------------
 There is an error in the input file
 ------------------------------------------------------------------------
 For more information see the NWChem manual at https://nwchemgit.github.io


 For further details see manual section:                                                                                                                                                                                                                                                                
 scf: no. of closed-shell electrons is not even!                   0
 ------------------------------------------------------------------------
 ------------------------------------------------------------------------
  current input line : 
     0: 
 ------------------------------------------------------------------------
 ------------------------------------------------------------------------
 There is an error in the input file
 ------------------------------------------------------------------------
 For more information see the NWChem manual at https://nwchemgit.github.io


 For further details see manual section:                                                                                                                                                                                                                                                                
 scf: no. of closed-shell electrons is not even!                   0
 ------------------------------------------------------------------------
 ------------------------------------------------------------------------
  current input line : 
     0: 
 ------------------------------------------------------------------------
 ------------------------------------------------------------------------
 There is an error in the input file
 ------------------------------------------------------------------------
 For more information see the NWChem manual at https://nwchemgit.github.io


 For further details see manual section:                                                                                                                                                                                                                                                                
 ------------------------------------------------------------------------
 For more information see the NWChem manual at https://nwchemgit.github.io


 For further details see manual section:                                                                                                                                                                                                                                                                
0:scf: no. of closed-shell electrons is not even!:Received an Error in Communication
2:scf: no. of closed-shell electrons is not even!:Received an Error in Communication
3:scf: no. of closed-shell electrons is not even!:Received an Error in Communication
4:scf: no. of closed-shell electrons is not even!:Received an Error in Communication
5:scf: no. of closed-shell electrons is not even!:Received an Error in Communication
6:scf: no. of closed-shell electrons is not even!:Received an Error in Communication
7:scf: no. of closed-shell electrons is not even!:Received an Error in Communication
 ------------------------------------------------------------------------
 ------------------------------------------------------------------------
  current input line : 
     0: 
 ------------------------------------------------------------------------
 ------------------------------------------------------------------------
 There is an error in the input file
 ------------------------------------------------------------------------
 For more information see the NWChem manual at https://nwchemgit.github.io


 For further details see manual section:                                                                                                                                                                                                                                                                
1:scf: no. of closed-shell electrons is not even!:Received an Error in Communication
--------------------------------------------------------------------------
MPI_ABORT was invoked on rank 1 in communicator MPI COMMUNICATOR 3 DUP FROM 0
with errorcode -1.

NOTE: invoking MPI_ABORT causes Open MPI to kill all MPI processes.
You may or may not see output from other processes, depending on
exactly when Open MPI kills them.
--------------------------------------------------------------------------
--------------------------------------------------------------------------
MPI_ABORT was invoked on rank 3 in communicator MPI COMMUNICATOR 3 DUP FROM 0
with errorcode -1.

NOTE: invoking MPI_ABORT causes Open MPI to kill all MPI processes.
You may or may not see output from other processes, depending on
exactly when Open MPI kills them.
--------------------------------------------------------------------------
--------------------------------------------------------------------------
MPI_ABORT was invoked on rank 5 in communicator MPI COMMUNICATOR 3 DUP FROM 0
with errorcode -1.

NOTE: invoking MPI_ABORT causes Open MPI to kill all MPI processes.
You may or may not see output from other processes, depending on
exactly when Open MPI kills them.
--------------------------------------------------------------------------
--------------------------------------------------------------------------
MPI_ABORT was invoked on rank 7 in communicator MPI COMMUNICATOR 3 DUP FROM 0
with errorcode -1.

NOTE: invoking MPI_ABORT causes Open MPI to kill all MPI processes.
You may or may not see output from other processes, depending on
exactly when Open MPI kills them.
--------------------------------------------------------------------------
--------------------------------------------------------------------------
MPI_ABORT was invoked on rank 2 in communicator MPI COMMUNICATOR 3 DUP FROM 0
with errorcode -1.

NOTE: invoking MPI_ABORT causes Open MPI to kill all MPI processes.
You may or may not see output from other processes, depending on
exactly when Open MPI kills them.
--------------------------------------------------------------------------
--------------------------------------------------------------------------
MPI_ABORT was invoked on rank 4 in communicator MPI COMMUNICATOR 3 DUP FROM 0
with errorcode -1.

NOTE: invoking MPI_ABORT causes Open MPI to kill all MPI processes.
You may or may not see output from other processes, depending on
exactly when Open MPI kills them.
--------------------------------------------------------------------------
--------------------------------------------------------------------------
MPI_ABORT was invoked on rank 0 in communicator MPI COMMUNICATOR 3 DUP FROM 0
with errorcode -1.

NOTE: invoking MPI_ABORT causes Open MPI to kill all MPI processes.
You may or may not see output from other processes, depending on
exactly when Open MPI kills them.
--------------------------------------------------------------------------
--------------------------------------------------------------------------
MPI_ABORT was invoked on rank 6 in communicator MPI COMMUNICATOR 3 DUP FROM 0
with errorcode -1.

NOTE: invoking MPI_ABORT causes Open MPI to kill all MPI processes.
You may or may not see output from other processes, depending on
exactly when Open MPI kills them.
--------------------------------------------------------------------------
slurmstepd: error: *** STEP 6619389.103 ON nova21-speedy-12 CANCELLED AT 2025-07-11T03:00:05 ***
srun: Job step aborted: Waiting up to 32 seconds for job step to finish.
slurmstepd: error: --task-epilog failed status=9
srun: error: nova21-speedy-12: tasks 0-7: Killed
