export TMOUT=5400
export TMPDIR=/tmp
export PTMPDIR=/tmp/ptmp
 argument  1 = inputs/ASP_CYS_1.nw



============================== echo of input deck ==============================
start ASP_CYS_1
geometry
H         -1.68800        7.26900       -0.24000
C         -0.68800        7.68800       -0.32200
H         -0.72600        8.77000       -0.20800
H         -0.25800        7.43100       -1.28800
C          0.17900        7.11000        0.77000
O          0.68700        7.84500        1.60600
N          0.33500        5.79200        0.75100
H         -0.08700        5.25800       -0.00400
C          1.22000        5.02000        1.63300
H          1.18000        5.42800        2.64400
C          0.73300        3.55700        1.65800
H          1.33000        3.00500        2.38600
H         -0.30600        3.53200        1.99200
C          0.83400        2.86800        0.28500
O          1.42700        1.77200        0.23500
O          0.42900        3.49300       -0.72500
C          2.68800        5.04300        1.16200
O          3.60400        5.11100        1.97900
N          2.90300        4.97700       -0.15900
H          2.07600        4.81900       -0.72500
C          4.20800        4.81100       -0.80900
H          4.00000        4.68600       -1.87100
C          5.01100        6.11600       -0.66100
H          4.35800        6.96800       -0.85100
H          5.39000        6.18700        0.36000
S          6.39600        6.15500       -1.83600
H          6.96400        5.03300       -1.35800
C          4.96600        3.51900       -0.39700
O          6.19300        3.45000       -0.45600
N          4.27400        2.46000        0.00900
H          3.25900        2.46800        0.03300
H          4.77500        1.63700        0.28900
end

basis
 * library aug-cc-pvdz
end

echo

scf
 direct
end

task scf energy
================================================================================


                                         
                                         


             Northwest Computational Chemistry Package (NWChem) 7.2.0
             --------------------------------------------------------


                    Environmental Molecular Sciences Laboratory
                       Pacific Northwest National Laboratory
                                Richland, WA 99352

                              Copyright (c) 1994-2022
                       Pacific Northwest National Laboratory
                            Battelle Memorial Institute

             NWChem is an open-source computational chemistry package
                        distributed under the terms of the
                      Educational Community License (ECL) 2.0
             A copy of the license is included with this distribution
                              in the LICENSE.TXT file

                                  ACKNOWLEDGMENT
                                  --------------

            This software and its documentation were developed at the
            EMSL at Pacific Northwest National Laboratory, a multiprogram
            national laboratory, operated for the U.S. Department of Energy
            by Battelle under Contract Number DE-AC05-76RL01830. Support
            for this work was provided by the Department of Energy Office
            of Biological and Environmental Research, Office of Basic
            Energy Sciences, and the Office of Advanced Scientific Computing.


           Job information
           ---------------

    hostname        = nova21-swift-2
    program         = /opt/rit/el9/20230413/app/linux-rhel9-x86_64_v3/gcc-11.2.1/nwchem-7.2.0-oxtctbuhfuzyfaoziquq6bki22grib3g/bin/nwchem
    date            = Thu Jul 10 22:20:18 2025

    compiled        = Wed_May_17_23:46:39_2023
    source          = /tmp/root/spack-stage/spack-stage-nwchem-7.2.0-oxtctbuhfuzyfaoziquq6bki22grib3g/spack-src
    nwchem branch   = 7.2.0
    nwchem revision = d0d141fd
    ga revision     = 5.8.0
    use scalapack   = T
    input           = inputs/ASP_CYS_1.nw
    prefix          = ASP_CYS_1.
    data base       = ./ASP_CYS_1.db
    status          = startup
    nproc           =        8
    time left       =     -1s



           Memory information
           ------------------

    heap     =   26214396 doubles =    200.0 Mbytes
    stack    =   26214401 doubles =    200.0 Mbytes
    global   =   52428800 doubles =    400.0 Mbytes (distinct from heap & stack)
    total    =  104857597 doubles =    800.0 Mbytes
    verify   = yes
    hardfail = no 


           Directory information
           ---------------------

  0 permanent = .
  0 scratch   = .




                                NWChem Input Module
                                -------------------



 Scaling coordinates for geometry "geometry" by  1.889725989
 (inverse scale =  0.529177249)

 C1  symmetry detected

          ------
          auto-z
          ------
  no constraints, skipping    0.0000000000000000     
  no constraints, skipping    0.0000000000000000     


                             Geometry "geometry" -> ""
                             -------------------------

 Output coordinates in angstroms (scale by  1.889725989 to convert to a.u.)

  No.       Tag          Charge          X              Y              Z
 ---- ---------------- ---------- -------------- -------------- --------------
    1 H                    1.0000     1.84828691     4.42176002    -1.56339921
    2 C                    6.0000     2.38884395     3.51630725    -1.29837400
    3 H                    1.0000     3.43917296     3.74526614    -1.12647061
    4 H                    1.0000     2.29422760     2.78274698    -2.09652316
    5 C                    6.0000     1.79844887     2.94302979    -0.03305838
    6 O                    8.0000     2.48990168     2.82377982     0.96936740
    7 N                    7.0000     0.51853743     2.59681472    -0.09456297
    8 H                    1.0000     0.02647448     2.68890733    -0.97924257
    9 C                    6.0000    -0.23761933     1.91491109     0.96391112
   10 H                    1.0000     0.04694395     2.31668390     1.93745483
   11 C                    6.0000    -1.74137176     2.16654285     0.73245251
   12 H                    1.0000    -2.29717363     1.74198532     1.57026644
   13 H                    1.0000    -1.92601472     3.24240934     0.72148505
   14 C                    6.0000    -2.25543409     1.55711990    -0.58451165
   15 O                    8.0000    -3.26128497     0.82238698    -0.52289558
   16 O                    8.0000    -1.57335992     1.72662820    -1.62412300
   17 C                    6.0000     0.01100220     0.39328651     0.97940280
   18 O                    8.0000     0.09459420    -0.21406153     2.04491194
   19 N                    7.0000     0.11925967    -0.21644803    -0.20892632
   20 H                    1.0000    -0.07076031     0.36934115    -1.01514740
   21 C                    6.0000     0.18223020    -1.66608208    -0.42727661
   22 H                    1.0000     0.15335932    -1.80796163    -1.50698475
   23 C                    6.0000     1.54797541    -2.18662524     0.05595506
   24 H                    1.0000     2.33289207    -1.50338621    -0.26885761
   25 H                    1.0000     1.54832941    -2.22614200     1.14662517
   26 S                   16.0000     1.88147739    -3.83950370    -0.62016640
   27 H                    1.0000     0.78786145    -4.39563624    -0.06815844
   28 C                    6.0000    -1.04931485    -2.44606673     0.10983859
   29 O                    8.0000    -0.96605864    -3.63014573     0.43356118
   30 N                    7.0000    -2.22132083    -1.82731953     0.20329928
   31 H                    1.0000    -2.33583696    -0.86249345    -0.09142380
   32 H                    1.0000    -3.00563695    -2.33599351     0.56775641

      Atomic Mass 
      ----------- 

      H                  1.007825
      C                 12.000000
      O                 15.994910
      N                 14.003070
      S                 31.972070


 Effective nuclear repulsion energy (a.u.)    1557.6140945440

            Nuclear Dipole moment (a.u.) 
            ----------------------------
        X                 Y               Z
 ---------------- ---------------- ----------------
     0.0000000000    -0.0000000000     0.0000000000



                                Z-matrix (autoz)
                                -------- 

 Units are Angstrom for bonds and degrees for angles

      Type          Name      I     J     K     L     M      Value
      ----------- --------  ----- ----- ----- ----- ----- ----------
    1 Stretch                  1     2                       1.08733
    2 Stretch                  2     3                       1.08865
    3 Stretch                  2     4                       1.08817
    4 Stretch                  2     5                       1.50938
    5 Stretch                  5     6                       1.22360
    6 Stretch                  5     7                       1.32734
    7 Stretch                  7     8                       1.01650
    8 Stretch                  7     9                       1.46872
    9 Stretch                  9    10                       1.09096
   10 Stretch                  9    11                       1.54213
   11 Stretch                  9    17                       1.54188
   12 Stretch                 11    12                       1.09137
   13 Stretch                 11    13                       1.09165
   14 Stretch                 11    14                       1.53950
   15 Stretch                 14    15                       1.24714
   16 Stretch                 14    16                       1.25489
   17 Stretch                 17    18                       1.22930
   18 Stretch                 17    19                       1.34001
   19 Stretch                 19    20                       1.01452
   20 Stretch                 19    21                       1.46734
   21 Stretch                 21    22                       1.08937
   22 Stretch                 21    23                       1.53940
   23 Stretch                 21    28                       1.55357
   24 Stretch                 23    24                       1.09014
   25 Stretch                 23    25                       1.09139
   26 Stretch                 23    26                       1.81669
   27 Stretch                 26    27                       1.34536
   28 Stretch                 28    29                       1.23035
   29 Stretch                 28    30                       1.32860
   30 Stretch                 30    31                       1.01532
   31 Stretch                 30    32                       1.00336
   32 Bend                     1     2     3               110.05938
   33 Bend                     1     2     4               109.83789
   34 Bend                     1     2     5               109.03518
   35 Bend                     2     5     6               120.18219
   36 Bend                     2     5     7               115.93796
   37 Bend                     3     2     4               109.96754
   38 Bend                     3     2     5               108.95880
   39 Bend                     4     2     5               108.95513
   40 Bend                     5     7     8               118.91284
   41 Bend                     5     7     9               125.74325
   42 Bend                     6     5     7               123.87960
   43 Bend                     7     9    10               109.74543
   44 Bend                     7     9    11               108.54831
   45 Bend                     7     9    17               112.48308
   46 Bend                     8     7     9               114.83858
   47 Bend                     9    11    12               108.53593
   48 Bend                     9    11    13               109.10207
   49 Bend                     9    11    14               112.91767
   50 Bend                     9    17    18               120.48046
   51 Bend                     9    17    19               116.94675
   52 Bend                    10     9    11               109.15909
   53 Bend                    10     9    17               108.20470
   54 Bend                    11     9    17               108.64896
   55 Bend                    11    14    15               117.40390
   56 Bend                    11    14    16               118.27673
   57 Bend                    12    11    13               107.75585
   58 Bend                    12    11    14               109.43011
   59 Bend                    13    11    14               108.96929
   60 Bend                    15    14    16               123.97849
   61 Bend                    17    19    20               115.26884
   62 Bend                    17    19    21               125.80039
   63 Bend                    18    17    19               122.57134
   64 Bend                    19    21    22               105.96308
   65 Bend                    19    21    23               108.99161
   66 Bend                    19    21    28               114.23852
   67 Bend                    20    19    21               117.40148
   68 Bend                    21    23    24               109.47099
   69 Bend                    21    23    25               109.04045
   70 Bend                    21    23    26               110.71357
   71 Bend                    21    28    29               121.36588
   72 Bend                    21    28    30               119.32686
   73 Bend                    22    21    23               106.89374
   74 Bend                    22    21    28               104.84861
   75 Bend                    23    21    28               115.15065
   76 Bend                    23    26    27                94.25336
   77 Bend                    24    23    25               108.67612
   78 Bend                    24    23    26               109.09653
   79 Bend                    25    23    26               109.81140
   80 Bend                    28    30    31               121.44164
   81 Bend                    28    30    32               118.62046
   82 Bend                    29    28    30               119.29992
   83 Bend                    31    30    32               119.93612
   84 Torsion                  1     2     5     6        -119.13110
   85 Torsion                  1     2     5     7          60.69198
   86 Torsion                  2     5     7     8           2.96426
   87 Torsion                  2     5     7     9         174.36476
   88 Torsion                  3     2     5     6           1.01236
   89 Torsion                  3     2     5     7        -179.16457
   90 Torsion                  4     2     5     6         120.99657
   91 Torsion                  4     2     5     7         -59.18036
   92 Torsion                  5     7     9    10          39.87355
   93 Torsion                  5     7     9    11         159.09838
   94 Torsion                  5     7     9    17         -80.64320
   95 Torsion                  6     5     7     8        -177.21996
   96 Torsion                  6     5     7     9          -5.81946
   97 Torsion                  7     9    11    12        -174.62491
   98 Torsion                  7     9    11    13         -57.46284
   99 Torsion                  7     9    11    14          63.86283
  100 Torsion                  7     9    17    18         141.71652
  101 Torsion                  7     9    17    19         -38.70990
  102 Torsion                  8     7     9    10        -148.41922
  103 Torsion                  8     7     9    11         -29.19439
  104 Torsion                  8     7     9    17          91.06403
  105 Torsion                  9    11    14    15         128.02209
  106 Torsion                  9    11    14    16         -45.54430
  107 Torsion                  9    17    19    20          -6.18067
  108 Torsion                  9    17    19    21        -171.62845
  109 Torsion                 10     9    11    12         -55.03268
  110 Torsion                 10     9    11    13          62.12939
  111 Torsion                 10     9    11    14        -176.54495
  112 Torsion                 10     9    17    18          20.31660
  113 Torsion                 10     9    17    19        -160.10981
  114 Torsion                 11     9    17    18         -98.08319
  115 Torsion                 11     9    17    19          81.49040
  116 Torsion                 12    11     9    17          62.76266
  117 Torsion                 12    11    14    15           7.01656
  118 Torsion                 12    11    14    16        -166.54983
  119 Torsion                 13    11     9    17         179.92474
  120 Torsion                 13    11    14    15        -110.57708
  121 Torsion                 13    11    14    16          75.85653
  122 Torsion                 14    11     9    17         -58.74960
  123 Torsion                 17    19    21    22         173.77407
  124 Torsion                 17    19    21    23         -71.51123
  125 Torsion                 17    19    21    28          58.87005
  126 Torsion                 18    17    19    20         173.38326
  127 Torsion                 18    17    19    21           7.93547
  128 Torsion                 19    21    23    24         -42.95997
  129 Torsion                 19    21    23    25          75.81141
  130 Torsion                 19    21    23    26        -163.26988
  131 Torsion                 19    21    28    29        -154.17734
  132 Torsion                 19    21    28    30          26.81502
  133 Torsion                 20    19    21    22           8.60308
  134 Torsion                 20    19    21    23         123.31777
  135 Torsion                 20    19    21    28        -106.30095
  136 Torsion                 21    23    26    27         -59.11332
  137 Torsion                 21    28    30    31           1.62121
  138 Torsion                 21    28    30    32        -178.86508
  139 Torsion                 22    21    23    24          71.15013
  140 Torsion                 22    21    23    25        -170.07849
  141 Torsion                 22    21    23    26         -49.15978
  142 Torsion                 22    21    28    29          90.26689
  143 Torsion                 22    21    28    30         -88.74075
  144 Torsion                 23    21    28    29         -26.90112
  145 Torsion                 23    21    28    30         154.09123
  146 Torsion                 24    23    21    28        -172.84374
  147 Torsion                 24    23    26    27        -179.64634
  148 Torsion                 25    23    21    28         -54.07236
  149 Torsion                 25    23    26    27          61.34730
  150 Torsion                 26    23    21    28          66.84636
  151 Torsion                 29    28    30    31        -177.40715
  152 Torsion                 29    28    30    32           2.10656


            XYZ format geometry
            -------------------
    32
 geometry
 H                     1.84828691     4.42176002    -1.56339921
 C                     2.38884395     3.51630725    -1.29837400
 H                     3.43917296     3.74526614    -1.12647061
 H                     2.29422760     2.78274698    -2.09652316
 C                     1.79844887     2.94302979    -0.03305838
 O                     2.48990168     2.82377982     0.96936740
 N                     0.51853743     2.59681472    -0.09456297
 H                     0.02647448     2.68890733    -0.97924257
 C                    -0.23761933     1.91491109     0.96391112
 H                     0.04694395     2.31668390     1.93745483
 C                    -1.74137176     2.16654285     0.73245251
 H                    -2.29717363     1.74198532     1.57026644
 H                    -1.92601472     3.24240934     0.72148505
 C                    -2.25543409     1.55711990    -0.58451165
 O                    -3.26128497     0.82238698    -0.52289558
 O                    -1.57335992     1.72662820    -1.62412300
 C                     0.01100220     0.39328651     0.97940280
 O                     0.09459420    -0.21406153     2.04491194
 N                     0.11925967    -0.21644803    -0.20892632
 H                    -0.07076031     0.36934115    -1.01514740
 C                     0.18223020    -1.66608208    -0.42727661
 H                     0.15335932    -1.80796163    -1.50698475
 C                     1.54797541    -2.18662524     0.05595506
 H                     2.33289207    -1.50338621    -0.26885761
 H                     1.54832941    -2.22614200     1.14662517
 S                     1.88147739    -3.83950370    -0.62016640
 H                     0.78786145    -4.39563624    -0.06815844
 C                    -1.04931485    -2.44606673     0.10983859
 O                    -0.96605864    -3.63014573     0.43356118
 N                    -2.22132083    -1.82731953     0.20329928
 H                    -2.33583696    -0.86249345    -0.09142380
 H                    -3.00563695    -2.33599351     0.56775641

 ==============================================================================
                                internuclear distances
 ------------------------------------------------------------------------------
       center one      |      center two      | atomic units |  angstroms
 ------------------------------------------------------------------------------
    2 C                |   1 H                |     2.05475  |     1.08733
    3 H                |   2 C                |     2.05725  |     1.08865
    4 H                |   2 C                |     2.05634  |     1.08817
    5 C                |   2 C                |     2.85232  |     1.50938
    6 O                |   5 C                |     2.31226  |     1.22360
    7 N                |   5 C                |     2.50830  |     1.32734
    8 H                |   7 N                |     1.92090  |     1.01650
    9 C                |   7 N                |     2.77547  |     1.46872
   10 H                |   9 C                |     2.06161  |     1.09096
   11 C                |   9 C                |     2.91420  |     1.54213
   12 H                |  11 C                |     2.06240  |     1.09137
   13 H                |  11 C                |     2.06292  |     1.09165
   14 C                |  11 C                |     2.90923  |     1.53950
   15 O                |  14 C                |     2.35676  |     1.24714
   16 O                |  14 C                |     2.37140  |     1.25489
   17 C                |   9 C                |     2.91373  |     1.54188
   18 O                |  17 C                |     2.32303  |     1.22930
   19 N                |  17 C                |     2.53225  |     1.34001
   20 H                |  19 N                |     1.91716  |     1.01452
   21 C                |  19 N                |     2.77287  |     1.46734
   22 H                |  21 C                |     2.05862  |     1.08937
   23 C                |  21 C                |     2.90904  |     1.53940
   24 H                |  23 C                |     2.06007  |     1.09014
   25 H                |  23 C                |     2.06242  |     1.09139
   26 S                |  23 C                |     3.43305  |     1.81669
   27 H                |  26 S                |     2.54236  |     1.34536
   28 C                |  21 C                |     2.93582  |     1.55357
   29 O                |  28 C                |     2.32503  |     1.23035
   30 N                |  28 C                |     2.51069  |     1.32860
   31 H                |  30 N                |     1.91867  |     1.01532
   32 H                |  30 N                |     1.89607  |     1.00336
 ------------------------------------------------------------------------------
                         number of included internuclear distances:         31
 ==============================================================================



 ==============================================================================
                                 internuclear angles
 ------------------------------------------------------------------------------
        center 1       |       center 2       |       center 3       |  degrees
 ------------------------------------------------------------------------------
    1 H                |   2 C                |   3 H                |   110.06
    1 H                |   2 C                |   4 H                |   109.84
    1 H                |   2 C                |   5 C                |   109.04
    3 H                |   2 C                |   4 H                |   109.97
    3 H                |   2 C                |   5 C                |   108.96
    4 H                |   2 C                |   5 C                |   108.96
    2 C                |   5 C                |   6 O                |   120.18
    2 C                |   5 C                |   7 N                |   115.94
    6 O                |   5 C                |   7 N                |   123.88
    5 C                |   7 N                |   8 H                |   118.91
    5 C                |   7 N                |   9 C                |   125.74
    8 H                |   7 N                |   9 C                |   114.84
    7 N                |   9 C                |  10 H                |   109.75
    7 N                |   9 C                |  11 C                |   108.55
    7 N                |   9 C                |  17 C                |   112.48
   10 H                |   9 C                |  11 C                |   109.16
   10 H                |   9 C                |  17 C                |   108.20
   11 C                |   9 C                |  17 C                |   108.65
    9 C                |  11 C                |  12 H                |   108.54
    9 C                |  11 C                |  13 H                |   109.10
    9 C                |  11 C                |  14 C                |   112.92
   12 H                |  11 C                |  13 H                |   107.76
   12 H                |  11 C                |  14 C                |   109.43
   13 H                |  11 C                |  14 C                |   108.97
   11 C                |  14 C                |  15 O                |   117.40
   11 C                |  14 C                |  16 O                |   118.28
   15 O                |  14 C                |  16 O                |   123.98
    9 C                |  17 C                |  18 O                |   120.48
    9 C                |  17 C                |  19 N                |   116.95
   18 O                |  17 C                |  19 N                |   122.57
   17 C                |  19 N                |  20 H                |   115.27
   17 C                |  19 N                |  21 C                |   125.80
   20 H                |  19 N                |  21 C                |   117.40
   19 N                |  21 C                |  22 H                |   105.96
   19 N                |  21 C                |  23 C                |   108.99
   19 N                |  21 C                |  28 C                |   114.24
   22 H                |  21 C                |  23 C                |   106.89
   22 H                |  21 C                |  28 C                |   104.85
   23 C                |  21 C                |  28 C                |   115.15
   21 C                |  23 C                |  24 H                |   109.47
   21 C                |  23 C                |  25 H                |   109.04
   21 C                |  23 C                |  26 S                |   110.71
   24 H                |  23 C                |  25 H                |   108.68
   24 H                |  23 C                |  26 S                |   109.10
   25 H                |  23 C                |  26 S                |   109.81
   23 C                |  26 S                |  27 H                |    94.25
   21 C                |  28 C                |  29 O                |   121.37
   21 C                |  28 C                |  30 N                |   119.33
   29 O                |  28 C                |  30 N                |   119.30
   28 C                |  30 N                |  31 H                |   121.44
   28 C                |  30 N                |  32 H                |   118.62
   31 H                |  30 N                |  32 H                |   119.94
 ------------------------------------------------------------------------------
                            number of included internuclear angles:         52
 ==============================================================================



  library name resolved from: environment
  library file name is: </opt/rit/el9/20230413/app/linux-rhel9-x86_64_v3/gcc-11.2.1/nwchem-7.2.0-oxtctbuhfuzyfaoziquq6bki22grib3g/share/nwchem/libraries/>
  


 Summary of "ao basis" -> "" (cartesian)
 ------------------------------------------------------------------------------
       Tag                 Description            Shells   Functions and Types
 ---------------- ------------------------------  ------  ---------------------
 *                        aug-cc-pvdz                 on all atoms 


                      Basis "ao basis" -> "ao basis" (cartesian)
                      -----
  H (Hydrogen)
  ------------
            Exponent  Coefficients 
       -------------- ---------------------------------------------------------
  1 S  1.30100000E+01  0.019685
  1 S  1.96200000E+00  0.137977
  1 S  4.44600000E-01  0.478148

  2 S  1.22000000E-01  1.000000

  3 S  2.97400000E-02  1.000000

  4 P  7.27000000E-01  1.000000

  5 P  1.41000000E-01  1.000000

  C (Carbon)
  ----------
            Exponent  Coefficients 
       -------------- ---------------------------------------------------------
  1 S  6.66500000E+03  0.000692
  1 S  1.00000000E+03  0.005329
  1 S  2.28000000E+02  0.027077
  1 S  6.47100000E+01  0.101718
  1 S  2.10600000E+01  0.274740
  1 S  7.49500000E+00  0.448564
  1 S  2.79700000E+00  0.285074
  1 S  5.21500000E-01  0.015204

  2 S  6.66500000E+03 -0.000146
  2 S  1.00000000E+03 -0.001154
  2 S  2.28000000E+02 -0.005725
  2 S  6.47100000E+01 -0.023312
  2 S  2.10600000E+01 -0.063955
  2 S  7.49500000E+00 -0.149981
  2 S  2.79700000E+00 -0.127262
  2 S  5.21500000E-01  0.544529

  3 S  1.59600000E-01  1.000000

  4 S  4.69000000E-02  1.000000

  5 P  9.43900000E+00  0.038109
  5 P  2.00200000E+00  0.209480
  5 P  5.45600000E-01  0.508557

  6 P  1.51700000E-01  1.000000

  7 P  4.04100000E-02  1.000000

  8 D  5.50000000E-01  1.000000

  9 D  1.51000000E-01  1.000000

  O (Oxygen)
  ----------
            Exponent  Coefficients 
       -------------- ---------------------------------------------------------
  1 S  1.17200000E+04  0.000710
  1 S  1.75900000E+03  0.005470
  1 S  4.00800000E+02  0.027837
  1 S  1.13700000E+02  0.104800
  1 S  3.70300000E+01  0.283062
  1 S  1.32700000E+01  0.448719
  1 S  5.02500000E+00  0.270952
  1 S  1.01300000E+00  0.015458

  2 S  1.17200000E+04 -0.000160
  2 S  1.75900000E+03 -0.001263
  2 S  4.00800000E+02 -0.006267
  2 S  1.13700000E+02 -0.025716
  2 S  3.70300000E+01 -0.070924
  2 S  1.32700000E+01 -0.165411
  2 S  5.02500000E+00 -0.116955
  2 S  1.01300000E+00  0.557368

  3 S  3.02300000E-01  1.000000

  4 S  7.89600000E-02  1.000000

  5 P  1.77000000E+01  0.043018
  5 P  3.85400000E+00  0.228913
  5 P  1.04600000E+00  0.508728

  6 P  2.75300000E-01  1.000000

  7 P  6.85600000E-02  1.000000

  8 D  1.18500000E+00  1.000000

  9 D  3.32000000E-01  1.000000

  N (Nitrogen)
  ------------
            Exponent  Coefficients 
       -------------- ---------------------------------------------------------
  1 S  9.04600000E+03  0.000700
  1 S  1.35700000E+03  0.005389
  1 S  3.09300000E+02  0.027406
  1 S  8.77300000E+01  0.103207
  1 S  2.85600000E+01  0.278723
  1 S  1.02100000E+01  0.448540
  1 S  3.83800000E+00  0.278238
  1 S  7.46600000E-01  0.015440

  2 S  9.04600000E+03 -0.000153
  2 S  1.35700000E+03 -0.001208
  2 S  3.09300000E+02 -0.005992
  2 S  8.77300000E+01 -0.024544
  2 S  2.85600000E+01 -0.067459
  2 S  1.02100000E+01 -0.158078
  2 S  3.83800000E+00 -0.121831
  2 S  7.46600000E-01  0.549003

  3 S  2.24800000E-01  1.000000

  4 S  6.12400000E-02  1.000000

  5 P  1.35500000E+01  0.039919
  5 P  2.91700000E+00  0.217169
  5 P  7.97300000E-01  0.510319

  6 P  2.18500000E-01  1.000000

  7 P  5.61100000E-02  1.000000

  8 D  8.17000000E-01  1.000000

  9 D  2.30000000E-01  1.000000

  S (Sulphur)
  -----------
            Exponent  Coefficients 
       -------------- ---------------------------------------------------------
  1 S  1.10800000E+05  0.000248
  1 S  1.66100000E+04  0.001920
  1 S  3.78100000E+03  0.009962
  1 S  1.07100000E+03  0.040298
  1 S  3.49800000E+02  0.128604
  1 S  1.26300000E+02  0.303480
  1 S  4.92600000E+01  0.421432
  1 S  2.01600000E+01  0.230781
  1 S  5.72000000E+00  0.017897
  1 S  2.18200000E+00 -0.002975
  1 S  4.32700000E-01  0.000850

  2 S  1.10800000E+05 -0.000069
  2 S  1.66100000E+04 -0.000528
  2 S  3.78100000E+03 -0.002797
  2 S  1.07100000E+03 -0.011265
  2 S  3.49800000E+02 -0.038883
  2 S  1.26300000E+02 -0.099503
  2 S  4.92600000E+01 -0.199740
  2 S  2.01600000E+01 -0.123360
  2 S  5.72000000E+00  0.513194
  2 S  2.18200000E+00  0.607120
  2 S  4.32700000E-01  0.039675

  3 S  1.10800000E+05  0.000020
  3 S  1.66100000E+04  0.000153
  3 S  3.78100000E+03  0.000810
  3 S  1.07100000E+03  0.003290
  3 S  3.49800000E+02  0.011297
  3 S  1.26300000E+02  0.029639
  3 S  4.92600000E+01  0.059985
  3 S  2.01600000E+01  0.041325
  3 S  5.72000000E+00 -0.207474
  3 S  2.18200000E+00 -0.392889
  3 S  4.32700000E-01  0.632840

  4 S  1.57000000E-01  1.000000

  5 S  5.07000000E-02  1.000000

  6 P  3.99700000E+02  0.004475
  6 P  9.41900000E+01  0.034171
  6 P  2.97500000E+01  0.144250
  6 P  1.07700000E+01  0.353928
  6 P  4.11900000E+00  0.459085
  6 P  1.62500000E+00  0.206383
  6 P  4.72600000E-01  0.010214

  7 P  3.99700000E+02 -0.001163
  7 P  9.41900000E+01 -0.008657
  7 P  2.97500000E+01 -0.039089
  7 P  1.07700000E+01 -0.093463
  7 P  4.11900000E+00 -0.147994
  7 P  1.62500000E+00  0.030190
  7 P  4.72600000E-01  0.561573

  8 P  1.40700000E-01  1.000000

  9 P  3.99000000E-02  1.000000

 10 D  4.79000000E-01  1.000000

 11 D  1.52000000E-01  1.000000



 Summary of "ao basis" -> "ao basis" (cartesian)
 ------------------------------------------------------------------------------
       Tag                 Description            Shells   Functions and Types
 ---------------- ------------------------------  ------  ---------------------
 H                        aug-cc-pvdz                5        9   3s2p
 C                        aug-cc-pvdz                9       25   4s3p2d
 O                        aug-cc-pvdz                9       25   4s3p2d
 N                        aug-cc-pvdz                9       25   4s3p2d
 S                        aug-cc-pvdz               11       29   5s4p2d


 ------------------------------------------------------------------------
 scf: no. of closed-shell electrons is not even!                   0
 ------------------------------------------------------------------------
 ------------------------------------------------------------------------
  current input line : 
 scf: no. of closed-shell electrons is not even!                   0
 ------------------------------------------------------------------------
 ------------------------------------------------------------------------
  current input line : 
     0: 
 ------------------------------------------------------------------------
 scf: no. of closed-shell electrons is not even!                   0
 ------------------------------------------------------------------------
 ------------------------------------------------------------------------
  current input line : 
     0: 
 ------------------------------------------------------------------------
 ------------------------------------------------------------------------
 There is an error in the input file
 scf: no. of closed-shell electrons is not even!                   0
 ------------------------------------------------------------------------
 ------------------------------------------------------------------------
  current input line : 
     0: 
 ------------------------------------------------------------------------
 ------------------------------------------------------------------------
 There is an error in the input file
 ------------------------------------------------------------------------
 For more information see the NWChem manual at https://nwchemgit.github.io


 For further details see manual section:                                                                                                                                                                                                                                                                
 scf: no. of closed-shell electrons is not even!                   0
 ------------------------------------------------------------------------
 ------------------------------------------------------------------------
  current input line : 
     0: 
 ------------------------------------------------------------------------
 ------------------------------------------------------------------------
 There is an error in the input file
 ------------------------------------------------------------------------
 For more information see the NWChem manual at https://nwchemgit.github.io


 For further details see manual section:                                                                                                                                                                                                                                                                
 scf: no. of closed-shell electrons is not even!                   0
 ------------------------------------------------------------------------
 ------------------------------------------------------------------------
  current input line : 
     0: 
 ------------------------------------------------------------------------
 ------------------------------------------------------------------------
 There is an error in the input file
 ------------------------------------------------------------------------
 For more information see the NWChem manual at https://nwchemgit.github.io


 For further details see manual section:                                                                                                                                                                                                                                                                
 scf: no. of closed-shell electrons is not even!                   0
 ------------------------------------------------------------------------
 ------------------------------------------------------------------------
  current input line : 
     0: 
 ------------------------------------------------------------------------
 ------------------------------------------------------------------------
 There is an error in the input file
 ------------------------------------------------------------------------
 For more information see the NWChem manual at https://nwchemgit.github.io


 For further details see manual section:                                                                                                                                                                                                                                                                
     0: 
 ------------------------------------------------------------------------
 ------------------------------------------------------------------------
 There is an error in the input file
 ------------------------------------------------------------------------
 For more information see the NWChem manual at https://nwchemgit.github.io


 For further details see manual section:                                                                                                                                                                                                                                                                
1:scf: no. of closed-shell electrons is not even!:Received an Error in Communication
 ------------------------------------------------------------------------
 There is an error in the input file
 ------------------------------------------------------------------------
 For more information see the NWChem manual at https://nwchemgit.github.io


 For further details see manual section:                                                                                                                                                                                                                                                                
2:scf: no. of closed-shell electrons is not even!:Received an Error in Communication
 ------------------------------------------------------------------------
 For more information see the NWChem manual at https://nwchemgit.github.io


 For further details see manual section:                                                                                                                                                                                                                                                                
3:scf: no. of closed-shell electrons is not even!:Received an Error in Communication
4:scf: no. of closed-shell electrons is not even!:Received an Error in Communication
5:scf: no. of closed-shell electrons is not even!:Received an Error in Communication
6:scf: no. of closed-shell electrons is not even!:Received an Error in Communication
7:scf: no. of closed-shell electrons is not even!:Received an Error in Communication
 scf: no. of closed-shell electrons is not even!                   0
 ------------------------------------------------------------------------
 ------------------------------------------------------------------------
  current input line : 
    47: task scf energy
 ------------------------------------------------------------------------
 ------------------------------------------------------------------------
 There is an error in the input file
 ------------------------------------------------------------------------
 For more information see the NWChem manual at https://nwchemgit.github.io


 For further details see manual section:                                                                                                                                                                                                                                                                
0:scf: no. of closed-shell electrons is not even!:Received an Error in Communication
--------------------------------------------------------------------------
MPI_ABORT was invoked on rank 2 in communicator MPI COMMUNICATOR 3 DUP FROM 0
with errorcode -1.

NOTE: invoking MPI_ABORT causes Open MPI to kill all MPI processes.
You may or may not see output from other processes, depending on
exactly when Open MPI kills them.
--------------------------------------------------------------------------
--------------------------------------------------------------------------
MPI_ABORT was invoked on rank 4 in communicator MPI COMMUNICATOR 3 DUP FROM 0
with errorcode -1.

NOTE: invoking MPI_ABORT causes Open MPI to kill all MPI processes.
You may or may not see output from other processes, depending on
exactly when Open MPI kills them.
--------------------------------------------------------------------------
--------------------------------------------------------------------------
MPI_ABORT was invoked on rank 5 in communicator MPI COMMUNICATOR 3 DUP FROM 0
with errorcode -1.

NOTE: invoking MPI_ABORT causes Open MPI to kill all MPI processes.
You may or may not see output from other processes, depending on
exactly when Open MPI kills them.
--------------------------------------------------------------------------
--------------------------------------------------------------------------
MPI_ABORT was invoked on rank 6 in communicator MPI COMMUNICATOR 3 DUP FROM 0
with errorcode -1.

NOTE: invoking MPI_ABORT causes Open MPI to kill all MPI processes.
You may or may not see output from other processes, depending on
exactly when Open MPI kills them.
--------------------------------------------------------------------------
--------------------------------------------------------------------------
MPI_ABORT was invoked on rank 7 in communicator MPI COMMUNICATOR 3 DUP FROM 0
with errorcode -1.

NOTE: invoking MPI_ABORT causes Open MPI to kill all MPI processes.
You may or may not see output from other processes, depending on
exactly when Open MPI kills them.
--------------------------------------------------------------------------
--------------------------------------------------------------------------
MPI_ABORT was invoked on rank 0 in communicator MPI COMMUNICATOR 3 DUP FROM 0
with errorcode -1.

NOTE: invoking MPI_ABORT causes Open MPI to kill all MPI processes.
You may or may not see output from other processes, depending on
exactly when Open MPI kills them.
--------------------------------------------------------------------------
--------------------------------------------------------------------------
MPI_ABORT was invoked on rank 1 in communicator MPI COMMUNICATOR 3 DUP FROM 0
with errorcode -1.

NOTE: invoking MPI_ABORT causes Open MPI to kill all MPI processes.
You may or may not see output from other processes, depending on
exactly when Open MPI kills them.
--------------------------------------------------------------------------
--------------------------------------------------------------------------
MPI_ABORT was invoked on rank 3 in communicator MPI COMMUNICATOR 3 DUP FROM 0
with errorcode -1.

NOTE: invoking MPI_ABORT causes Open MPI to kill all MPI processes.
You may or may not see output from other processes, depending on
exactly when Open MPI kills them.
--------------------------------------------------------------------------
slurmstepd: error: *** STEP 6619389.99 ON nova21-swift-2 CANCELLED AT 2025-07-10T22:20:18 ***
srun: Job step aborted: Waiting up to 32 seconds for job step to finish.
slurmstepd: error: --task-epilog failed status=9
srun: error: nova21-swift-2: tasks 0-7: Killed
