export TMOUT=5400
export TMPDIR=/tmp
export PTMPDIR=/tmp/ptmp
 argument  1 = inputs/ASP_ASP_2.nw



============================== echo of input deck ==============================
start ASP_ASP_2
geometry
H          4.87800       11.31800        2.42400
C          4.85400       10.26400        2.16200
H          3.81900        9.92400        2.12000
H          5.40700        9.67200        2.88700
C          5.46600       10.08100        0.79500
O          5.84000       11.05600        0.15000
N          5.58900        8.82800        0.37100
H          5.25000        8.06600        0.95500
C          5.98900        8.42600       -0.98400
H          6.69600        9.16800       -1.35400
C          6.74100        7.07300       -0.96600
H          6.84500        6.71300       -1.99100
H          7.75100        7.27800       -0.60600
C          6.18500        5.93000       -0.09100
O          5.25100        6.15300        0.71400
O          6.76100        4.82300       -0.20000
C          4.82300        8.45100       -1.99900
O          5.04900        8.28900       -3.19900
N          3.59500        8.73600       -1.55100
H          3.47700        8.89600       -0.55600
C          2.46700        9.14200       -2.39900
H          2.45600        8.51400       -3.28900
C          1.13600        8.93000       -1.64600
H          0.31800        9.19800       -2.31800
H          1.03600        7.86600       -1.42700
C          0.96400        9.70700       -0.32600
O          1.97400       10.18400        0.24400
O         -0.20300        9.80800        0.11700
C          2.57900       10.60700       -2.87700
O          2.01700       10.98600       -3.90400
N          3.31900       11.45500       -2.17200
H          3.71800       11.13800       -1.29800
H          3.39000       12.40900       -2.47200
end

basis
 * library aug-cc-pvdz
end

echo

scf
 direct
end

task scf energy
================================================================================


                                         
                                         


             Northwest Computational Chemistry Package (NWChem) 7.2.0
             --------------------------------------------------------


                    Environmental Molecular Sciences Laboratory
                       Pacific Northwest National Laboratory
                                Richland, WA 99352

                              Copyright (c) 1994-2022
                       Pacific Northwest National Laboratory
                            Battelle Memorial Institute

             NWChem is an open-source computational chemistry package
                        distributed under the terms of the
                      Educational Community License (ECL) 2.0
             A copy of the license is included with this distribution
                              in the LICENSE.TXT file

                                  ACKNOWLEDGMENT
                                  --------------

            This software and its documentation were developed at the
            EMSL at Pacific Northwest National Laboratory, a multiprogram
            national laboratory, operated for the U.S. Department of Energy
            by Battelle under Contract Number DE-AC05-76RL01830. Support
            for this work was provided by the Department of Energy Office
            of Biological and Environmental Research, Office of Basic
            Energy Sciences, and the Office of Advanced Scientific Computing.


           Job information
           ---------------

    hostname        = nova21-swift-2
    program         = /opt/rit/el9/20230413/app/linux-rhel9-x86_64_v3/gcc-11.2.1/nwchem-7.2.0-oxtctbuhfuzyfaoziquq6bki22grib3g/bin/nwchem
    date            = Thu Jul 10 17:10:02 2025

    compiled        = Wed_May_17_23:46:39_2023
    source          = /tmp/root/spack-stage/spack-stage-nwchem-7.2.0-oxtctbuhfuzyfaoziquq6bki22grib3g/spack-src
    nwchem branch   = 7.2.0
    nwchem revision = d0d141fd
    ga revision     = 5.8.0
    use scalapack   = T
    input           = inputs/ASP_ASP_2.nw
    prefix          = ASP_ASP_2.
    data base       = ./ASP_ASP_2.db
    status          = startup
    nproc           =        8
    time left       =     -1s



           Memory information
           ------------------

    heap     =   26214396 doubles =    200.0 Mbytes
    stack    =   26214401 doubles =    200.0 Mbytes
    global   =   52428800 doubles =    400.0 Mbytes (distinct from heap & stack)
    total    =  104857597 doubles =    800.0 Mbytes
    verify   = yes
    hardfail = no 


           Directory information
           ---------------------

  0 permanent = .
  0 scratch   = .




                                NWChem Input Module
                                -------------------



 Scaling coordinates for geometry "geometry" by  1.889725989
 (inverse scale =  0.529177249)

 C1  symmetry detected

          ------
          auto-z
          ------
  no constraints, skipping    0.0000000000000000     
  no constraints, skipping    0.0000000000000000     


                             Geometry "geometry" -> ""
                             -------------------------

 Output coordinates in angstroms (scale by  1.889725989 to convert to a.u.)

  No.       Tag          Charge          X              Y              Z
 ---- ---------------- ---------- -------------- -------------- --------------
    1 H                    1.0000     3.85623060     0.12099648     1.46628311
    2 C                    6.0000     3.24390224     0.65272257     0.74347100
    3 H                    1.0000     3.13173753     0.04447844    -0.15433029
    4 H                    1.0000     3.69114961     1.60971047     0.48648470
    5 C                    6.0000     1.87337839     0.88234867     1.33139807
    6 O                    8.0000     1.59367308     0.43500146     2.43962703
    7 N                    7.0000     1.03339177     1.60240006     0.59596454
    8 H                    1.0000     1.32885411     1.93644607    -0.31931480
    9 C                    6.0000    -0.39299545     1.80012287     0.88571303
   10 H                    1.0000    -0.51147303     1.81556673     1.96878161
   11 C                    6.0000    -0.88212140     3.17549585     0.37040539
   12 H                    1.0000    -1.97184184     3.20495469     0.42219860
   13 H                    1.0000    -0.51837025     3.92459894     1.07627695
   14 C                    6.0000    -0.43775683     3.63975252    -1.03252579
   15 O                    8.0000     0.43501499     2.99561041    -1.65978991
   16 O                    8.0000    -0.95201211     4.70328838    -1.44910588
   17 C                    6.0000    -1.28253724     0.62932953     0.40783822
   18 O                    8.0000    -2.47229854     0.59216174     0.72470825
   19 N                    7.0000    -0.70920351    -0.36839331    -0.27462098
   20 H                    1.0000     0.28319733    -0.29919885    -0.47437507
   21 C                    6.0000    -1.31103919    -1.69039540    -0.49009323
   22 H                    1.0000    -2.36291923    -1.55814361    -0.74041873
   23 C                    6.0000    -0.62127657    -2.39869619    -1.67586366
   24 H                    1.0000    -1.12033961    -3.35645975    -1.83759508
   25 H                    1.0000    -0.78353157    -1.79697876    -2.57122194
   26 C                    6.0000     0.89322957    -2.64938509    -1.53751912
   27 O                    8.0000     1.54854385    -2.00596727    -0.68364226
   28 O                    8.0000     1.39490472    -3.49372488    -2.31453352
   29 C                    6.0000    -1.25165619    -2.58364689     0.76920357
   30 O                    8.0000    -2.05556623    -3.49986885     0.93796360
   31 N                    7.0000    -0.32841718    -2.33078813     1.68975840
   32 H                    1.0000     0.36117905    -1.61531632     1.49969753
   33 H                    1.0000    -0.27911235    -2.91108342     2.50583647

      Atomic Mass 
      ----------- 

      H                  1.007825
      C                 12.000000
      O                 15.994910
      N                 14.003070


 Effective nuclear repulsion energy (a.u.)    1667.1447678153

            Nuclear Dipole moment (a.u.) 
            ----------------------------
        X                 Y               Z
 ---------------- ---------------- ----------------
     0.0000000000    -0.0000000000     0.0000000000



                                Z-matrix (autoz)
                                -------- 

 Units are Angstrom for bonds and degrees for angles

      Type          Name      I     J     K     L     M      Value
      ----------- --------  ----- ----- ----- ----- ----- ----------
    1 Stretch                  1     2                       1.08634
    2 Stretch                  2     3                       1.09022
    3 Stretch                  2     4                       1.08715
    4 Stretch                  2     5                       1.50888
    5 Stretch                  5     6                       1.22741
    6 Stretch                  5     7                       1.32850
    7 Stretch                  7     8                       1.01815
    8 Stretch                  7     9                       1.46889
    9 Stretch                  9    10                       1.08964
   10 Stretch                  9    11                       1.54804
   11 Stretch                  9    17                       1.54609
   12 Stretch                 11    12                       1.09135
   13 Stretch                 11    13                       1.09166
   14 Stretch                 11    14                       1.54312
   15 Stretch                 14    15                       1.25304
   16 Stretch                 14    16                       1.25264
   17 Stretch                 17    18                       1.23180
   18 Stretch                 17    19                       1.33788
   19 Stretch                 19    20                       1.01467
   20 Stretch                 19    21                       1.46844
   21 Stretch                 21    22                       1.08931
   22 Stretch                 21    23                       1.54386
   23 Stretch                 21    29                       1.54507
   24 Stretch                 23    24                       1.09203
   25 Stretch                 23    25                       1.09090
   26 Stretch                 23    26                       1.54133
   27 Stretch                 26    27                       1.25401
   28 Stretch                 26    28                       1.25233
   29 Stretch                 29    30                       1.23053
   30 Stretch                 29    31                       1.32805
   31 Stretch                 31    32                       1.01171
   32 Stretch                 31    33                       1.00258
   33 Bend                     1     2     3               109.44141
   34 Bend                     1     2     4               110.87053
   35 Bend                     1     2     5               109.09948
   36 Bend                     2     5     6               120.22077
   37 Bend                     2     5     7               116.17333
   38 Bend                     3     2     4               109.80204
   39 Bend                     3     2     5               108.19960
   40 Bend                     4     2     5               109.37896
   41 Bend                     5     7     8               119.47164
   42 Bend                     5     7     9               125.29225
   43 Bend                     6     5     7               123.59271
   44 Bend                     7     9    10               107.67159
   45 Bend                     7     9    11               111.14644
   46 Bend                     7     9    17               113.31584
   47 Bend                     8     7     9               114.51706
   48 Bend                     9    11    12               108.88546
   49 Bend                     9    11    13               106.80669
   50 Bend                     9    11    14               118.61673
   51 Bend                     9    17    18               119.93743
   52 Bend                     9    17    19               118.41363
   53 Bend                    10     9    11               106.49443
   54 Bend                    10     9    17               104.79707
   55 Bend                    11     9    17               112.83739
   56 Bend                    11    14    15               120.06832
   57 Bend                    11    14    16               116.07627
   58 Bend                    12    11    13               106.46935
   59 Bend                    12    11    14               108.81791
   60 Bend                    13    11    14               106.58635
   61 Bend                    15    14    16               123.77470
   62 Bend                    17    19    20               117.95015
   63 Bend                    17    19    21               124.79180
   64 Bend                    18    17    19               121.50920
   65 Bend                    19    21    22               108.67387
   66 Bend                    19    21    23               110.03676
   67 Bend                    19    21    29               112.65167
   68 Bend                    20    19    21               115.68090
   69 Bend                    21    23    24               108.17660
   70 Bend                    21    23    25               108.11199
   71 Bend                    21    23    26               116.40294
   72 Bend                    21    29    30               121.13977
   73 Bend                    21    29    31               118.78978
   74 Bend                    22    21    23               108.09686
   75 Bend                    22    21    29               107.13353
   76 Bend                    23    21    29               110.09555
   77 Bend                    23    26    27               119.41598
   78 Bend                    23    26    28               116.58895
   79 Bend                    24    23    25               107.11165
   80 Bend                    24    23    26               108.64455
   81 Bend                    25    23    26               108.03064
   82 Bend                    27    26    28               123.99156
   83 Bend                    29    31    32               118.57270
   84 Bend                    29    31    33               119.22264
   85 Bend                    30    29    31               120.05729
   86 Bend                    32    31    33               121.91887
   87 Torsion                  1     2     5     6          -3.01053
   88 Torsion                  1     2     5     7         175.71516
   89 Torsion                  2     5     7     8           1.79894
   90 Torsion                  2     5     7     9         171.52874
   91 Torsion                  3     2     5     6         115.97748
   92 Torsion                  3     2     5     7         -65.29683
   93 Torsion                  4     2     5     6        -124.44023
   94 Torsion                  4     2     5     7          54.28545
   95 Torsion                  5     7     9    10          33.40898
   96 Torsion                  5     7     9    11         149.68717
   97 Torsion                  5     7     9    17         -82.00741
   98 Torsion                  6     5     7     8        -179.52295
   99 Torsion                  6     5     7     9          -9.79316
  100 Torsion                  7     9    11    12         168.86634
  101 Torsion                  7     9    11    13         -76.53058
  102 Torsion                  7     9    11    14          43.76679
  103 Torsion                  7     9    17    18         171.51116
  104 Torsion                  7     9    17    19          -4.25726
  105 Torsion                  8     7     9    10        -156.41381
  106 Torsion                  8     7     9    11         -40.13562
  107 Torsion                  8     7     9    17          88.16980
  108 Torsion                  9    11    14    15          -9.10739
  109 Torsion                  9    11    14    16         174.03699
  110 Torsion                  9    17    19    20          -1.84681
  111 Torsion                  9    17    19    21         163.17722
  112 Torsion                 10     9    11    12         -74.13425
  113 Torsion                 10     9    11    13          40.46883
  114 Torsion                 10     9    11    14         160.76620
  115 Torsion                 10     9    17    18          54.39837
  116 Torsion                 10     9    17    19        -121.37005
  117 Torsion                 11     9    17    18         -61.06177
  118 Torsion                 11     9    17    19         123.16981
  119 Torsion                 12    11     9    17          40.30404
  120 Torsion                 12    11    14    15        -134.23974
  121 Torsion                 12    11    14    16          48.90464
  122 Torsion                 13    11     9    17         154.90712
  123 Torsion                 13    11    14    15         111.30284
  124 Torsion                 13    11    14    16         -65.55278
  125 Torsion                 14    11     9    17         -84.79551
  126 Torsion                 17    19    21    22          42.90997
  127 Torsion                 17    19    21    23         161.09157
  128 Torsion                 17    19    21    29         -75.64520
  129 Torsion                 18    17    19    20        -177.54554
  130 Torsion                 18    17    19    21         -12.52151
  131 Torsion                 19    21    23    24        -177.49103
  132 Torsion                 19    21    23    25         -61.81868
  133 Torsion                 19    21    23    26          59.91515
  134 Torsion                 19    21    29    30         155.50408
  135 Torsion                 19    21    29    31         -23.17706
  136 Torsion                 20    19    21    22        -151.76238
  137 Torsion                 20    19    21    23         -33.58078
  138 Torsion                 20    19    21    29          89.68244
  139 Torsion                 21    23    26    27         -17.69282
  140 Torsion                 21    23    26    28         162.96071
  141 Torsion                 21    29    31    32          -5.51310
  142 Torsion                 21    29    31    33        -179.49277
  143 Torsion                 22    21    23    24         -58.95413
  144 Torsion                 22    21    23    25          56.71822
  145 Torsion                 22    21    23    26         178.45205
  146 Torsion                 22    21    29    30          36.05127
  147 Torsion                 22    21    29    31        -142.62987
  148 Torsion                 23    21    29    30         -81.26545
  149 Torsion                 23    21    29    31         100.05341
  150 Torsion                 24    23    21    29          57.76273
  151 Torsion                 24    23    26    27        -140.04187
  152 Torsion                 24    23    26    28          40.61166
  153 Torsion                 25    23    21    29         173.43508
  154 Torsion                 25    23    26    27         104.08389
  155 Torsion                 25    23    26    28         -75.26257
  156 Torsion                 26    23    21    29         -64.83109
  157 Torsion                 30    29    31    32         175.79110
  158 Torsion                 30    29    31    33           1.81144


            XYZ format geometry
            -------------------
    33
 geometry
 H                     3.85623060     0.12099648     1.46628311
 C                     3.24390224     0.65272257     0.74347100
 H                     3.13173753     0.04447844    -0.15433029
 H                     3.69114961     1.60971047     0.48648470
 C                     1.87337839     0.88234867     1.33139807
 O                     1.59367308     0.43500146     2.43962703
 N                     1.03339177     1.60240006     0.59596454
 H                     1.32885411     1.93644607    -0.31931480
 C                    -0.39299545     1.80012287     0.88571303
 H                    -0.51147303     1.81556673     1.96878161
 C                    -0.88212140     3.17549585     0.37040539
 H                    -1.97184184     3.20495469     0.42219860
 H                    -0.51837025     3.92459894     1.07627695
 C                    -0.43775683     3.63975252    -1.03252579
 O                     0.43501499     2.99561041    -1.65978991
 O                    -0.95201211     4.70328838    -1.44910588
 C                    -1.28253724     0.62932953     0.40783822
 O                    -2.47229854     0.59216174     0.72470825
 N                    -0.70920351    -0.36839331    -0.27462098
 H                     0.28319733    -0.29919885    -0.47437507
 C                    -1.31103919    -1.69039540    -0.49009323
 H                    -2.36291923    -1.55814361    -0.74041873
 C                    -0.62127657    -2.39869619    -1.67586366
 H                    -1.12033961    -3.35645975    -1.83759508
 H                    -0.78353157    -1.79697876    -2.57122194
 C                     0.89322957    -2.64938509    -1.53751912
 O                     1.54854385    -2.00596727    -0.68364226
 O                     1.39490472    -3.49372488    -2.31453352
 C                    -1.25165619    -2.58364689     0.76920357
 O                    -2.05556623    -3.49986885     0.93796360
 N                    -0.32841718    -2.33078813     1.68975840
 H                     0.36117905    -1.61531632     1.49969753
 H                    -0.27911235    -2.91108342     2.50583647

 ==============================================================================
                                internuclear distances
 ------------------------------------------------------------------------------
       center one      |      center two      | atomic units |  angstroms
 ------------------------------------------------------------------------------
    2 C                |   1 H                |     2.05289  |     1.08634
    3 H                |   2 C                |     2.06023  |     1.09022
    4 H                |   2 C                |     2.05442  |     1.08715
    5 C                |   2 C                |     2.85137  |     1.50888
    6 O                |   5 C                |     2.31946  |     1.22741
    7 N                |   5 C                |     2.51050  |     1.32850
    8 H                |   7 N                |     1.92402  |     1.01815
    9 C                |   7 N                |     2.77579  |     1.46889
   10 H                |   9 C                |     2.05912  |     1.08964
   11 C                |   9 C                |     2.92538  |     1.54804
   12 H                |  11 C                |     2.06235  |     1.09135
   13 H                |  11 C                |     2.06294  |     1.09166
   14 C                |  11 C                |     2.91607  |     1.54312
   15 O                |  14 C                |     2.36790  |     1.25304
   16 O                |  14 C                |     2.36715  |     1.25264
   17 C                |   9 C                |     2.92169  |     1.54609
   18 O                |  17 C                |     2.32776  |     1.23180
   19 N                |  17 C                |     2.52822  |     1.33788
   20 H                |  19 N                |     1.91744  |     1.01467
   21 C                |  19 N                |     2.77495  |     1.46844
   22 H                |  21 C                |     2.05850  |     1.08931
   23 C                |  21 C                |     2.91748  |     1.54386
   24 H                |  23 C                |     2.06364  |     1.09203
   25 H                |  23 C                |     2.06150  |     1.09090
   26 C                |  23 C                |     2.91270  |     1.54133
   27 O                |  26 C                |     2.36973  |     1.25401
   28 O                |  26 C                |     2.36657  |     1.25233
   29 C                |  21 C                |     2.91977  |     1.54507
   30 O                |  29 C                |     2.32537  |     1.23053
   31 N                |  29 C                |     2.50966  |     1.32805
   32 H                |  31 N                |     1.91186  |     1.01171
   33 H                |  31 N                |     1.89459  |     1.00258
 ------------------------------------------------------------------------------
                         number of included internuclear distances:         32
 ==============================================================================



 ==============================================================================
                                 internuclear angles
 ------------------------------------------------------------------------------
        center 1       |       center 2       |       center 3       |  degrees
 ------------------------------------------------------------------------------
    1 H                |   2 C                |   3 H                |   109.44
    1 H                |   2 C                |   4 H                |   110.87
    1 H                |   2 C                |   5 C                |   109.10
    3 H                |   2 C                |   4 H                |   109.80
    3 H                |   2 C                |   5 C                |   108.20
    4 H                |   2 C                |   5 C                |   109.38
    2 C                |   5 C                |   6 O                |   120.22
    2 C                |   5 C                |   7 N                |   116.17
    6 O                |   5 C                |   7 N                |   123.59
    5 C                |   7 N                |   8 H                |   119.47
    5 C                |   7 N                |   9 C                |   125.29
    8 H                |   7 N                |   9 C                |   114.52
    7 N                |   9 C                |  10 H                |   107.67
    7 N                |   9 C                |  11 C                |   111.15
    7 N                |   9 C                |  17 C                |   113.32
   10 H                |   9 C                |  11 C                |   106.49
   10 H                |   9 C                |  17 C                |   104.80
   11 C                |   9 C                |  17 C                |   112.84
    9 C                |  11 C                |  12 H                |   108.89
    9 C                |  11 C                |  13 H                |   106.81
    9 C                |  11 C                |  14 C                |   118.62
   12 H                |  11 C                |  13 H                |   106.47
   12 H                |  11 C                |  14 C                |   108.82
   13 H                |  11 C                |  14 C                |   106.59
   11 C                |  14 C                |  15 O                |   120.07
   11 C                |  14 C                |  16 O                |   116.08
   15 O                |  14 C                |  16 O                |   123.77
    9 C                |  17 C                |  18 O                |   119.94
    9 C                |  17 C                |  19 N                |   118.41
   18 O                |  17 C                |  19 N                |   121.51
   17 C                |  19 N                |  20 H                |   117.95
   17 C                |  19 N                |  21 C                |   124.79
   20 H                |  19 N                |  21 C                |   115.68
   19 N                |  21 C                |  22 H                |   108.67
   19 N                |  21 C                |  23 C                |   110.04
   19 N                |  21 C                |  29 C                |   112.65
   22 H                |  21 C                |  23 C                |   108.10
   22 H                |  21 C                |  29 C                |   107.13
   23 C                |  21 C                |  29 C                |   110.10
   21 C                |  23 C                |  24 H                |   108.18
   21 C                |  23 C                |  25 H                |   108.11
   21 C                |  23 C                |  26 C                |   116.40
   24 H                |  23 C                |  25 H                |   107.11
   24 H                |  23 C                |  26 C                |   108.64
   25 H                |  23 C                |  26 C                |   108.03
   23 C                |  26 C                |  27 O                |   119.42
   23 C                |  26 C                |  28 O                |   116.59
   27 O                |  26 C                |  28 O                |   123.99
   21 C                |  29 C                |  30 O                |   121.14
   21 C                |  29 C                |  31 N                |   118.79
   30 O                |  29 C                |  31 N                |   120.06
   29 C                |  31 N                |  32 H                |   118.57
   29 C                |  31 N                |  33 H                |   119.22
   32 H                |  31 N                |  33 H                |   121.92
 ------------------------------------------------------------------------------
                            number of included internuclear angles:         54
 ==============================================================================



  library name resolved from: environment
  library file name is: </opt/rit/el9/20230413/app/linux-rhel9-x86_64_v3/gcc-11.2.1/nwchem-7.2.0-oxtctbuhfuzyfaoziquq6bki22grib3g/share/nwchem/libraries/>
  


 Summary of "ao basis" -> "" (cartesian)
 ------------------------------------------------------------------------------
       Tag                 Description            Shells   Functions and Types
 ---------------- ------------------------------  ------  ---------------------
 *                        aug-cc-pvdz                 on all atoms 


                      Basis "ao basis" -> "ao basis" (cartesian)
                      -----
  H (Hydrogen)
  ------------
            Exponent  Coefficients 
       -------------- ---------------------------------------------------------
  1 S  1.30100000E+01  0.019685
  1 S  1.96200000E+00  0.137977
  1 S  4.44600000E-01  0.478148

  2 S  1.22000000E-01  1.000000

  3 S  2.97400000E-02  1.000000

  4 P  7.27000000E-01  1.000000

  5 P  1.41000000E-01  1.000000

  C (Carbon)
  ----------
            Exponent  Coefficients 
       -------------- ---------------------------------------------------------
  1 S  6.66500000E+03  0.000692
  1 S  1.00000000E+03  0.005329
  1 S  2.28000000E+02  0.027077
  1 S  6.47100000E+01  0.101718
  1 S  2.10600000E+01  0.274740
  1 S  7.49500000E+00  0.448564
  1 S  2.79700000E+00  0.285074
  1 S  5.21500000E-01  0.015204

  2 S  6.66500000E+03 -0.000146
  2 S  1.00000000E+03 -0.001154
  2 S  2.28000000E+02 -0.005725
  2 S  6.47100000E+01 -0.023312
  2 S  2.10600000E+01 -0.063955
  2 S  7.49500000E+00 -0.149981
  2 S  2.79700000E+00 -0.127262
  2 S  5.21500000E-01  0.544529

  3 S  1.59600000E-01  1.000000

  4 S  4.69000000E-02  1.000000

  5 P  9.43900000E+00  0.038109
  5 P  2.00200000E+00  0.209480
  5 P  5.45600000E-01  0.508557

  6 P  1.51700000E-01  1.000000

  7 P  4.04100000E-02  1.000000

  8 D  5.50000000E-01  1.000000

  9 D  1.51000000E-01  1.000000

  O (Oxygen)
  ----------
            Exponent  Coefficients 
       -------------- ---------------------------------------------------------
  1 S  1.17200000E+04  0.000710
  1 S  1.75900000E+03  0.005470
  1 S  4.00800000E+02  0.027837
  1 S  1.13700000E+02  0.104800
  1 S  3.70300000E+01  0.283062
  1 S  1.32700000E+01  0.448719
  1 S  5.02500000E+00  0.270952
  1 S  1.01300000E+00  0.015458

  2 S  1.17200000E+04 -0.000160
  2 S  1.75900000E+03 -0.001263
  2 S  4.00800000E+02 -0.006267
  2 S  1.13700000E+02 -0.025716
  2 S  3.70300000E+01 -0.070924
  2 S  1.32700000E+01 -0.165411
  2 S  5.02500000E+00 -0.116955
  2 S  1.01300000E+00  0.557368

  3 S  3.02300000E-01  1.000000

  4 S  7.89600000E-02  1.000000

  5 P  1.77000000E+01  0.043018
  5 P  3.85400000E+00  0.228913
  5 P  1.04600000E+00  0.508728

  6 P  2.75300000E-01  1.000000

  7 P  6.85600000E-02  1.000000

  8 D  1.18500000E+00  1.000000

  9 D  3.32000000E-01  1.000000

  N (Nitrogen)
  ------------
            Exponent  Coefficients 
       -------------- ---------------------------------------------------------
  1 S  9.04600000E+03  0.000700
  1 S  1.35700000E+03  0.005389
  1 S  3.09300000E+02  0.027406
  1 S  8.77300000E+01  0.103207
  1 S  2.85600000E+01  0.278723
  1 S  1.02100000E+01  0.448540
  1 S  3.83800000E+00  0.278238
  1 S  7.46600000E-01  0.015440

  2 S  9.04600000E+03 -0.000153
  2 S  1.35700000E+03 -0.001208
  2 S  3.09300000E+02 -0.005992
  2 S  8.77300000E+01 -0.024544
  2 S  2.85600000E+01 -0.067459
  2 S  1.02100000E+01 -0.158078
  2 S  3.83800000E+00 -0.121831
  2 S  7.46600000E-01  0.549003

  3 S  2.24800000E-01  1.000000

  4 S  6.12400000E-02  1.000000

  5 P  1.35500000E+01  0.039919
  5 P  2.91700000E+00  0.217169
  5 P  7.97300000E-01  0.510319

  6 P  2.18500000E-01  1.000000

  7 P  5.61100000E-02  1.000000

  8 D  8.17000000E-01  1.000000

  9 D  2.30000000E-01  1.000000



 Summary of "ao basis" -> "ao basis" (cartesian)
 ------------------------------------------------------------------------------
       Tag                 Description            Shells   Functions and Types
 ---------------- ------------------------------  ------  ---------------------
 H                        aug-cc-pvdz                5        9   3s2p
 C                        aug-cc-pvdz                9       25   4s3p2d
 O                        aug-cc-pvdz                9       25   4s3p2d
 N                        aug-cc-pvdz                9       25   4s3p2d


                                 NWChem SCF Module
                                 -----------------



  ao basis        = "ao basis"
  functions       =   617
  atoms           =    33
  closed shells   =    75
  open shells     =     0
  charge          =   0.00
  wavefunction    = RHF 
  input vectors   = atomic
  output vectors  = ./ASP_ASP_2.movecs
  use symmetry    = F
  symmetry adapt  = F


 Summary of "ao basis" -> "ao basis" (cartesian)
 ------------------------------------------------------------------------------
       Tag                 Description            Shells   Functions and Types
 ---------------- ------------------------------  ------  ---------------------
 H                        aug-cc-pvdz                5        9   3s2p
 C                        aug-cc-pvdz                9       25   4s3p2d
 O                        aug-cc-pvdz                9       25   4s3p2d
 N                        aug-cc-pvdz                9       25   4s3p2d



 Forming initial guess at       0.6s


 !! The overlap matrix has   4 vectors deemed linearly dependent with
    eigenvalues:
 3.74D-06 3.88D-06 7.29D-06 8.05D-06


      Superposition of Atomic Density Guess
      -------------------------------------

 Sum of atomic energies:       -1069.43740700

      Non-variational initial energy
      ------------------------------

 Total energy =   -1080.509719
 1-e energy   =   -4776.378208
 2-e energy   =    2028.723721
 HOMO         =      -0.310213
 LUMO         =      -0.307711


 Starting SCF solution at     221.0s



 ----------------------------------------------
         Quadratically convergent ROHF

 Convergence threshold     :          1.000E-04
 Maximum no. of iterations :           30
 Final Fock-matrix accuracy:          1.000E-10
 ----------------------------------------------


              iter       energy          gnorm     gmax       time
             ----- ------------------- --------- --------- --------
                 1    -1072.6558557859  3.59D+00  2.45D-01    443.4
  Setting level-shift to   2.95 to force positive preconditioner
                 2    -1073.3504321669  1.11D+00  7.01D-02    666.9
  ga_iter_lsolve: convergence stagnant ... aborting solve

 Disabled NR: increased maxiter to  40

                 3    -1073.4241384682  5.93D-01  5.36D-02   1768.9
                 4    -1073.4473777763  3.36D-01  3.02D-02   2215.4
                 5    -1073.4550239124  1.77D-01  2.56D-02   2438.6
                 6    -1073.4609953732  2.27D-01  2.08D-02   2884.8
                 7    -1073.4671470383  1.99D-01  2.19D-02   3331.1
                 8    -1073.4705542928  1.32D-01  2.15D-02   3554.4
                 9    -1073.4721008630  1.02D-01  1.10D-02   4000.7
                10    -1073.4735158061  7.14D-02  6.38D-03   4223.9
                11    -1073.4740947478  5.22D-02  6.85D-03   4447.0
                12    -1073.4743005457  4.14D-02  6.28D-03   4893.2
                13    -1073.4744766166  3.34D-02  6.11D-03   5116.3
                14    -1073.4746575456  3.60D-02  5.35D-03   5562.4
                15    -1073.4748658077  4.28D-02  5.82D-03   6008.6
                16    -1073.4750844505  4.74D-02  5.60D-03   6454.7
                17    -1073.4754053201  4.73D-02  5.68D-03   6900.9
                18    -1073.4757278326  4.36D-02  5.46D-03   7347.1
                19    -1073.4759410562  4.38D-02  6.49D-03   7570.2
                20    -1073.4761382550  3.59D-02  5.03D-03   8016.3
                21    -1073.4763601394  3.51D-02  4.68D-03   8462.5
                22    -1073.4765263760  3.67D-02  6.07D-03   8685.6
                23    -1073.4767252578  4.76D-02  6.92D-03   8908.8
                24    -1073.4770626806  5.16D-02  7.08D-03   9354.9
                25    -1073.4773446983  5.10D-02  5.80D-03   9578.1
                26    -1073.4775977866  4.56D-02  8.56D-03  10024.4
                27    -1073.4778454109  3.96D-02  5.47D-03  10470.9
                28    -1073.4781261382  4.22D-02  7.27D-03  10917.2
                29    -1073.4783235385  3.69D-02  6.72D-03  11363.5
                30    -1073.4786106372  4.25D-02  5.47D-03  11586.7
                31    -1073.4790087425  4.80D-02  7.75D-03  12033.0
                32    -1073.4792955882  6.35D-02  7.94D-03  12479.1
                33    -1073.4796754634  4.39D-02  9.91D-03  12925.3
                34    -1073.4802863702  7.02D-02  8.80D-03  13371.5
                35    -1073.4806866637  6.17D-02  1.25D-02  13817.6
                36    -1073.4811341116  6.12D-02  6.39D-03  14263.8
                37    -1073.4816522697  4.88D-02  7.88D-03  14710.0
                38    -1073.4818956542  4.66D-02  1.09D-02  14933.1
                39    -1073.4821096468  3.96D-02  4.74D-03  15379.3
                40    -1073.4822998951  2.85D-02  5.30D-03  15602.6

      Calculation failed to converge
      ------------------------------



       Final RHF  results 
       ------------------ 

         Total SCF energy =  -1073.482299895056
      One-electron energy =  -4783.096478919339
      Two-electron energy =   2042.469411208978
 Nuclear repulsion energy =   1667.144767815304

        Time for solution =  15382.6s


             Final eigenvalues
             -----------------

              1      
    1  -20.6537
    2  -20.6476
    3  -20.6384
    4  -20.6351
    5  -20.5970
    6  -20.5791
    7  -20.5683
    8  -15.6901
    9  -15.6455
   10  -15.6437
   11  -11.4243
   12  -11.4157
   13  -11.4150
   14  -11.4080
   15  -11.3904
   16  -11.3585
   17  -11.3456
   18  -11.3043
   19  -11.2927
   20  -11.2627
   21   -1.4915
   22   -1.4852
   23   -1.4494
   24   -1.4296
   25   -1.4245
   26   -1.3811
   27   -1.3752
   28   -1.3188
   29   -1.2872
   30   -1.2616
   31   -1.1229
   32   -1.1002
   33   -1.0278
   34   -0.9889
   35   -0.9519
   36   -0.8789
   37   -0.8536
   38   -0.8510
   39   -0.8149
   40   -0.8031
   41   -0.7944
   42   -0.7715
   43   -0.7436
   44   -0.7185
   45   -0.7164
   46   -0.7150
   47   -0.7123
   48   -0.7014
   49   -0.6867
   50   -0.6745
   51   -0.6687
   52   -0.6556
   53   -0.6489
   54   -0.6405
   55   -0.6278
   56   -0.6212
   57   -0.6115
   58   -0.6071
   59   -0.5894
   60   -0.5827
   61   -0.5693
   62   -0.5664
   63   -0.5577
   64   -0.5524
   65   -0.5263
   66   -0.5182
   67   -0.4976
   68   -0.4903
   69   -0.4891
   70   -0.4809
   71   -0.4595
   72   -0.4468
   73   -0.4310
   74   -0.4190
   75   -0.3738
   76   -0.2834
   77    0.0259
   78    0.0317
   79    0.0378
   80    0.0389
   81    0.0529
   82    0.0540
   83    0.0577
   84    0.0617
   85    0.0641

                       ROHF Final Molecular Orbital Analysis
                       -------------------------------------

 Vector   21  Occ=2.000000D+00  E=-1.491465D+00
              MO Center=  1.3D+00, -2.6D+00, -1.4D+00, r^2= 1.2D+00
   Bfn.  Coefficient  Atom+Function         Bfn.  Coefficient  Atom+Function  
  ----- ------------  ---------------      ----- ------------  ---------------
   477      0.318796  27 O  s               476      0.296493  27 O  s         
   502      0.261202  28 O  s               451      0.253004  26 C  s         
   501      0.240636  28 O  s               453     -0.196368  26 C  s         

 Vector   22  Occ=2.000000D+00  E=-1.485207D+00
              MO Center= -2.2D-01,  3.7D+00, -1.4D+00, r^2= 1.2D+00
   Bfn.  Coefficient  Atom+Function         Bfn.  Coefficient  Atom+Function  
  ----- ------------  ---------------      ----- ------------  ---------------
   241      0.314228  15 O  s               240      0.294607  15 O  s         
   266      0.260991  16 O  s               215      0.252037  14 C  s         
   265      0.243975  16 O  s               217     -0.216950  14 C  s         

 Vector   23  Occ=2.000000D+00  E=-1.449399D+00
              MO Center= -1.7D+00,  3.1D-01,  5.2D-01, r^2= 1.9D+00
   Bfn.  Coefficient  Atom+Function         Bfn.  Coefficient  Atom+Function  
  ----- ------------  ---------------      ----- ------------  ---------------
   316      0.347692  18 O  s               315      0.327415  18 O  s         
   290      0.238557  17 C  s         

 Vector   24  Occ=2.000000D+00  E=-1.429587D+00
              MO Center= -1.6D+00, -2.9D+00,  9.4D-01, r^2= 1.6D+00
   Bfn.  Coefficient  Atom+Function         Bfn.  Coefficient  Atom+Function  
  ----- ------------  ---------------      ----- ------------  ---------------
   552      0.375173  30 O  s               551      0.344340  30 O  s         
   526      0.242240  29 C  s         

 Vector   25  Occ=2.000000D+00  E=-1.424460D+00
              MO Center=  1.5D+00,  6.9D-01,  1.8D+00, r^2= 1.5D+00
   Bfn.  Coefficient  Atom+Function         Bfn.  Coefficient  Atom+Function  
  ----- ------------  ---------------      ----- ------------  ---------------
    80      0.356253   6 O  s                79      0.342872   6 O  s         
    54      0.242673   5 C  s               139     -0.170059   9 C  s         
   291      0.165920  17 C  s         

 Vector   26  Occ=2.000000D+00  E=-1.381135D+00
              MO Center=  1.3D+00, -2.8D+00, -1.6D+00, r^2= 1.5D+00
   Bfn.  Coefficient  Atom+Function         Bfn.  Coefficient  Atom+Function  
  ----- ------------  ---------------      ----- ------------  ---------------
   502      0.368438  28 O  s               501      0.331744  28 O  s         
   477     -0.297860  27 O  s               476     -0.283537  27 O  s         
   456     -0.185938  26 C  pz              455     -0.172422  26 C  py        

 Vector   27  Occ=2.000000D+00  E=-1.375172D+00
              MO Center= -3.7D-01,  3.9D+00, -1.4D+00, r^2= 1.4D+00
   Bfn.  Coefficient  Atom+Function         Bfn.  Coefficient  Atom+Function  
  ----- ------------  ---------------      ----- ------------  ---------------
   266      0.363019  16 O  s               265      0.329691  16 O  s         
   241     -0.305582  15 O  s               240     -0.286869  15 O  s         
   219      0.199328  14 C  py              218     -0.155230  14 C  px        
   139      0.152758   9 C  s         

 Vector   28  Occ=2.000000D+00  E=-1.318757D+00
              MO Center= -8.8D-01, -2.5D-01,  9.4D-02, r^2= 2.8D+00
   Bfn.  Coefficient  Atom+Function         Bfn.  Coefficient  Atom+Function  
  ----- ------------  ---------------      ----- ------------  ---------------
   341      0.322752  19 N  s               340      0.315164  19 N  s         
   316     -0.242511  18 O  s               315     -0.195287  18 O  s         
   375     -0.171385  21 C  s               293      0.153782  17 C  px        

 Vector   29  Occ=2.000000D+00  E=-1.287196D+00
              MO Center=  8.1D-01,  1.1D+00,  8.2D-01, r^2= 3.1D+00
   Bfn.  Coefficient  Atom+Function         Bfn.  Coefficient  Atom+Function  
  ----- ------------  ---------------      ----- ------------  ---------------
   105      0.379866   7 N  s               104      0.325049   7 N  s         
    80     -0.212055   6 O  s                79     -0.176548   6 O  s         
   341     -0.166509  19 N  s               139     -0.164669   9 C  s         
    59     -0.152721   5 C  pz        

 Vector   30  Occ=2.000000D+00  E=-1.261565D+00
              MO Center= -6.1D-01, -2.2D+00,  1.3D+00, r^2= 2.1D+00
   Bfn.  Coefficient  Atom+Function         Bfn.  Coefficient  Atom+Function  
  ----- ------------  ---------------      ----- ------------  ---------------
   577      0.369219  31 N  s               576      0.361884  31 N  s         
   552     -0.207133  30 O  s               375     -0.171697  21 C  s         
   551     -0.171501  30 O  s               341     -0.163679  19 N  s         
   529      0.162951  29 C  px              600      0.159228  32 H  s         
   528      0.155526  29 C  s               609      0.154649  33 H  s         

 Vector   31  Occ=2.000000D+00  E=-1.122868D+00
              MO Center= -5.8D-01, -6.2D-01, -3.3D-01, r^2= 6.3D+00
   Bfn.  Coefficient  Atom+Function         Bfn.  Coefficient  Atom+Function  
  ----- ------------  ---------------      ----- ------------  ---------------
   374      0.210412  21 C  s               408      0.209473  23 C  s         

 Vector   32  Occ=2.000000D+00  E=-1.100235D+00
              MO Center= -2.8D-01,  9.5D-01,  8.1D-02, r^2= 7.7D+00
   Bfn.  Coefficient  Atom+Function         Bfn.  Coefficient  Atom+Function  
  ----- ------------  ---------------      ----- ------------  ---------------
   172      0.219266  11 C  s               138      0.195662   9 C  s         
   408      0.163319  23 C  s                12     -0.153100   2 C  s         

 Vector   33  Occ=2.000000D+00  E=-1.027752D+00
              MO Center=  2.1D+00,  1.3D+00,  6.8D-01, r^2= 5.1D+00
   Bfn.  Coefficient  Atom+Function         Bfn.  Coefficient  Atom+Function  
  ----- ------------  ---------------      ----- ------------  ---------------
    11      0.313080   2 C  s               172      0.168716  11 C  s         
    55      0.164632   5 C  s                57      0.152998   5 C  px        
   144     -0.150845   9 C  px        

 Vector   34  Occ=2.000000D+00  E=-9.889058D-01
              MO Center= -4.3D-01, -1.0D+00, -5.9D-01, r^2= 7.2D+00
   Bfn.  Coefficient  Atom+Function         Bfn.  Coefficient  Atom+Function  
  ----- ------------  ---------------      ----- ------------  ---------------
   409      0.257835  23 C  s               408      0.220656  23 C  s         
   382     -0.192141  21 C  pz              374     -0.162375  21 C  s         
   414      0.151145  23 C  px        

 Vector   35  Occ=2.000000D+00  E=-9.519281D-01
              MO Center= -3.3D-01,  7.7D-01,  2.1D-01, r^2= 8.4D+00
   Bfn.  Coefficient  Atom+Function         Bfn.  Coefficient  Atom+Function  
  ----- ------------  ---------------      ----- ------------  ---------------
   375     -0.229620  21 C  s               173      0.214065  11 C  s         
   138     -0.190686   9 C  s               172      0.155817  11 C  s         

 Vector   36  Occ=2.000000D+00  E=-8.788771D-01
              MO Center= -5.3D-01, -2.3D-01,  1.5D-01, r^2= 5.2D+00
   Bfn.  Coefficient  Atom+Function         Bfn.  Coefficient  Atom+Function  
  ----- ------------  ---------------      ----- ------------  ---------------
   375      0.233268  21 C  s               364     -0.203514  20 H  s         
   343     -0.199361  19 N  px              344      0.193581  19 N  py        
   290      0.179657  17 C  s               297     -0.174010  17 C  py        
   316     -0.163378  18 O  s               345      0.160824  19 N  pz        

 Vector   37  Occ=2.000000D+00  E=-8.536403D-01
              MO Center= -6.9D-01, -1.8D+00,  5.1D-01, r^2= 4.0D+00
   Bfn.  Coefficient  Atom+Function         Bfn.  Coefficient  Atom+Function  
  ----- ------------  ---------------      ----- ------------  ---------------
   291      0.244525  17 C  s               581      0.225585  31 N  pz        
   534     -0.220074  29 C  pz              343     -0.211788  19 N  px        
   609      0.197632  33 H  s               382     -0.194480  21 C  pz        
   526     -0.193312  29 C  s               381      0.187485  21 C  py        
   364     -0.183432  20 H  s               579      0.176224  31 N  px        

 Vector   38  Occ=2.000000D+00  E=-8.509576D-01
              MO Center=  9.3D-01,  1.4D+00,  6.3D-01, r^2= 3.3D+00
   Bfn.  Coefficient  Atom+Function         Bfn.  Coefficient  Atom+Function  
  ----- ------------  ---------------      ----- ------------  ---------------
   109      0.280171   7 N  pz              128     -0.264654   8 H  s         
    55      0.205253   5 C  s               105     -0.204315   7 N  s         
    54      0.189585   5 C  s               108     -0.185855   7 N  py        
   129     -0.176183   8 H  s                80     -0.162945   6 O  s         
    60     -0.158197   5 C  px        

 Vector   39  Occ=2.000000D+00  E=-8.148905D-01
              MO Center=  4.5D-01, -1.2D+00, -8.5D-01, r^2= 7.9D+00
   Bfn.  Coefficient  Atom+Function         Bfn.  Coefficient  Atom+Function  
  ----- ------------  ---------------      ----- ------------  ---------------
   477     -0.233760  27 O  s               451      0.224265  26 C  s         
   502     -0.198213  28 O  s               481     -0.174017  27 O  pz        

 Vector   40  Occ=2.000000D+00  E=-8.030673D-01
              MO Center= -2.0D-02,  2.4D+00, -8.7D-01, r^2= 7.9D+00
   Bfn.  Coefficient  Atom+Function         Bfn.  Coefficient  Atom+Function  
  ----- ------------  ---------------      ----- ------------  ---------------
   241     -0.260174  15 O  s               215      0.238832  14 C  s         
   266     -0.211310  16 O  s               243     -0.207952  15 O  px        
   269     -0.177048  16 O  py              216      0.155743  14 C  s         
   244      0.156317  15 O  py              240     -0.150336  15 O  s         

 Vector   41  Occ=2.000000D+00  E=-7.944246D-01
              MO Center= -4.1D-01, -1.7D+00,  8.4D-01, r^2= 5.4D+00
   Bfn.  Coefficient  Atom+Function         Bfn.  Coefficient  Atom+Function  
  ----- ------------  ---------------      ----- ------------  ---------------
   600      0.297889  32 H  s               579      0.250593  31 N  px        
   580      0.250182  31 N  py              527     -0.202754  29 C  s         
   531     -0.201272  29 C  pz              528      0.161333  29 C  s         

 Vector   42  Occ=2.000000D+00  E=-7.714760D-01
              MO Center= -1.2D-01, -2.5D-01,  3.3D-01, r^2= 7.5D+00
   Bfn.  Coefficient  Atom+Function         Bfn.  Coefficient  Atom+Function  
  ----- ------------  ---------------      ----- ------------  ---------------
   144      0.230480   9 C  px              291      0.224565  17 C  s         
   294     -0.198880  17 C  py               55      0.194011   5 C  s         
   145      0.167507   9 C  py              609     -0.155923  33 H  s         
   452     -0.154349  26 C  s               141      0.150024   9 C  px        

 Vector   43  Occ=2.000000D+00  E=-7.435977D-01
              MO Center= -8.0D-01, -5.5D-01,  2.2D-01, r^2= 7.4D+00
   Bfn.  Coefficient  Atom+Function         Bfn.  Coefficient  Atom+Function  
  ----- ------------  ---------------      ----- ------------  ---------------
   318      0.201607  18 O  px              381      0.198500  21 C  py        
   316     -0.189736  18 O  s               344     -0.177819  19 N  py        
   144     -0.175735   9 C  px              378      0.162234  21 C  py        
    55     -0.158649   5 C  s               527      0.156042  29 C  s         

 Vector   44  Occ=2.000000D+00  E=-7.184623D-01
              MO Center=  1.1D-02, -2.1D+00, -4.0D-01, r^2= 6.7D+00
   Bfn.  Coefficient  Atom+Function         Bfn.  Coefficient  Atom+Function  
  ----- ------------  ---------------      ----- ------------  ---------------
   454      0.233738  26 C  px              581     -0.190383  31 N  pz        
   609     -0.190956  33 H  s               480     -0.172882  27 O  py        
   506      0.172193  28 O  pz              411     -0.169533  23 C  px        

 Vector   45  Occ=2.000000D+00  E=-7.164341D-01
              MO Center=  6.3D-01, -2.9D-01, -9.5D-01, r^2= 1.2D+01
   Bfn.  Coefficient  Atom+Function         Bfn.  Coefficient  Atom+Function  
  ----- ------------  ---------------      ----- ------------  ---------------
   479     -0.184708  27 O  px              502      0.183015  28 O  s         
   455      0.176773  26 C  py              220      0.174198  14 C  pz        
   456      0.172107  26 C  pz              505     -0.168621  28 O  py        
   504      0.167314  28 O  px              506     -0.150584  28 O  pz        

 Vector   46  Occ=2.000000D+00  E=-7.150350D-01
              MO Center=  6.6D-01,  1.9D+00,  8.3D-02, r^2= 1.0D+01
   Bfn.  Coefficient  Atom+Function         Bfn.  Coefficient  Atom+Function  
  ----- ------------  ---------------      ----- ------------  ---------------
   269      0.207491  16 O  py               80     -0.183364   6 O  s         
    84     -0.182186   6 O  pz              245      0.180561  15 O  pz        
   219     -0.172825  14 C  py              266      0.165871  16 O  s         

 Vector   47  Occ=2.000000D+00  E=-7.123296D-01
              MO Center=  4.5D-01,  8.3D-02, -8.3D-01, r^2= 1.2D+01
   Bfn.  Coefficient  Atom+Function         Bfn.  Coefficient  Atom+Function  
  ----- ------------  ---------------      ----- ------------  ---------------
   456     -0.190364  26 C  pz              504     -0.188144  28 O  px        
   220      0.179955  14 C  pz              505      0.155844  28 O  py        
   244     -0.154246  15 O  py              177     -0.152061  11 C  pz        

 Vector   48  Occ=2.000000D+00  E=-7.014297D-01
              MO Center=  6.0D-01,  2.5D+00, -5.9D-02, r^2= 9.3D+00
   Bfn.  Coefficient  Atom+Function         Bfn.  Coefficient  Atom+Function  
  ----- ------------  ---------------      ----- ------------  ---------------
   269      0.272160  16 O  py              219     -0.221058  14 C  py        
   266      0.196690  16 O  s               245      0.194566  15 O  pz        
    84      0.179242   6 O  pz               80      0.168870   6 O  s         
    82     -0.164282   6 O  px        

 Vector   49  Occ=2.000000D+00  E=-6.867496D-01
              MO Center= -5.0D-01, -6.4D-01, -3.9D-01, r^2= 9.2D+00
   Bfn.  Coefficient  Atom+Function         Bfn.  Coefficient  Atom+Function  
  ----- ------------  ---------------      ----- ------------  ---------------
   318      0.203640  18 O  px              377      0.161987  21 C  px        
   375     -0.153373  21 C  s         

 Vector   50  Occ=2.000000D+00  E=-6.745409D-01
              MO Center= -3.8D-01,  3.7D-02, -2.1D-01, r^2= 1.1D+01
   Bfn.  Coefficient  Atom+Function         Bfn.  Coefficient  Atom+Function  
  ----- ------------  ---------------      ----- ------------  ---------------
   173      0.192084  11 C  s               143     -0.156644   9 C  pz        
   555     -0.155486  30 O  py              441     -0.151903  25 H  s         

 Vector   51  Occ=2.000000D+00  E=-6.686556D-01
              MO Center= -1.0D+00, -1.9D-01,  5.4D-01, r^2= 8.2D+00
   Bfn.  Coefficient  Atom+Function         Bfn.  Coefficient  Atom+Function  
  ----- ------------  ---------------      ----- ------------  ---------------
   318      0.280550  18 O  px              293     -0.241586  17 C  px        
   316     -0.187800  18 O  s               320     -0.157238  18 O  pz        

 Vector   52  Occ=2.000000D+00  E=-6.556441D-01
              MO Center=  5.7D-01,  9.6D-01,  6.4D-01, r^2= 9.4D+00
   Bfn.  Coefficient  Atom+Function         Bfn.  Coefficient  Atom+Function  
  ----- ------------  ---------------      ----- ------------  ---------------
   163      0.178709  10 H  s                15      0.177354   2 C  py        
    58      0.172631   5 C  py              205     -0.161530  13 H  s         
   106     -0.153845   7 N  s         

 Vector   53  Occ=2.000000D+00  E=-6.488798D-01
              MO Center= -5.7D-01, -5.9D-01, -1.0D-01, r^2= 1.1D+01
   Bfn.  Coefficient  Atom+Function         Bfn.  Coefficient  Atom+Function  
  ----- ------------  ---------------      ----- ------------  ---------------
   555     -0.184834  30 O  py              399      0.170280  22 H  s         
   344      0.157424  19 N  py              342     -0.152995  19 N  s         
   398      0.153584  22 H  s         

 Vector   54  Occ=2.000000D+00  E=-6.405264D-01
              MO Center= -5.2D-02, -6.0D-01,  4.5D-01, r^2= 1.0D+01
   Bfn.  Coefficient  Atom+Function         Bfn.  Coefficient  Atom+Function  
  ----- ------------  ---------------      ----- ------------  ---------------
   554     -0.209275  30 O  px              530      0.198728  29 C  py        
   173      0.150253  11 C  s         

 Vector   55  Occ=2.000000D+00  E=-6.277744D-01
              MO Center= -6.8D-01, -2.1D+00, -4.8D-01, r^2= 5.1D+00
   Bfn.  Coefficient  Atom+Function         Bfn.  Coefficient  Atom+Function  
  ----- ------------  ---------------      ----- ------------  ---------------
   377      0.225295  21 C  px              412      0.205230  23 C  py        
   398     -0.182396  22 H  s               505      0.159835  28 O  py        
   432     -0.153959  24 H  s         

 Vector   56  Occ=2.000000D+00  E=-6.212104D-01
              MO Center=  5.1D-02,  9.9D-01,  2.8D-01, r^2= 1.0D+01
   Bfn.  Coefficient  Atom+Function         Bfn.  Coefficient  Atom+Function  
  ----- ------------  ---------------      ----- ------------  ---------------
   139      0.186922   9 C  s               293     -0.150928  17 C  px        

 Vector   57  Occ=2.000000D+00  E=-6.114837D-01
              MO Center=  2.2D-03,  5.2D-01,  2.3D-01, r^2= 1.1D+01
   Bfn.  Coefficient  Atom+Function         Bfn.  Coefficient  Atom+Function  
  ----- ------------  ---------------      ----- ------------  ---------------
   139      0.221735   9 C  s                16     -0.183432   2 C  pz        
   382      0.168642  21 C  pz              176     -0.152831  11 C  py        

 Vector   58  Occ=2.000000D+00  E=-6.070596D-01
              MO Center=  9.4D-01,  8.2D-01,  1.0D+00, r^2= 6.7D+00
   Bfn.  Coefficient  Atom+Function         Bfn.  Coefficient  Atom+Function  
  ----- ------------  ---------------      ----- ------------  ---------------
    84      0.265016   6 O  pz               59     -0.194540   5 C  pz        
   143     -0.173777   9 C  pz              129     -0.170191   8 H  s         
   128     -0.168888   8 H  s               162     -0.163204  10 H  s         
   173      0.162009  11 C  s         

 Vector   59  Occ=2.000000D+00  E=-5.893684D-01
              MO Center=  1.6D+00,  1.9D-01,  3.3D-01, r^2= 1.0D+01
   Bfn.  Coefficient  Atom+Function         Bfn.  Coefficient  Atom+Function  
  ----- ------------  ---------------      ----- ------------  ---------------
     1      0.277583   1 H  s                 2      0.275524   1 H  s         
    15     -0.232159   2 C  py               16      0.193898   2 C  pz        
    44     -0.189510   4 H  s                56     -0.168994   5 C  s         
   173     -0.163167  11 C  s                13     -0.153626   2 C  s         

 Vector   60  Occ=2.000000D+00  E=-5.827318D-01
              MO Center=  5.3D-02, -1.7D+00, -3.8D-01, r^2= 8.6D+00
   Bfn.  Coefficient  Atom+Function         Bfn.  Coefficient  Atom+Function  
  ----- ------------  ---------------      ----- ------------  ---------------
   412      0.230457  23 C  py              432     -0.216188  24 H  s         
   442      0.215843  25 H  s               433     -0.200082  24 H  s         
   528      0.181852  29 C  s               350      0.178014  19 N  py        
   554     -0.154073  30 O  px        

 Vector   61  Occ=2.000000D+00  E=-5.693295D-01
              MO Center= -4.2D-01, -2.1D+00, -5.5D-01, r^2= 6.1D+00
   Bfn.  Coefficient  Atom+Function         Bfn.  Coefficient  Atom+Function  
  ----- ------------  ---------------      ----- ------------  ---------------
   413      0.250669  23 C  pz              441     -0.217335  25 H  s         
   480      0.185263  27 O  py              556      0.181884  30 O  pz        
   433      0.176762  24 H  s               379     -0.151415  21 C  pz        

 Vector   62  Occ=2.000000D+00  E=-5.663648D-01
              MO Center= -3.1D-01,  1.1D+00,  3.6D-01, r^2= 8.8D+00
   Bfn.  Coefficient  Atom+Function         Bfn.  Coefficient  Atom+Function  
  ----- ------------  ---------------      ----- ------------  ---------------
   175      0.176311  11 C  px              176     -0.160316  11 C  py        
   143     -0.158606   9 C  pz                2      0.152824   1 H  s         
     1      0.151608   1 H  s                56     -0.151723   5 C  s         

 Vector   63  Occ=2.000000D+00  E=-5.576992D-01
              MO Center= -6.3D-01,  2.6D+00, -1.8D-01, r^2= 5.9D+00
   Bfn.  Coefficient  Atom+Function         Bfn.  Coefficient  Atom+Function  
  ----- ------------  ---------------      ----- ------------  ---------------
   197     -0.233036  12 H  s               205      0.232550  13 H  s         
   175      0.228101  11 C  px              196     -0.210456  12 H  s         
   206      0.200985  13 H  s               113      0.199253   7 N  px        
   319      0.193350  18 O  py              243     -0.176548  15 O  px        
   176      0.172498  11 C  py              245     -0.163792  15 O  pz        

 Vector   64  Occ=2.000000D+00  E=-5.524001D-01
              MO Center=  1.7D+00,  9.1D-01,  8.2D-01, r^2= 5.7D+00
   Bfn.  Coefficient  Atom+Function         Bfn.  Coefficient  Atom+Function  
  ----- ------------  ---------------      ----- ------------  ---------------
    35      0.242750   3 H  s                36      0.225006   3 H  s         
   108      0.188999   7 N  py               83      0.187318   6 O  py        
    15     -0.180593   2 C  py               45     -0.175171   4 H  s         
    44     -0.169466   4 H  s                16     -0.166927   2 C  pz        
   111      0.165315   7 N  py              139     -0.151008   9 C  s         

 Vector   65  Occ=2.000000D+00  E=-5.262664D-01
              MO Center=  1.1D+00, -2.4D+00, -1.4D+00, r^2= 4.5D+00
   Bfn.  Coefficient  Atom+Function         Bfn.  Coefficient  Atom+Function  
  ----- ------------  ---------------      ----- ------------  ---------------
   506      0.363817  28 O  pz              480      0.341525  27 O  py        
   479     -0.269294  27 O  px              509      0.268374  28 O  pz        
   483      0.266804  27 O  py              482     -0.236920  27 O  px        
   504      0.229027  28 O  px              507      0.194125  28 O  px        
   471      0.186106  26 C  dxz             442     -0.173785  25 H  s         

 Vector   66  Occ=2.000000D+00  E=-5.182058D-01
              MO Center= -2.5D-01,  3.5D+00, -1.2D+00, r^2= 4.3D+00
   Bfn.  Coefficient  Atom+Function         Bfn.  Coefficient  Atom+Function  
  ----- ------------  ---------------      ----- ------------  ---------------
   270      0.359730  16 O  pz              173     -0.324739  11 C  s         
   273      0.294632  16 O  pz              245     -0.291781  15 O  pz        
   244      0.285194  15 O  py              248     -0.257129  15 O  pz        
   247      0.234814  15 O  py              113      0.228884   7 N  px        
   197      0.218004  12 H  s               206      0.211591  13 H  s         

 Vector   67  Occ=2.000000D+00  E=-4.975502D-01
              MO Center= -7.7D-01,  4.9D-01,  5.6D-01, r^2= 7.2D+00
   Bfn.  Coefficient  Atom+Function         Bfn.  Coefficient  Atom+Function  
  ----- ------------  ---------------      ----- ------------  ---------------
   319     -0.382243  18 O  py              139      0.349345   9 C  s         
   322     -0.304631  18 O  py               83      0.212412   6 O  py        
   163     -0.195021  10 H  s               320     -0.170963  18 O  pz        
    86      0.159982   6 O  py              142     -0.153186   9 C  py        

 Vector   68  Occ=2.000000D+00  E=-4.903244D-01
              MO Center=  2.4D-01, -1.2D+00, -9.7D-01, r^2= 1.0D+01
   Bfn.  Coefficient  Atom+Function         Bfn.  Coefficient  Atom+Function  
  ----- ------------  ---------------      ----- ------------  ---------------
   504      0.324692  28 O  px              479      0.254611  27 O  px        
   507      0.228506  28 O  px              411      0.220327  23 C  px        
   399      0.206245  22 H  s               482      0.177412  27 O  px        
   454     -0.164457  26 C  px        

 Vector   69  Occ=2.000000D+00  E=-4.891424D-01
              MO Center= -2.9D-01,  1.6D+00, -7.9D-01, r^2= 1.2D+01
   Bfn.  Coefficient  Atom+Function         Bfn.  Coefficient  Atom+Function  
  ----- ------------  ---------------      ----- ------------  ---------------
   270      0.262457  16 O  pz              245      0.239423  15 O  pz        
   177      0.234761  11 C  pz              504      0.188027  28 O  px        
   273      0.182352  16 O  pz              220     -0.177736  14 C  pz        
   248      0.166282  15 O  pz              268     -0.155088  16 O  px        
   479      0.153723  27 O  px              217     -0.152070  14 C  s         

 Vector   70  Occ=2.000000D+00  E=-4.808888D-01
              MO Center= -1.5D+00, -1.3D+00,  4.8D-01, r^2= 8.3D+00
   Bfn.  Coefficient  Atom+Function         Bfn.  Coefficient  Atom+Function  
  ----- ------------  ---------------      ----- ------------  ---------------
   556      0.396024  30 O  pz              559      0.308319  30 O  pz        
   320     -0.213691  18 O  pz              399     -0.212796  22 H  s         
   375      0.170824  21 C  s               323     -0.164329  18 O  pz        
   348      0.164580  19 N  pz              345      0.163149  19 N  pz        

 Vector   71  Occ=2.000000D+00  E=-4.594592D-01
              MO Center=  1.7D+00,  5.3D-01,  1.9D+00, r^2= 2.8D+00
   Bfn.  Coefficient  Atom+Function         Bfn.  Coefficient  Atom+Function  
  ----- ------------  ---------------      ----- ------------  ---------------
    82      0.492224   6 O  px               85      0.390166   6 O  px        
   105      0.259261   7 N  s                83     -0.210643   6 O  py        
    13      0.207962   2 C  s                17      0.198420   2 C  px        
    63     -0.185702   5 C  px               14      0.179304   2 C  px        
    86     -0.168093   6 O  py              144     -0.164883   9 C  px        

 Vector   72  Occ=2.000000D+00  E=-4.467595D-01
              MO Center= -1.1D+00, -2.2D+00,  1.1D+00, r^2= 4.3D+00
   Bfn.  Coefficient  Atom+Function         Bfn.  Coefficient  Atom+Function  
  ----- ------------  ---------------      ----- ------------  ---------------
   579     -0.248021  31 N  px              580      0.245004  31 N  py        
   554      0.226838  30 O  px              583      0.227493  31 N  py        
   555     -0.209559  30 O  py              410      0.196424  23 C  s         
   556     -0.194966  30 O  pz              582     -0.194221  31 N  px        
   409      0.176857  23 C  s               558     -0.176627  30 O  py        

 Vector   73  Occ=2.000000D+00  E=-4.309813D-01
              MO Center=  4.4D-01,  1.1D+00,  9.9D-01, r^2= 4.8D+00
   Bfn.  Coefficient  Atom+Function         Bfn.  Coefficient  Atom+Function  
  ----- ------------  ---------------      ----- ------------  ---------------
   108      0.338744   7 N  py              111      0.328729   7 N  py        
    83     -0.242222   6 O  py              319     -0.209915  18 O  py        
   106      0.190969   7 N  s                86     -0.189938   6 O  py        
   109      0.172553   7 N  pz              145     -0.169572   9 C  py        
   322     -0.169507  18 O  py              350     -0.155231  19 N  py        

 Vector   74  Occ=2.000000D+00  E=-4.190468D-01
              MO Center= -6.5D-01, -1.7D+00, -1.5D-01, r^2= 7.8D+00
   Bfn.  Coefficient  Atom+Function         Bfn.  Coefficient  Atom+Function  
  ----- ------------  ---------------      ----- ------------  ---------------
   345      0.230349  19 N  pz              348      0.228213  19 N  pz        
   556     -0.198922  30 O  pz              320     -0.191559  18 O  pz        
   505      0.182071  28 O  py              554     -0.168154  30 O  px        
   399      0.153422  22 H  s               555      0.153709  30 O  py        
   559     -0.153555  30 O  pz              323     -0.151670  18 O  pz        

 Vector   75  Occ=2.000000D+00  E=-3.738248D-01
              MO Center=  2.8D-01,  1.0D+00, -1.3D+00, r^2= 1.4D+01
   Bfn.  Coefficient  Atom+Function         Bfn.  Coefficient  Atom+Function  
  ----- ------------  ---------------      ----- ------------  ---------------
   350      0.299604  19 N  py              268      0.270551  16 O  px        
   244     -0.229030  15 O  py              271      0.215719  16 O  px        
   481      0.209868  27 O  pz              505      0.210085  28 O  py        
   243     -0.204588  15 O  px              247     -0.192113  15 O  py        
   484      0.175825  27 O  pz              246     -0.166663  15 O  px        

 Vector   76  Occ=0.000000D+00  E=-2.834290D-01
              MO Center=  1.9D-01,  2.0D-01, -9.8D-01, r^2= 1.3D+01
   Bfn.  Coefficient  Atom+Function         Bfn.  Coefficient  Atom+Function  
  ----- ------------  ---------------      ----- ------------  ---------------
   268     -0.216084  16 O  px              481      0.215492  27 O  pz        
   505      0.205353  28 O  py              244      0.200346  15 O  py        
   528     -0.188726  29 C  s               484      0.179025  27 O  pz        
   243      0.172582  15 O  px              271     -0.172972  16 O  px        
   342      0.169399  19 N  s               247      0.168454  15 O  py        

 Vector   77  Occ=0.000000D+00  E= 2.587523D-02
              MO Center=  1.4D+00,  1.6D+00, -1.1D-01, r^2= 3.2D+01
   Bfn.  Coefficient  Atom+Function         Bfn.  Coefficient  Atom+Function  
  ----- ------------  ---------------      ----- ------------  ---------------
   217      4.766303  14 C  s               528      3.422789  29 C  s         
   147      2.926590   9 C  px              300      2.341419  17 C  py        
    63      2.164632   5 C  px              453      1.989171  26 C  s         
   443     -1.796640  25 H  s                46     -1.766422   4 H  s         
   376      1.616656  21 C  s               207     -1.564665  13 H  s         

 Vector   78  Occ=0.000000D+00  E= 3.170864D-02
              MO Center= -4.8D-01,  1.3D-01, -1.7D+00, r^2= 3.3D+01
   Bfn.  Coefficient  Atom+Function         Bfn.  Coefficient  Atom+Function  
  ----- ------------  ---------------      ----- ------------  ---------------
   300      4.837729  17 C  py              410      4.081006  23 C  s         
   385      3.332995  21 C  pz              443      3.261447  25 H  s         
   528     -3.186041  29 C  s               366     -3.138716  20 H  s         
   419      2.493489  23 C  pz              207     -2.360089  13 H  s         
   147      2.331615   9 C  px              130      1.844598   8 H  s         

 Vector   79  Occ=0.000000D+00  E= 3.782238D-02
              MO Center=  9.7D-01, -1.5D+00,  2.7D+00, r^2= 3.1D+01
   Bfn.  Coefficient  Atom+Function         Bfn.  Coefficient  Atom+Function  
  ----- ------------  ---------------      ----- ------------  ---------------
   217      2.956424  14 C  s               611      2.906532  33 H  s         
   578      2.642881  31 N  s               174     -2.397168  11 C  s         
     3      2.219625   1 H  s               207     -1.890530  13 H  s         
    63     -1.744048   5 C  px              537     -1.603562  29 C  pz        
   350      1.556549  19 N  py              182      1.449072  11 C  py        

 Vector   80  Occ=0.000000D+00  E= 3.889577D-02
              MO Center=  9.6D-01,  1.4D+00,  1.4D+00, r^2= 3.4D+01
   Bfn.  Coefficient  Atom+Function         Bfn.  Coefficient  Atom+Function  
  ----- ------------  ---------------      ----- ------------  ---------------
    63      4.224539   5 C  px              147      3.297021   9 C  px        
   164      2.915430  10 H  s               148     -2.328808   9 C  py        
    37     -2.275260   3 H  s                46     -1.906069   4 H  s         
   149     -1.838301   9 C  pz               12      1.695263   2 C  s         
    56     -1.516645   5 C  s               182     -1.521910  11 C  py        

 Vector   81  Occ=0.000000D+00  E= 5.294315D-02
              MO Center=  7.3D-02, -1.3D+00, -1.1D+00, r^2= 3.6D+01
   Bfn.  Coefficient  Atom+Function         Bfn.  Coefficient  Atom+Function  
  ----- ------------  ---------------      ----- ------------  ---------------
   528      4.350838  29 C  s               217      4.258701  14 C  s         
   578     -4.211046  31 N  s               400      4.067713  22 H  s         
   130     -3.646687   8 H  s               434      3.263995  24 H  s         
    37     -2.858948   3 H  s                 3      2.725452   1 H  s         
   443     -2.660687  25 H  s               174     -2.525608  11 C  s         

 Vector   82  Occ=0.000000D+00  E= 5.401961D-02
              MO Center= -3.8D-01, -4.1D-01, -2.3D-01, r^2= 4.3D+01
   Bfn.  Coefficient  Atom+Function         Bfn.  Coefficient  Atom+Function  
  ----- ------------  ---------------      ----- ------------  ---------------
   198      4.171025  12 H  s               434     -3.837759  24 H  s         
   147     -3.660143   9 C  px              300     -3.344070  17 C  py        
     3      3.001204   1 H  s               217     -2.881591  14 C  s         
   453      2.825841  26 C  s               181      2.810191  11 C  px        
   410     -2.767998  23 C  s                56      2.430716   5 C  s         

 Vector   83  Occ=0.000000D+00  E= 5.769550D-02
              MO Center=  9.1D-01,  4.8D-02,  3.4D-01, r^2= 4.0D+01
   Bfn.  Coefficient  Atom+Function         Bfn.  Coefficient  Atom+Function  
  ----- ------------  ---------------      ----- ------------  ---------------
   217      4.035397  14 C  s               400     -3.773407  22 H  s         
   410      3.509043  23 C  s                46     -3.444966   4 H  s         
   174     -3.437156  11 C  s                 3      3.170975   1 H  s         
   383     -2.920794  21 C  px              528     -2.646391  29 C  s         
   443      2.357206  25 H  s                13      2.259273   2 C  s         

 Vector   84  Occ=0.000000D+00  E= 6.170180D-02
              MO Center=  8.8D-02, -1.9D-01, -8.0D-01, r^2= 4.0D+01
   Bfn.  Coefficient  Atom+Function         Bfn.  Coefficient  Atom+Function  
  ----- ------------  ---------------      ----- ------------  ---------------
    37      5.576472   3 H  s               410      5.193789  23 C  s         
   434      3.933698  24 H  s               443     -3.779735  25 H  s         
   453     -3.701568  26 C  s               198      3.649099  12 H  s         
   418      3.582303  23 C  py               63     -3.142407   5 C  px        
   147     -2.742049   9 C  px              300     -2.753749  17 C  py        

 Vector   85  Occ=0.000000D+00  E= 6.407733D-02
              MO Center=  4.4D-02,  2.0D+00,  1.9D+00, r^2= 3.1D+01
   Bfn.  Coefficient  Atom+Function         Bfn.  Coefficient  Atom+Function  
  ----- ------------  ---------------      ----- ------------  ---------------
   164      7.330124  10 H  s               217      5.012816  14 C  s         
   149     -4.821643   9 C  pz              147      4.761339   9 C  px        
    56     -4.129025   5 C  s               207     -3.913664  13 H  s         
   300      3.308648  17 C  py               37      3.267391   3 H  s         
   183      3.201218  11 C  pz               13     -3.004272   2 C  s         

 Vector   86  Occ=0.000000D+00  E= 7.373984D-02
              MO Center= -8.3D-01,  7.7D-01, -5.7D-01, r^2= 4.1D+01
   Bfn.  Coefficient  Atom+Function         Bfn.  Coefficient  Atom+Function  
  ----- ------------  ---------------      ----- ------------  ---------------
   400      5.570956  22 H  s               198     -4.667951  12 H  s         
    37      4.584587   3 H  s               207      4.542600  13 H  s         
   383      4.301628  21 C  px               46     -3.385855   4 H  s         
   410     -3.349116  23 C  s               181     -2.547211  11 C  px        
   342      2.503742  19 N  s               434     -2.373742  24 H  s         

 Vector   87  Occ=0.000000D+00  E= 8.056122D-02
              MO Center=  1.0D+00,  8.9D-01,  2.1D-02, r^2= 3.8D+01
   Bfn.  Coefficient  Atom+Function         Bfn.  Coefficient  Atom+Function  
  ----- ------------  ---------------      ----- ------------  ---------------
   217      9.149927  14 C  s               130     -6.578905   8 H  s         
   410     -5.082894  23 C  s               602     -4.682559  32 H  s         
    56      4.458022   5 C  s               453      4.479098  26 C  s         
   174     -3.819457  11 C  s               207      3.237322  13 H  s         
    63     -3.183949   5 C  px              164     -3.082662  10 H  s         

 Vector   88  Occ=0.000000D+00  E= 8.799718D-02
              MO Center=  1.2D+00,  3.0D-01, -1.0D+00, r^2= 3.5D+01
   Bfn.  Coefficient  Atom+Function         Bfn.  Coefficient  Atom+Function  
  ----- ------------  ---------------      ----- ------------  ---------------
   366     11.274383  20 H  s               453    -10.397044  26 C  s         
   410      9.646349  23 C  s               217      8.412588  14 C  s         
   174     -7.817570  11 C  s                56     -5.070924   5 C  s         
   130     -4.939719   8 H  s                63      3.812295   5 C  px        
    37     -3.473089   3 H  s               147      3.456170   9 C  px        

 Vector   89  Occ=0.000000D+00  E= 9.448491D-02
              MO Center=  1.8D-01, -1.6D+00,  9.3D-01, r^2= 3.3D+01
   Bfn.  Coefficient  Atom+Function         Bfn.  Coefficient  Atom+Function  
  ----- ------------  ---------------      ----- ------------  ---------------
   528     -9.526505  29 C  s               366      8.852304  20 H  s         
   602     -7.897696  32 H  s               578      5.593246  31 N  s         
[...]
   217     14.740348  14 C  s               366     -9.327869  20 H  s         
   528      8.860461  29 C  s               301      7.755684  17 C  pz        
   147      6.502901   9 C  px              384      6.214575  21 C  py        
   300     -6.096780  17 C  py              537     -5.816733  29 C  pz        
   174     -5.729900  11 C  s               385     -5.482648  21 C  pz        

 Vector  176  Occ=0.000000D+00  E= 4.150937D-01
              MO Center= -4.3D-01,  1.1D+00,  3.7D-01, r^2= 2.1D+01
   Bfn.  Coefficient  Atom+Function         Bfn.  Coefficient  Atom+Function  
  ----- ------------  ---------------      ----- ------------  ---------------
   106     16.023634   7 N  s               528    -15.204536  29 C  s         
   453      8.801184  26 C  s               300     -8.672217  17 C  py        
   385      7.856264  21 C  pz              140      7.601276   9 C  s         
   148      7.362455   9 C  py              114     -6.868438   7 N  py        
   139     -6.679067   9 C  s               578      6.024466  31 N  s         

 Vector  177  Occ=0.000000D+00  E= 4.182711D-01
              MO Center=  1.8D-02,  7.2D-01,  1.3D-01, r^2= 2.3D+01
   Bfn.  Coefficient  Atom+Function         Bfn.  Coefficient  Atom+Function  
  ----- ------------  ---------------      ----- ------------  ---------------
   342     15.433541  19 N  s                56     13.001497   5 C  s         
   366    -11.892420  20 H  s               148     10.482432   9 C  py        
   385     -7.515906  21 C  pz              115     -7.440372   7 N  pz        
   147     -7.317144   9 C  px              114      6.810266   7 N  py        
   300     -5.851980  17 C  py              242     -5.798494  15 O  s         

 Vector  178  Occ=0.000000D+00  E= 4.241388D-01
              MO Center=  6.4D-01, -3.7D-01, -2.1D-01, r^2= 2.1D+01
   Bfn.  Coefficient  Atom+Function         Bfn.  Coefficient  Atom+Function  
  ----- ------------  ---------------      ----- ------------  ---------------
   366     17.108752  20 H  s               410    -17.167925  23 C  s         
   342     14.675542  19 N  s                56     13.401474   5 C  s         
   217    -11.863011  14 C  s               106    -10.381697   7 N  s         
    63     -8.275284   5 C  px              140     -6.901923   9 C  s         
   453     -6.669749  26 C  s               147     -6.517548   9 C  px        

 Vector  179  Occ=0.000000D+00  E= 4.290527D-01
              MO Center=  2.4D-01, -3.9D-01,  3.2D-01, r^2= 2.0D+01
   Bfn.  Coefficient  Atom+Function         Bfn.  Coefficient  Atom+Function  
  ----- ------------  ---------------      ----- ------------  ---------------
   453     19.996781  26 C  s               528    -19.048964  29 C  s         
   385     11.414912  21 C  pz              417     -8.247159  23 C  px        
   342      7.234378  19 N  s               478     -7.013631  27 O  s         
    36     -6.164210   3 H  s               149      6.007260   9 C  pz        
   376     -5.510552  21 C  s                12      5.301406   2 C  s         

 Vector  180  Occ=0.000000D+00  E= 4.299021D-01
              MO Center=  1.6D+00,  4.5D-01,  4.2D-01, r^2= 2.0D+01
   Bfn.  Coefficient  Atom+Function         Bfn.  Coefficient  Atom+Function  
  ----- ------------  ---------------      ----- ------------  ---------------
   148     13.832132   9 C  py               56     13.166065   5 C  s         
   453    -11.659727  26 C  s               342     11.272279  19 N  s         
    12      9.553909   2 C  s                63      7.933891   5 C  px        
   183     -7.671365  11 C  pz              217     -7.588346  14 C  s         
   350      7.447434  19 N  py              147     -7.341428   9 C  px        

 Vector  181  Occ=0.000000D+00  E= 4.360573D-01
              MO Center=  8.1D-01,  8.6D-01,  2.4D-01, r^2= 2.0D+01
   Bfn.  Coefficient  Atom+Function         Bfn.  Coefficient  Atom+Function  
  ----- ------------  ---------------      ----- ------------  ---------------
   528     26.276710  29 C  s               217    -18.556288  14 C  s         
   300    -16.834110  17 C  py              385    -16.765212  21 C  pz        
   410    -15.985857  23 C  s               174     14.602171  11 C  s         
    56     13.390808   5 C  s               147    -12.683317   9 C  px        
   148     12.079381   9 C  py              183    -11.280956  11 C  pz        

 Vector  182  Occ=0.000000D+00  E= 4.389416D-01
              MO Center=  5.3D-01,  7.4D-01,  1.5D-01, r^2= 2.0D+01
   Bfn.  Coefficient  Atom+Function         Bfn.  Coefficient  Atom+Function  
  ----- ------------  ---------------      ----- ------------  ---------------
   300     15.118647  17 C  py              528    -13.532618  29 C  s         
   148    -12.928155   9 C  py               13     11.025612   2 C  s         
   106    -10.765576   7 N  s               385     10.399752  21 C  pz        
   113     -9.876285   7 N  px              410      8.111078  23 C  s         
   174     -7.689329  11 C  s               114      7.561486   7 N  py        

 Vector  183  Occ=0.000000D+00  E= 4.428436D-01
              MO Center= -8.2D-01,  1.8D-01,  1.4D-01, r^2= 1.9D+01
   Bfn.  Coefficient  Atom+Function         Bfn.  Coefficient  Atom+Function  
  ----- ------------  ---------------      ----- ------------  ---------------
   300     19.002444  17 C  py              410     17.930479  23 C  s         
   528    -14.948163  29 C  s               217    -14.396526  14 C  s         
   106    -10.261801   7 N  s               174      9.949464  11 C  s         
   578      9.742794  31 N  s                56     -9.656230   5 C  s         
   149     -7.348526   9 C  pz              442     -6.812192  25 H  s         

 Vector  184  Occ=0.000000D+00  E= 4.473720D-01
              MO Center= -3.3D-01, -5.9D-02,  1.0D-01, r^2= 1.9D+01
   Bfn.  Coefficient  Atom+Function         Bfn.  Coefficient  Atom+Function  
  ----- ------------  ---------------      ----- ------------  ---------------
   453     19.669809  26 C  s               217    -15.136957  14 C  s         
   410     -9.522416  23 C  s               578      9.368956  31 N  s         
   174      8.642609  11 C  s               528     -6.925463  29 C  s         
   385      6.410024  21 C  pz              376     -6.215534  21 C  s         
   417     -5.716931  23 C  px              183     -5.379438  11 C  pz        

 Vector  185  Occ=0.000000D+00  E= 4.503589D-01
              MO Center=  4.9D-01, -1.1D+00, -3.3D-01, r^2= 2.0D+01
   Bfn.  Coefficient  Atom+Function         Bfn.  Coefficient  Atom+Function  
  ----- ------------  ---------------      ----- ------------  ---------------
   453     23.785206  26 C  s               366    -15.444331  20 H  s         
   528     -9.620079  29 C  s               503     -7.919340  28 O  s         
   478     -7.455196  27 O  s               419      5.947611  23 C  pz        
   409     -5.463190  23 C  s               452      5.086131  26 C  s         
   410      5.030823  23 C  s               384      4.761079  21 C  py        

 Vector  186  Occ=0.000000D+00  E= 4.583868D-01
              MO Center= -1.4D-01, -3.1D-01, -2.6D-01, r^2= 1.7D+01
   Bfn.  Coefficient  Atom+Function         Bfn.  Coefficient  Atom+Function  
  ----- ------------  ---------------      ----- ------------  ---------------
   528     10.756135  29 C  s                13      7.918309   2 C  s         
   578     -7.717770  31 N  s               217      6.535821  14 C  s         
    56      5.980475   5 C  s               342     -5.860138  19 N  s         
    63     -5.303588   5 C  px              173     -5.280091  11 C  s         
   292     -4.900821  17 C  s               417      4.697990  23 C  px        

 Vector  187  Occ=0.000000D+00  E= 4.621509D-01
              MO Center=  9.9D-01, -1.3D-02,  6.3D-02, r^2= 2.0D+01
   Bfn.  Coefficient  Atom+Function         Bfn.  Coefficient  Atom+Function  
  ----- ------------  ---------------      ----- ------------  ---------------
   453     20.334638  26 C  s               410    -17.658605  23 C  s         
   300     11.852845  17 C  py              350    -10.906211  19 N  py        
    56    -10.249675   5 C  s               106    -10.225790   7 N  s         
   147      9.722900   9 C  px              342      8.427034  19 N  s         
    63      7.505728   5 C  px              148     -7.211761   9 C  py        

 Vector  188  Occ=0.000000D+00  E= 4.662654D-01
              MO Center=  5.6D-02, -1.1D+00, -3.3D-01, r^2= 1.9D+01
   Bfn.  Coefficient  Atom+Function         Bfn.  Coefficient  Atom+Function  
  ----- ------------  ---------------      ----- ------------  ---------------
   410     32.032579  23 C  s               300    -15.073421  17 C  py        
   147    -13.231627   9 C  px              385     12.955115  21 C  pz        
   528    -10.239916  29 C  s               453     -9.747092  26 C  s         
    13      9.535782   2 C  s               442     -9.455119  25 H  s         
   350      9.083858  19 N  py              578     -9.107015  31 N  s         

 Vector  189  Occ=0.000000D+00  E= 4.692273D-01
              MO Center=  1.7D-01,  5.5D-01,  4.3D-01, r^2= 2.1D+01
   Bfn.  Coefficient  Atom+Function         Bfn.  Coefficient  Atom+Function  
  ----- ------------  ---------------      ----- ------------  ---------------
   106     15.991046   7 N  s               174    -14.996384  11 C  s         
   342     10.346091  19 N  s               300     10.114428  17 C  py        
   453      9.858177  26 C  s                13     -9.255640   2 C  s         
   217      7.876969  14 C  s               206      7.518954  13 H  s         
   197      7.370063  12 H  s               149      7.044034   9 C  pz        

 Vector  190  Occ=0.000000D+00  E= 4.732807D-01
              MO Center= -5.1D-01,  3.4D-01,  1.5D-01, r^2= 2.0D+01
   Bfn.  Coefficient  Atom+Function         Bfn.  Coefficient  Atom+Function  
  ----- ------------  ---------------      ----- ------------  ---------------
   453     11.501651  26 C  s                56     -9.536384   5 C  s         
   174      8.973360  11 C  s                63      8.208988   5 C  px        
    13     -7.930478   2 C  s               292      7.368963  17 C  s         
   385      7.192760  21 C  pz              417     -7.117932  23 C  px        
   384      6.956960  21 C  py              528     -6.899079  29 C  s         

 Vector  191  Occ=0.000000D+00  E= 4.780061D-01
              MO Center= -1.9D-02, -1.6D-01,  1.2D-01, r^2= 2.0D+01
   Bfn.  Coefficient  Atom+Function         Bfn.  Coefficient  Atom+Function  
  ----- ------------  ---------------      ----- ------------  ---------------
   528     23.939483  29 C  s               410    -20.327313  23 C  s         
    56    -16.644397   5 C  s                63     15.311734   5 C  px        
   147     15.215486   9 C  px              385    -13.216611  21 C  pz        
    13    -12.579601   2 C  s               300     12.535673  17 C  py        
   292     12.097254  17 C  s               148    -10.898456   9 C  py        

 Vector  192  Occ=0.000000D+00  E= 4.828503D-01
              MO Center=  2.9D-01,  3.4D-01,  7.6D-02, r^2= 2.1D+01
   Bfn.  Coefficient  Atom+Function         Bfn.  Coefficient  Atom+Function  
  ----- ------------  ---------------      ----- ------------  ---------------
   528    -18.375081  29 C  s               453     16.879358  26 C  s         
    56    -14.760426   5 C  s               385      9.457322  21 C  pz        
    12     -9.306639   2 C  s                36      7.454611   3 H  s         
   197      6.954452  12 H  s               174     -6.664239  11 C  s         
     2      6.588975   1 H  s                13     -6.370233   2 C  s         

 Vector  193  Occ=0.000000D+00  E= 4.895245D-01
              MO Center= -4.1D-01,  3.1D-01,  9.4D-02, r^2= 2.1D+01
   Bfn.  Coefficient  Atom+Function         Bfn.  Coefficient  Atom+Function  
  ----- ------------  ---------------      ----- ------------  ---------------
   410     30.426978  23 C  s               528    -24.476947  29 C  s         
   385     13.473904  21 C  pz               56    -12.744655   5 C  s         
   433     -9.732754  24 H  s               174     -9.386893  11 C  s         
   409      8.147542  23 C  s               147      7.872262   9 C  px        
   366      7.113048  20 H  s               442     -6.728321  25 H  s         

 Vector  194  Occ=0.000000D+00  E= 4.926103D-01
              MO Center= -3.2D-01, -6.8D-01,  4.4D-01, r^2= 1.8D+01
   Bfn.  Coefficient  Atom+Function         Bfn.  Coefficient  Atom+Function  
  ----- ------------  ---------------      ----- ------------  ---------------
   300     24.624408  17 C  py              528     19.552834  29 C  s         
   106    -18.663543   7 N  s                13     17.918691   2 C  s         
    63    -13.365303   5 C  px              140    -10.716275   9 C  s         
   376     10.253584  21 C  s               384      8.920941  21 C  py        
   174     -8.643749  11 C  s               149     -8.145930   9 C  pz        

 Vector  195  Occ=0.000000D+00  E= 4.978583D-01
              MO Center=  6.7D-01, -4.2D-01,  4.5D-01, r^2= 1.7D+01
   Bfn.  Coefficient  Atom+Function         Bfn.  Coefficient  Atom+Function  
  ----- ------------  ---------------      ----- ------------  ---------------
   453      9.203928  26 C  s               350      7.414811  19 N  py        
   174     -7.169228  11 C  s               602     -5.840918  32 H  s         
   342      5.195344  19 N  s               478     -4.804245  27 O  s         
   113      4.531049   7 N  px              114      4.533393   7 N  py        
   197      4.122516  12 H  s               528      4.022351  29 C  s         

 Vector  196  Occ=0.000000D+00  E= 5.020424D-01
              MO Center= -1.9D-01,  9.1D-01,  3.1D-01, r^2= 1.9D+01
   Bfn.  Coefficient  Atom+Function         Bfn.  Coefficient  Atom+Function  
  ----- ------------  ---------------      ----- ------------  ---------------
   106     10.616595   7 N  s               174     -8.041172  11 C  s         
   342      7.753197  19 N  s               115      7.252593   7 N  pz        
   173      7.255212  11 C  s               528      6.403810  29 C  s         
   147     -6.029628   9 C  px               45      5.674446   4 H  s         
   114     -5.528184   7 N  py              148      5.139679   9 C  py        


 center of mass
 --------------
 x =  -0.03332315 y =  -0.00732511 z =  -0.02162991

 moments of inertia (a.u.)
 ------------------
        7972.711259648883           0.000000000001          -0.000000000000
           0.000000000001        3970.205335129993           0.000000000003
          -0.000000000000           0.000000000003        8461.192130357664

  Mulliken analysis of the total density
  --------------------------------------

    Atom       Charge   Shell Charges
 -----------   ------   -------------------------------------------------------
    1 H    1     1.06   0.77  0.32  0.01  0.03 -0.06
    2 C    6     6.08   2.01  0.66  0.25  0.04  2.07  0.91 -0.01  0.06  0.09
    3 H    1     0.88   0.76  0.14  0.01  0.03 -0.05
    4 H    1     0.85   0.77  0.13 -0.00  0.03 -0.08
    5 C    6     5.22   2.01  0.68  0.15 -0.07  1.90  0.33 -0.01  0.24 -0.01
    6 O    8     8.78   2.01  0.82  1.02  0.18  2.78  1.84  0.13  0.01 -0.01
    7 N    7     7.43   2.01  0.72  0.77 -0.13  2.44  1.43  0.13  0.05  0.01
    8 H    1     0.91   0.73  0.20  0.00  0.06 -0.09
    9 C    6     6.45   2.01  0.66  0.01  0.03  1.99  1.36  0.14  0.14  0.12
   10 H    1     1.08   0.77  0.27 -0.01  0.03  0.02
   11 C    6     6.57   2.01  0.66  0.55  0.09  2.04  0.93  0.02  0.08  0.19
   12 H    1     0.84   0.76  0.09  0.00  0.03 -0.05
   13 H    1     0.79   0.77  0.03  0.00  0.03 -0.05
   14 C    6     4.54   2.01  0.67  0.06 -0.26  1.88  0.16 -0.05  0.26 -0.18
   15 O    8     8.58   2.01  0.84  1.00  0.14  2.73  1.77  0.13  0.01 -0.04
   16 O    8     8.57   2.01  0.84  1.02  0.17  2.71  1.72  0.12  0.01 -0.03
   17 C    6     4.64   2.01  0.68  0.06 -0.03  1.90  0.10  0.04  0.23 -0.34
   18 O    8     8.75   2.01  0.83  1.05  0.17  2.76  1.83  0.11  0.01 -0.01
   19 N    7     7.38   2.01  0.73  0.78 -0.20  2.41  1.42  0.17  0.05  0.01
   20 H    1     0.86   0.73  0.21 -0.04  0.06 -0.10
   21 C    6     6.17   2.01  0.67  0.13 -0.01  1.99  1.15 -0.01  0.13  0.11
   22 H    1     1.08   0.77  0.29 -0.01  0.03  0.00
   23 C    6     6.86   2.01  0.66  0.60  0.22  2.04  0.93  0.05  0.08  0.25
   24 H    1     0.83   0.76  0.11  0.00  0.03 -0.07
   25 H    1     0.75   0.77  0.03  0.01  0.03 -0.08
   26 C    6     4.52   2.01  0.67  0.04 -0.25  1.87  0.12 -0.03  0.26 -0.18
   27 O    8     8.58   2.01  0.84  1.00  0.13  2.73  1.78  0.13  0.01 -0.03
   28 O    8     8.61   2.01  0.84  1.03  0.18  2.71  1.73  0.12  0.01 -0.02
   29 C    6     4.51   2.01  0.68  0.04 -0.04  1.89 -0.19  0.02  0.23 -0.13
   30 O    8     8.78   2.01  0.82  1.05  0.19  2.77  1.81  0.13  0.01 -0.00
   31 N    7     7.15   2.01  0.73  0.79 -0.20  2.45  1.22  0.14  0.04 -0.03
   32 H    1     0.85   0.74  0.15 -0.03  0.06 -0.06
   33 H    1     1.03   0.75  0.25 -0.00  0.06 -0.02

       Multipole analysis of the density wrt the origin
       ------------------------------------------------

     L   x y z        total         open         nuclear
     -   - - -        -----         ----         -------
     0   0 0 0     -0.000000      0.000000    150.000000

     1   1 0 0      0.728322      0.000000      0.000000
     1   0 1 0      0.363701      0.000000     -0.000000
     1   0 0 1      0.245073      0.000000      0.000000

     2   2 0 0    -94.306832      0.000000   1207.513670
     2   1 1 0      3.743961      0.000000     15.624909
     2   1 0 1      5.377011      0.000000     17.211849
     2   0 2 0   -105.445865      0.000000   3228.793473
     2   0 1 1      5.245944      0.000000     21.000309
     2   0 0 2    -93.808634      0.000000    918.502272

 ------------------------------------------------------------------------
 scf energy failed                                                                                  0
 ------------------------------------------------------------------------
 ------------------------------------------------------------------------
  current input line : 
    48: task scf energy
 ------------------------------------------------------------------------
 ------------------------------------------------------------------------
 This type of error is most commonly associated with calculations not reaching convergence criteria
 ------------------------------------------------------------------------
 For more information see the NWChem manual at https://nwchemgit.github.io


 For further details see manual section:                                                                                                                                                                                                                                                                
0:scf energy failed:Received an Error in Communication
--------------------------------------------------------------------------
MPI_ABORT was invoked on rank 0 in communicator MPI COMMUNICATOR 3 DUP FROM 0
with errorcode -1.

NOTE: invoking MPI_ABORT causes Open MPI to kill all MPI processes.
You may or may not see output from other processes, depending on
exactly when Open MPI kills them.
--------------------------------------------------------------------------
slurmstepd: error: *** STEP 6619389.93 ON nova21-swift-2 CANCELLED AT 2025-07-10T21:30:58 ***
srun: Job step aborted: Waiting up to 32 seconds for job step to finish.
srun: error: nova21-swift-2: task 0: Exited with exit code 255
srun: error: nova21-swift-2: tasks 1-7: Killed
