export TMOUT=5400
export TMPDIR=/tmp
export PTMPDIR=/tmp/ptmp
 argument  1 = inputs/ASP_GLY_3.nw



============================== echo of input deck ==============================
start ASP_GLY_3
geometry
H          4.49900       10.84700        0.81800
C          5.57500       10.70200        0.75600
H          5.96200       10.36200        1.71500
H          6.05600       11.64000        0.48200
C          5.88100        9.66700       -0.30700
O          6.55300        9.98400       -1.27600
N          5.40900        8.43100       -0.17100
H          5.70600        7.75500       -0.86700
C          4.66100        7.88700        0.97500
H          3.93200        8.62100        1.31600
C          3.87400        6.63300        0.53800
H          3.29700        6.27800        1.39400
H          3.16000        6.93000       -0.23200
C          4.71100        5.46300       -0.00900
O          4.14800        4.35400       -0.09600
O          5.91500        5.65800       -0.30200
C          5.57000        7.55700        2.17700
O          5.19100        7.80400        3.32000
N          6.77700        7.04800        1.91300
H          6.93100        6.80000        0.93800
C          7.69900        6.49000        2.90700
H          8.70900        6.81600        2.66400
H          7.44600        6.86600        3.89800
C          7.70200        4.95500        2.96900
O          8.30100        4.38100        3.87200
N          7.05900        4.25800        2.03900
H          6.59300        4.72800        1.26800
H          7.04700        3.25600        2.10000
end

basis
 * library aug-cc-pvdz
end

echo

scf
 direct
end

task scf energy
================================================================================


                                         
                                         


             Northwest Computational Chemistry Package (NWChem) 7.2.0
             --------------------------------------------------------


                    Environmental Molecular Sciences Laboratory
                       Pacific Northwest National Laboratory
                                Richland, WA 99352

                              Copyright (c) 1994-2022
                       Pacific Northwest National Laboratory
                            Battelle Memorial Institute

             NWChem is an open-source computational chemistry package
                        distributed under the terms of the
                      Educational Community License (ECL) 2.0
             A copy of the license is included with this distribution
                              in the LICENSE.TXT file

                                  ACKNOWLEDGMENT
                                  --------------

            This software and its documentation were developed at the
            EMSL at Pacific Northwest National Laboratory, a multiprogram
            national laboratory, operated for the U.S. Department of Energy
            by Battelle under Contract Number DE-AC05-76RL01830. Support
            for this work was provided by the Department of Energy Office
            of Biological and Environmental Research, Office of Basic
            Energy Sciences, and the Office of Advanced Scientific Computing.


           Job information
           ---------------

    hostname        = nova21-swift-4
    program         = /opt/rit/el9/20230413/app/linux-rhel9-x86_64_v3/gcc-11.2.1/nwchem-7.2.0-oxtctbuhfuzyfaoziquq6bki22grib3g/bin/nwchem
    date            = Fri Jul 11 10:01:43 2025

    compiled        = Wed_May_17_23:46:39_2023
    source          = /tmp/root/spack-stage/spack-stage-nwchem-7.2.0-oxtctbuhfuzyfaoziquq6bki22grib3g/spack-src
    nwchem branch   = 7.2.0
    nwchem revision = d0d141fd
    ga revision     = 5.8.0
    use scalapack   = T
    input           = inputs/ASP_GLY_3.nw
    prefix          = ASP_GLY_3.
    data base       = ./ASP_GLY_3.db
    status          = startup
    nproc           =        8
    time left       =     -1s



           Memory information
           ------------------

    heap     =   26214396 doubles =    200.0 Mbytes
    stack    =   26214401 doubles =    200.0 Mbytes
    global   =   52428800 doubles =    400.0 Mbytes (distinct from heap & stack)
    total    =  104857597 doubles =    800.0 Mbytes
    verify   = yes
    hardfail = no 


           Directory information
           ---------------------

  0 permanent = .
  0 scratch   = .




                                NWChem Input Module
                                -------------------



 Scaling coordinates for geometry "geometry" by  1.889725989
 (inverse scale =  0.529177249)

 C1  symmetry detected

          ------
          auto-z
          ------
  no constraints, skipping    0.0000000000000000     
  no constraints, skipping    0.0000000000000000     


                             Geometry "geometry" -> ""
                             -------------------------

 Output coordinates in angstroms (scale by  1.889725989 to convert to a.u.)

  No.       Tag          Charge          X              Y              Z
 ---- ---------------- ---------- -------------- -------------- --------------
    1 H                    1.0000     1.08869546    -3.81059653    -1.26736533
    2 C                    6.0000     1.58739040    -3.41212771    -0.38692740
    3 H                    1.0000     2.20015893    -2.55497379    -0.66051815
    4 H                    1.0000     2.21696986    -4.18181767     0.05746890
    5 C                    6.0000     0.54724440    -2.98511352     0.62825002
    6 O                    8.0000     0.52241931    -3.52422183     1.72359469
    7 N                    7.0000    -0.32560511    -2.03364216     0.30917012
    8 H                    1.0000    -0.95034739    -1.72769687     1.04788222
    9 C                    6.0000    -0.36312027    -1.24296959    -0.93267749
   10 H                    1.0000    -0.16822346    -1.89302047    -1.78469103
   11 C                    6.0000    -1.77257976    -0.64501441    -1.12947067
   12 H                    1.0000    -1.78264183    -0.10207766    -2.07647038
   13 H                    1.0000    -2.48232872    -1.46879586    -1.22191281
   14 C                    6.0000    -2.27154377     0.29622615    -0.01871457
   15 O                    8.0000    -3.26090897     1.00849317    -0.27996386
   16 O                    8.0000    -1.65075180     0.33851670     1.07046808
   17 C                    6.0000     0.70105713    -0.12638769    -0.96017853
   18 O                    8.0000     1.31125500     0.11535192    -1.99956274
   19 N                    7.0000     0.95115782     0.51233942     0.18660101
   20 H                    1.0000     0.31299355     0.28836278     0.94714412
   21 C                    6.0000     1.77083880     1.72007005     0.32441907
   22 H                    1.0000     2.38324877     1.62273975     1.21935249
   23 H                    1.0000     2.43284637     1.81767080    -0.53563097
   24 C                    6.0000     0.95981152     3.01892529     0.44806308
   25 O                    8.0000     1.53060041     4.10303295     0.39710591
   26 N                    7.0000    -0.35647630     2.95894237     0.61523489
   27 H                    1.0000    -0.82892397     2.06294523     0.69572913
   28 H                    1.0000    -0.88148466     3.81274813     0.67225200

      Atomic Mass 
      ----------- 

      H                  1.007825
      C                 12.000000
      O                 15.994910
      N                 14.003070


 Effective nuclear repulsion energy (a.u.)    1173.1685306552

            Nuclear Dipole moment (a.u.) 
            ----------------------------
        X                 Y               Z
 ---------------- ---------------- ----------------
     0.0000000000     0.0000000000    -0.0000000000



                                Z-matrix (autoz)
                                -------- 

 Units are Angstrom for bonds and degrees for angles

      Type          Name      I     J     K     L     M      Value
      ----------- --------  ----- ----- ----- ----- ----- ----------
    1 Stretch                  1     2                       1.08749
    2 Stretch                  2     3                       1.08860
    3 Stretch                  2     4                       1.08917
    4 Stretch                  2     5                       1.51487
    5 Stretch                  5     6                       1.22108
    6 Stretch                  5     7                       1.33003
    7 Stretch                  7     8                       1.01469
    8 Stretch                  7     9                       1.47267
    9 Stretch                  9    10                       1.08926
   10 Stretch                  9    11                       1.54365
   11 Stretch                  9    17                       1.54272
   12 Stretch                 11    12                       1.09165
   13 Stretch                 11    13                       1.09129
   14 Stretch                 11    14                       1.53905
   15 Stretch                 14    15                       1.24676
   16 Stretch                 14    16                       1.25439
   17 Stretch                 17    18                       1.22927
   18 Stretch                 17    19                       1.33627
   19 Stretch                 19    20                       1.01776
   20 Stretch                 19    21                       1.46611
   21 Stretch                 21    22                       1.08877
   22 Stretch                 21    23                       1.08971
   23 Stretch                 21    24                       1.53625
   24 Stretch                 24    25                       1.22625
   25 Stretch                 24    26                       1.32822
   26 Stretch                 26    27                       1.01612
   27 Stretch                 26    28                       1.00393
   28 Bend                     1     2     3               110.06978
   29 Bend                     1     2     4               109.66186
   30 Bend                     1     2     5               109.32739
   31 Bend                     2     5     6               119.38302
   32 Bend                     2     5     7               119.43844
   33 Bend                     3     2     4               109.48748
   34 Bend                     3     2     5               109.44909
   35 Bend                     4     2     5               108.82428
   36 Bend                     5     7     8               116.42985
   37 Bend                     5     7     9               127.09255
   38 Bend                     6     5     7               121.17806
   39 Bend                     7     9    10               109.54994
   40 Bend                     7     9    11               109.80005
   41 Bend                     7     9    17               112.70912
   42 Bend                     8     7     9               115.87068
   43 Bend                     9    11    12               108.15977
   44 Bend                     9    11    13               108.19363
   45 Bend                     9    11    14               116.16211
   46 Bend                     9    17    18               119.98804
   47 Bend                     9    17    19               117.37199
   48 Bend                    10     9    11               107.14714
   49 Bend                    10     9    17               107.13171
   50 Bend                    11     9    17               110.31636
   51 Bend                    11    14    15               117.09241
   52 Bend                    11    14    16               119.13281
   53 Bend                    12    11    13               107.21514
   54 Bend                    12    11    14               108.59813
   55 Bend                    13    11    14               108.17621
   56 Bend                    15    14    16               123.73879
   57 Bend                    17    19    20               114.75593
   58 Bend                    17    19    21               125.38476
   59 Bend                    18    17    19               122.59681
   60 Bend                    19    21    22               108.54803
   61 Bend                    19    21    23               109.83051
   62 Bend                    19    21    24               114.13436
   63 Bend                    20    19    21               117.49033
   64 Bend                    21    24    25               119.89322
   65 Bend                    21    24    26               119.67846
   66 Bend                    22    21    23               108.36269
   67 Bend                    22    21    24               107.84068
   68 Bend                    23    21    24               107.96980
   69 Bend                    24    26    27               120.70180
   70 Bend                    24    26    28               119.14353
   71 Bend                    25    24    26               120.42774
   72 Bend                    27    26    28               120.15088
   73 Torsion                  1     2     5     6         118.53270
   74 Torsion                  1     2     5     7         -61.21518
   75 Torsion                  2     5     7     8        -174.96899
   76 Torsion                  2     5     7     9          -4.32722
   77 Torsion                  3     2     5     6        -120.83570
   78 Torsion                  3     2     5     7          59.41642
   79 Torsion                  4     2     5     6          -1.22133
   80 Torsion                  4     2     5     7         179.03079
   81 Torsion                  5     7     9    10          42.01064
   82 Torsion                  5     7     9    11         159.42135
   83 Torsion                  5     7     9    17         -77.16362
   84 Torsion                  6     5     7     8           5.28778
   85 Torsion                  6     5     7     9         175.92955
   86 Torsion                  7     9    11    12        -177.57930
   87 Torsion                  7     9    11    13         -61.75149
   88 Torsion                  7     9    11    14          60.07083
   89 Torsion                  7     9    17    18         140.10367
   90 Torsion                  7     9    17    19         -37.56900
   91 Torsion                  8     7     9    10        -147.30246
   92 Torsion                  8     7     9    11         -29.89175
   93 Torsion                  8     7     9    17          93.52329
   94 Torsion                  9    11    14    15         164.98201
   95 Torsion                  9    11    14    16         -12.91787
   96 Torsion                  9    17    19    20          -8.45983
   97 Torsion                  9    17    19    21        -170.45048
   98 Torsion                 10     9    11    12         -58.67943
   99 Torsion                 10     9    11    13          57.14838
  100 Torsion                 10     9    11    14         178.97070
  101 Torsion                 10     9    17    18          19.53357
  102 Torsion                 10     9    17    19        -158.13910
  103 Torsion                 11     9    17    18         -96.76860
  104 Torsion                 11     9    17    19          85.55873
  105 Torsion                 12    11     9    17          57.61311
  106 Torsion                 12    11    14    15          42.86311
  107 Torsion                 12    11    14    16        -135.03676
  108 Torsion                 13    11     9    17         173.44092
  109 Torsion                 13    11    14    15         -73.18645
  110 Torsion                 13    11    14    16         108.91367
  111 Torsion                 14    11     9    17         -64.73676
  112 Torsion                 17    19    21    22        -139.04625
  113 Torsion                 17    19    21    23         -20.73655
  114 Torsion                 17    19    21    24         100.65956
  115 Torsion                 18    17    19    20         173.93286
  116 Torsion                 18    17    19    21          11.94221
  117 Torsion                 19    21    24    25        -170.72596
  118 Torsion                 19    21    24    26           9.55117
  119 Torsion                 20    19    21    22          59.40485
  120 Torsion                 20    19    21    23         177.71454
  121 Torsion                 20    19    21    24         -60.88935
  122 Torsion                 21    24    26    27           2.21232
  123 Torsion                 21    24    26    28        -178.49472
  124 Torsion                 22    21    24    25          68.58503
  125 Torsion                 22    21    24    26        -111.13785
  126 Torsion                 23    21    24    25         -48.30660
  127 Torsion                 23    21    24    26         131.97052
  128 Torsion                 25    24    26    27        -177.50905
  129 Torsion                 25    24    26    28           1.78390


            XYZ format geometry
            -------------------
    28
 geometry
 H                     1.08869546    -3.81059653    -1.26736533
 C                     1.58739040    -3.41212771    -0.38692740
 H                     2.20015893    -2.55497379    -0.66051815
 H                     2.21696986    -4.18181767     0.05746890
 C                     0.54724440    -2.98511352     0.62825002
 O                     0.52241931    -3.52422183     1.72359469
 N                    -0.32560511    -2.03364216     0.30917012
 H                    -0.95034739    -1.72769687     1.04788222
 C                    -0.36312027    -1.24296959    -0.93267749
 H                    -0.16822346    -1.89302047    -1.78469103
 C                    -1.77257976    -0.64501441    -1.12947067
 H                    -1.78264183    -0.10207766    -2.07647038
 H                    -2.48232872    -1.46879586    -1.22191281
 C                    -2.27154377     0.29622615    -0.01871457
 O                    -3.26090897     1.00849317    -0.27996386
 O                    -1.65075180     0.33851670     1.07046808
 C                     0.70105713    -0.12638769    -0.96017853
 O                     1.31125500     0.11535192    -1.99956274
 N                     0.95115782     0.51233942     0.18660101
 H                     0.31299355     0.28836278     0.94714412
 C                     1.77083880     1.72007005     0.32441907
 H                     2.38324877     1.62273975     1.21935249
 H                     2.43284637     1.81767080    -0.53563097
 C                     0.95981152     3.01892529     0.44806308
 O                     1.53060041     4.10303295     0.39710591
 N                    -0.35647630     2.95894237     0.61523489
 H                    -0.82892397     2.06294523     0.69572913
 H                    -0.88148466     3.81274813     0.67225200

 ==============================================================================
                                internuclear distances
 ------------------------------------------------------------------------------
       center one      |      center two      | atomic units |  angstroms
 ------------------------------------------------------------------------------
    2 C                |   1 H                |     2.05507  |     1.08749
    3 H                |   2 C                |     2.05716  |     1.08860
    4 H                |   2 C                |     2.05822  |     1.08917
    5 C                |   2 C                |     2.86269  |     1.51487
    6 O                |   5 C                |     2.30750  |     1.22108
    7 N                |   5 C                |     2.51339  |     1.33003
    8 H                |   7 N                |     1.91749  |     1.01469
    9 C                |   7 N                |     2.78294  |     1.47267
   10 H                |   9 C                |     2.05839  |     1.08926
   11 C                |   9 C                |     2.91707  |     1.54365
   12 H                |  11 C                |     2.06291  |     1.09165
   13 H                |  11 C                |     2.06223  |     1.09129
   14 C                |  11 C                |     2.90838  |     1.53905
   15 O                |  14 C                |     2.35604  |     1.24676
   16 O                |  14 C                |     2.37045  |     1.25439
   17 C                |   9 C                |     2.91532  |     1.54272
   18 O                |  17 C                |     2.32298  |     1.22927
   19 N                |  17 C                |     2.52519  |     1.33627
   20 H                |  19 N                |     1.92330  |     1.01776
   21 C                |  19 N                |     2.77055  |     1.46611
   22 H                |  21 C                |     2.05748  |     1.08877
   23 H                |  21 C                |     2.05925  |     1.08971
   24 C                |  21 C                |     2.90310  |     1.53625
   25 O                |  24 C                |     2.31727  |     1.22625
   26 N                |  24 C                |     2.50996  |     1.32822
   27 H                |  26 N                |     1.92019  |     1.01612
   28 H                |  26 N                |     1.89715  |     1.00393
 ------------------------------------------------------------------------------
                         number of included internuclear distances:         27
 ==============================================================================



 ==============================================================================
                                 internuclear angles
 ------------------------------------------------------------------------------
        center 1       |       center 2       |       center 3       |  degrees
 ------------------------------------------------------------------------------
    1 H                |   2 C                |   3 H                |   110.07
    1 H                |   2 C                |   4 H                |   109.66
    1 H                |   2 C                |   5 C                |   109.33
    3 H                |   2 C                |   4 H                |   109.49
    3 H                |   2 C                |   5 C                |   109.45
    4 H                |   2 C                |   5 C                |   108.82
    2 C                |   5 C                |   6 O                |   119.38
    2 C                |   5 C                |   7 N                |   119.44
    6 O                |   5 C                |   7 N                |   121.18
    5 C                |   7 N                |   8 H                |   116.43
    5 C                |   7 N                |   9 C                |   127.09
    8 H                |   7 N                |   9 C                |   115.87
    7 N                |   9 C                |  10 H                |   109.55
    7 N                |   9 C                |  11 C                |   109.80
    7 N                |   9 C                |  17 C                |   112.71
   10 H                |   9 C                |  11 C                |   107.15
   10 H                |   9 C                |  17 C                |   107.13
   11 C                |   9 C                |  17 C                |   110.32
    9 C                |  11 C                |  12 H                |   108.16
    9 C                |  11 C                |  13 H                |   108.19
    9 C                |  11 C                |  14 C                |   116.16
   12 H                |  11 C                |  13 H                |   107.22
   12 H                |  11 C                |  14 C                |   108.60
   13 H                |  11 C                |  14 C                |   108.18
   11 C                |  14 C                |  15 O                |   117.09
   11 C                |  14 C                |  16 O                |   119.13
   15 O                |  14 C                |  16 O                |   123.74
    9 C                |  17 C                |  18 O                |   119.99
    9 C                |  17 C                |  19 N                |   117.37
   18 O                |  17 C                |  19 N                |   122.60
   17 C                |  19 N                |  20 H                |   114.76
   17 C                |  19 N                |  21 C                |   125.38
   20 H                |  19 N                |  21 C                |   117.49
   19 N                |  21 C                |  22 H                |   108.55
   19 N                |  21 C                |  23 H                |   109.83
   19 N                |  21 C                |  24 C                |   114.13
   22 H                |  21 C                |  23 H                |   108.36
   22 H                |  21 C                |  24 C                |   107.84
   23 H                |  21 C                |  24 C                |   107.97
   21 C                |  24 C                |  25 O                |   119.89
   21 C                |  24 C                |  26 N                |   119.68
   25 O                |  24 C                |  26 N                |   120.43
   24 C                |  26 N                |  27 H                |   120.70
   24 C                |  26 N                |  28 H                |   119.14
   27 H                |  26 N                |  28 H                |   120.15
 ------------------------------------------------------------------------------
                            number of included internuclear angles:         45
 ==============================================================================



  library name resolved from: environment
  library file name is: </opt/rit/el9/20230413/app/linux-rhel9-x86_64_v3/gcc-11.2.1/nwchem-7.2.0-oxtctbuhfuzyfaoziquq6bki22grib3g/share/nwchem/libraries/>
  


 Summary of "ao basis" -> "" (cartesian)
 ------------------------------------------------------------------------------
       Tag                 Description            Shells   Functions and Types
 ---------------- ------------------------------  ------  ---------------------
 *                        aug-cc-pvdz                 on all atoms 


                      Basis "ao basis" -> "ao basis" (cartesian)
                      -----
  H (Hydrogen)
  ------------
            Exponent  Coefficients 
       -------------- ---------------------------------------------------------
  1 S  1.30100000E+01  0.019685
  1 S  1.96200000E+00  0.137977
  1 S  4.44600000E-01  0.478148

  2 S  1.22000000E-01  1.000000

  3 S  2.97400000E-02  1.000000

  4 P  7.27000000E-01  1.000000

  5 P  1.41000000E-01  1.000000

  C (Carbon)
  ----------
            Exponent  Coefficients 
       -------------- ---------------------------------------------------------
  1 S  6.66500000E+03  0.000692
  1 S  1.00000000E+03  0.005329
  1 S  2.28000000E+02  0.027077
  1 S  6.47100000E+01  0.101718
  1 S  2.10600000E+01  0.274740
  1 S  7.49500000E+00  0.448564
  1 S  2.79700000E+00  0.285074
  1 S  5.21500000E-01  0.015204

  2 S  6.66500000E+03 -0.000146
  2 S  1.00000000E+03 -0.001154
  2 S  2.28000000E+02 -0.005725
  2 S  6.47100000E+01 -0.023312
  2 S  2.10600000E+01 -0.063955
  2 S  7.49500000E+00 -0.149981
  2 S  2.79700000E+00 -0.127262
  2 S  5.21500000E-01  0.544529

  3 S  1.59600000E-01  1.000000

  4 S  4.69000000E-02  1.000000

  5 P  9.43900000E+00  0.038109
  5 P  2.00200000E+00  0.209480
  5 P  5.45600000E-01  0.508557

  6 P  1.51700000E-01  1.000000

  7 P  4.04100000E-02  1.000000

  8 D  5.50000000E-01  1.000000

  9 D  1.51000000E-01  1.000000

  O (Oxygen)
  ----------
            Exponent  Coefficients 
       -------------- ---------------------------------------------------------
  1 S  1.17200000E+04  0.000710
  1 S  1.75900000E+03  0.005470
  1 S  4.00800000E+02  0.027837
  1 S  1.13700000E+02  0.104800
  1 S  3.70300000E+01  0.283062
  1 S  1.32700000E+01  0.448719
  1 S  5.02500000E+00  0.270952
  1 S  1.01300000E+00  0.015458

  2 S  1.17200000E+04 -0.000160
  2 S  1.75900000E+03 -0.001263
  2 S  4.00800000E+02 -0.006267
  2 S  1.13700000E+02 -0.025716
  2 S  3.70300000E+01 -0.070924
  2 S  1.32700000E+01 -0.165411
  2 S  5.02500000E+00 -0.116955
  2 S  1.01300000E+00  0.557368

  3 S  3.02300000E-01  1.000000

  4 S  7.89600000E-02  1.000000

  5 P  1.77000000E+01  0.043018
  5 P  3.85400000E+00  0.228913
  5 P  1.04600000E+00  0.508728

  6 P  2.75300000E-01  1.000000

  7 P  6.85600000E-02  1.000000

  8 D  1.18500000E+00  1.000000

  9 D  3.32000000E-01  1.000000

  N (Nitrogen)
  ------------
            Exponent  Coefficients 
       -------------- ---------------------------------------------------------
  1 S  9.04600000E+03  0.000700
  1 S  1.35700000E+03  0.005389
  1 S  3.09300000E+02  0.027406
  1 S  8.77300000E+01  0.103207
  1 S  2.85600000E+01  0.278723
  1 S  1.02100000E+01  0.448540
  1 S  3.83800000E+00  0.278238
  1 S  7.46600000E-01  0.015440

  2 S  9.04600000E+03 -0.000153
  2 S  1.35700000E+03 -0.001208
  2 S  3.09300000E+02 -0.005992
  2 S  8.77300000E+01 -0.024544
  2 S  2.85600000E+01 -0.067459
  2 S  1.02100000E+01 -0.158078
  2 S  3.83800000E+00 -0.121831
  2 S  7.46600000E-01  0.549003

  3 S  2.24800000E-01  1.000000

  4 S  6.12400000E-02  1.000000

  5 P  1.35500000E+01  0.039919
  5 P  2.91700000E+00  0.217169
  5 P  7.97300000E-01  0.510319

  6 P  2.18500000E-01  1.000000

  7 P  5.61100000E-02  1.000000

  8 D  8.17000000E-01  1.000000

  9 D  2.30000000E-01  1.000000



 Summary of "ao basis" -> "ao basis" (cartesian)
 ------------------------------------------------------------------------------
       Tag                 Description            Shells   Functions and Types
 ---------------- ------------------------------  ------  ---------------------
 H                        aug-cc-pvdz                5        9   3s2p
 C                        aug-cc-pvdz                9       25   4s3p2d
 O                        aug-cc-pvdz                9       25   4s3p2d
 N                        aug-cc-pvdz                9       25   4s3p2d


 ------------------------------------------------------------------------
 scf: no. of closed-shell electrons is not even!                   0
 ------------------------------------------------------------------------
 ------------------------------------------------------------------------
  current input line : 
     0: 
 scf: no. of closed-shell electrons is not even!                   0
 ------------------------------------------------------------------------
 ------------------------------------------------------------------------
  current input line : 
     0: 
 ------------------------------------------------------------------------
 scf: no. of closed-shell electrons is not even!                   0
 ------------------------------------------------------------------------
 ------------------------------------------------------------------------
  current input line : 
     0: 
 ------------------------------------------------------------------------
 ------------------------------------------------------------------------
 There is an error in the input file
 ------------------------------------------------------------------------
 scf: no. of closed-shell electrons is not even!                   0
 ------------------------------------------------------------------------
 ------------------------------------------------------------------------
  current input line : 
     0: 
 ------------------------------------------------------------------------
 ------------------------------------------------------------------------
 There is an error in the input file
 ------------------------------------------------------------------------
 For more information see the NWChem manual at https://nwchemgit.github.io


 For further details see manual section:                                                                                                                                                                                                                                                                
 scf: no. of closed-shell electrons is not even!                   0
 ------------------------------------------------------------------------
 ------------------------------------------------------------------------
  current input line : 
     0: 
 ------------------------------------------------------------------------
 ------------------------------------------------------------------------
 There is an error in the input file
 ------------------------------------------------------------------------
 For more information see the NWChem manual at https://nwchemgit.github.io


 For further details see manual section:                                                                                                                                                                                                                                                                
 scf: no. of closed-shell electrons is not even!                   0
 ------------------------------------------------------------------------
 ------------------------------------------------------------------------
  current input line : 
     0: 
 ------------------------------------------------------------------------
 ------------------------------------------------------------------------
 There is an error in the input file
 ------------------------------------------------------------------------
 For more information see the NWChem manual at https://nwchemgit.github.io


 For further details see manual section:                                                                                                                                                                                                                                                                
 scf: no. of closed-shell electrons is not even!                   0
 ------------------------------------------------------------------------
 ------------------------------------------------------------------------
  current input line : 
     0: 
 ------------------------------------------------------------------------
 ------------------------------------------------------------------------
 There is an error in the input file
 ------------------------------------------------------------------------
 For more information see the NWChem manual at https://nwchemgit.github.io


 For further details see manual section:                                                                                                                                                                                                                                                                
 ------------------------------------------------------------------------
 ------------------------------------------------------------------------
 There is an error in the input file
 ------------------------------------------------------------------------
 For more information see the NWChem manual at https://nwchemgit.github.io


 For further details see manual section:                                                                                                                                                                                                                                                                
1:scf: no. of closed-shell electrons is not even!:Received an Error in Communication
 ------------------------------------------------------------------------
 There is an error in the input file
 ------------------------------------------------------------------------
 For more information see the NWChem manual at https://nwchemgit.github.io


 For further details see manual section:                                                                                                                                                                                                                                                                
2:scf: no. of closed-shell electrons is not even!:Received an Error in Communication
 For more information see the NWChem manual at https://nwchemgit.github.io


 For further details see manual section:                                                                                                                                                                                                                                                                
3:scf: no. of closed-shell electrons is not even!:Received an Error in Communication
4:scf: no. of closed-shell electrons is not even!:Received an Error in Communication
5:scf: no. of closed-shell electrons is not even!:Received an Error in Communication
6:scf: no. of closed-shell electrons is not even!:Received an Error in Communication
7:scf: no. of closed-shell electrons is not even!:Received an Error in Communication
 scf: no. of closed-shell electrons is not even!                   0
 ------------------------------------------------------------------------
 ------------------------------------------------------------------------
  current input line : 
    43: task scf energy
 ------------------------------------------------------------------------
 ------------------------------------------------------------------------
 There is an error in the input file
 ------------------------------------------------------------------------
 For more information see the NWChem manual at https://nwchemgit.github.io


 For further details see manual section:                                                                                                                                                                                                                                                                
0:scf: no. of closed-shell electrons is not even!:Received an Error in Communication
--------------------------------------------------------------------------
MPI_ABORT was invoked on rank 2 in communicator MPI COMMUNICATOR 3 DUP FROM 0
with errorcode -1.

NOTE: invoking MPI_ABORT causes Open MPI to kill all MPI processes.
You may or may not see output from other processes, depending on
exactly when Open MPI kills them.
--------------------------------------------------------------------------
--------------------------------------------------------------------------
MPI_ABORT was invoked on rank 0 in communicator MPI COMMUNICATOR 3 DUP FROM 0
with errorcode -1.

NOTE: invoking MPI_ABORT causes Open MPI to kill all MPI processes.
You may or may not see output from other processes, depending on
exactly when Open MPI kills them.
--------------------------------------------------------------------------
--------------------------------------------------------------------------
MPI_ABORT was invoked on rank 6 in communicator MPI COMMUNICATOR 3 DUP FROM 0
with errorcode -1.

NOTE: invoking MPI_ABORT causes Open MPI to kill all MPI processes.
You may or may not see output from other processes, depending on
exactly when Open MPI kills them.
--------------------------------------------------------------------------
--------------------------------------------------------------------------
MPI_ABORT was invoked on rank 4 in communicator MPI COMMUNICATOR 3 DUP FROM 0
with errorcode -1.

NOTE: invoking MPI_ABORT causes Open MPI to kill all MPI processes.
You may or may not see output from other processes, depending on
exactly when Open MPI kills them.
--------------------------------------------------------------------------
--------------------------------------------------------------------------
MPI_ABORT was invoked on rank 7 in communicator MPI COMMUNICATOR 3 DUP FROM 0
with errorcode -1.

NOTE: invoking MPI_ABORT causes Open MPI to kill all MPI processes.
You may or may not see output from other processes, depending on
exactly when Open MPI kills them.
--------------------------------------------------------------------------
--------------------------------------------------------------------------
MPI_ABORT was invoked on rank 3 in communicator MPI COMMUNICATOR 3 DUP FROM 0
with errorcode -1.

NOTE: invoking MPI_ABORT causes Open MPI to kill all MPI processes.
You may or may not see output from other processes, depending on
exactly when Open MPI kills them.
--------------------------------------------------------------------------
--------------------------------------------------------------------------
MPI_ABORT was invoked on rank 5 in communicator MPI COMMUNICATOR 3 DUP FROM 0
with errorcode -1.

NOTE: invoking MPI_ABORT causes Open MPI to kill all MPI processes.
You may or may not see output from other processes, depending on
exactly when Open MPI kills them.
--------------------------------------------------------------------------
--------------------------------------------------------------------------
MPI_ABORT was invoked on rank 1 in communicator MPI COMMUNICATOR 3 DUP FROM 0
with errorcode -1.

NOTE: invoking MPI_ABORT causes Open MPI to kill all MPI processes.
You may or may not see output from other processes, depending on
exactly when Open MPI kills them.
--------------------------------------------------------------------------
slurmstepd: error: *** STEP 6619389.119 ON nova21-swift-4 CANCELLED AT 2025-07-11T10:01:44 ***
srun: Job step aborted: Waiting up to 32 seconds for job step to finish.
slurmstepd: error: --task-epilog failed status=9
srun: error: nova21-swift-4: tasks 0-1,3-7: Killed
srun: error: nova21-swift-4: task 2: Exited with exit code 255
