export TMOUT=5400
export TMPDIR=/tmp
export PTMPDIR=/tmp/ptmp
 argument  1 = inputs/ASP_GLN_2.nw



============================== echo of input deck ==============================
start ASP_GLN_2
geometry
H          5.78100        0.72800        1.67900
C          6.73900        1.00600        1.24400
H          6.59400        1.78700        0.49900
H          7.20500        0.13900        0.78200
C          7.64200        1.52800        2.33400
O          7.24700        1.57100        3.49100
N          8.83800        1.95200        1.94600
H          9.02100        2.00700        0.95200
C          9.82500        2.62500        2.80700
H         10.05400        1.98400        3.65900
C         11.12300        2.86000        2.00000
H         11.81300        3.43600        2.61900
H         11.58400        1.88700        1.82100
C         10.97300        3.56600        0.63300
O          9.82700        3.79600        0.16900
O         12.02100        3.87400        0.03300
C          9.29100        3.95700        3.36500
O          9.39500        4.24000        4.55700
N          8.65800        4.74300        2.49800
H          8.72600        4.45400        1.52500
C          7.92700        5.97600        2.79000
H          8.47800        6.51600        3.56100
C          7.93000        6.84000        1.51500
H          7.50200        7.81900        1.73400
H          8.97200        7.00000        1.23000
C          7.17200        6.21800        0.32300
H          7.15400        5.13100        0.40500
H          6.14100        6.57000        0.32900
C          7.82200        6.56800       -1.01200
O          7.38400        7.45600       -1.72700
N          8.88700        5.90300       -1.40000
H          9.28400        5.14900       -0.82700
H          9.31700        6.17600       -2.25900
C          6.50900        5.73300        3.35500
O          5.69300        6.64800        3.42300
N          6.16100        4.51300        3.75000
H          5.23800        4.37100        4.12000
H          6.83700        3.76100        3.72900
end

basis
 * library aug-cc-pvdz
end

echo

scf
 direct
end

task scf energy
================================================================================


                                         
                                         


             Northwest Computational Chemistry Package (NWChem) 7.2.0
             --------------------------------------------------------


                    Environmental Molecular Sciences Laboratory
                       Pacific Northwest National Laboratory
                                Richland, WA 99352

                              Copyright (c) 1994-2022
                       Pacific Northwest National Laboratory
                            Battelle Memorial Institute

             NWChem is an open-source computational chemistry package
                        distributed under the terms of the
                      Educational Community License (ECL) 2.0
             A copy of the license is included with this distribution
                              in the LICENSE.TXT file

                                  ACKNOWLEDGMENT
                                  --------------

            This software and its documentation were developed at the
            EMSL at Pacific Northwest National Laboratory, a multiprogram
            national laboratory, operated for the U.S. Department of Energy
            by Battelle under Contract Number DE-AC05-76RL01830. Support
            for this work was provided by the Department of Energy Office
            of Biological and Environmental Research, Office of Basic
            Energy Sciences, and the Office of Advanced Scientific Computing.


           Job information
           ---------------

    hostname        = nova21-swift-3
    program         = /opt/rit/el9/20230413/app/linux-rhel9-x86_64_v3/gcc-11.2.1/nwchem-7.2.0-oxtctbuhfuzyfaoziquq6bki22grib3g/bin/nwchem
    date            = Fri Jul 11 03:00:04 2025

    compiled        = Wed_May_17_23:46:39_2023
    source          = /tmp/root/spack-stage/spack-stage-nwchem-7.2.0-oxtctbuhfuzyfaoziquq6bki22grib3g/spack-src
    nwchem branch   = 7.2.0
    nwchem revision = d0d141fd
    ga revision     = 5.8.0
    use scalapack   = T
    input           = inputs/ASP_GLN_2.nw
    prefix          = ASP_GLN_2.
    data base       = ./ASP_GLN_2.db
    status          = startup
    nproc           =        8
    time left       =     -1s



           Memory information
           ------------------

    heap     =   26214394 doubles =    200.0 Mbytes
    stack    =   26214399 doubles =    200.0 Mbytes
    global   =   52428800 doubles =    400.0 Mbytes (distinct from heap & stack)
    total    =  104857593 doubles =    800.0 Mbytes
    verify   = yes
    hardfail = no 


           Directory information
           ---------------------

  0 permanent = .
  0 scratch   = .




                                NWChem Input Module
                                -------------------



 Scaling coordinates for geometry "geometry" by  1.889725989
 (inverse scale =  0.529177249)

 C1  symmetry detected

          ------
          auto-z
          ------
  no constraints, skipping    0.0000000000000000     
  no constraints, skipping    0.0000000000000000     


                             Geometry "geometry" -> ""
                             -------------------------

 Output coordinates in angstroms (scale by  1.889725989 to convert to a.u.)

  No.       Tag          Charge          X              Y              Z
 ---- ---------------- ---------- -------------- -------------- --------------
    1 H                    1.0000    -1.12720091    -2.44816639    -3.56921184
    2 C                    6.0000    -0.20292161    -2.15686375    -3.07411231
    3 H                    1.0000    -0.05111167    -1.08333848    -3.17662207
    4 H                    1.0000     0.63831576    -2.69050622    -3.50981222
    5 C                    6.0000    -0.29920697    -2.50195086    -1.60863048
    6 O                    8.0000    -1.30803849    -3.03551530    -1.16807293
    7 N                    7.0000     0.74266180    -2.16167735    -0.86066029
    8 H                    1.0000     1.46839988    -1.59997443    -1.28767794
    9 C                    6.0000     0.81219071    -2.27266599     0.60605926
   10 H                    1.0000     0.62609487    -3.30712562     0.89672681
   11 C                    6.0000     2.22981171    -1.87251097     1.07670208
   12 H                    1.0000     2.24278475    -1.87386424     2.16797055
   13 H                    1.0000     2.92192775    -2.64807687     0.74388994
   14 C                    6.0000     2.77113133    -0.51448309     0.57434927
   15 O                    8.0000     2.12440836     0.13917236    -0.28355279
   16 O                    8.0000     3.85621218    -0.12390671     1.04680841
   17 C                    6.0000    -0.25029064    -1.40205988     1.30170456
   18 O                    8.0000    -0.95837153    -1.85145176     2.20083602
   19 N                    7.0000    -0.39717434    -0.16754116     0.82782407
   20 H                    1.0000     0.31100361     0.12418505     0.15830648
   21 C                    6.0000    -1.42520343     0.80605696     1.19548814
   22 H                    1.0000    -1.60101059     0.71672958     2.26822038
   23 C                    6.0000    -0.86096688     2.21344337     0.92524640
   24 H                    1.0000    -1.55356336     2.96568518     1.30475711
   25 H                    1.0000     0.06500417     2.31044252     1.49599835
   26 C                    6.0000    -0.56886632     2.50725066    -0.56158464
   27 H                    1.0000    -0.37113791     1.58224586    -1.10369773
   28 H                    1.0000    -1.44101246     2.97862242    -1.01332657
   29 C                    6.0000     0.64696279     3.41191098    -0.73643964
   30 O                    8.0000     0.53217276     4.60938111    -0.94739353
   31 N                    7.0000     1.85058559     2.89166431    -0.64909237
   32 H                    1.0000     1.98771656     1.88918828    -0.47390416
   33 H                    1.0000     2.63037768     3.51042988    -0.72886368
   34 C                    6.0000    -2.78613898     0.55541333     0.50698963
   35 O                    8.0000    -3.66732308     1.41035575     0.52410787
   36 N                    7.0000    -2.99630492    -0.59054788    -0.13186261
   37 H                    1.0000    -3.88738919    -0.74179640    -0.57013846
   38 H                    1.0000    -2.28906789    -1.31349361    -0.12257466

      Atomic Mass 
      ----------- 

      H                  1.007825
      C                 12.000000
      O                 15.994910
      N                 14.003070


 Effective nuclear repulsion energy (a.u.)    1858.8646062336

            Nuclear Dipole moment (a.u.) 
            ----------------------------
        X                 Y               Z
 ---------------- ---------------- ----------------
     0.0000000000    -0.0000000000     0.0000000000



                                Z-matrix (autoz)
                                -------- 

 Units are Angstrom for bonds and degrees for angles

      Type          Name      I     J     K     L     M      Value
      ----------- --------  ----- ----- ----- ----- ----- ----------
    1 Stretch                  1     2                       1.08824
    2 Stretch                  2     3                       1.08904
    3 Stretch                  2     4                       1.08733
    4 Stretch                  2     5                       1.50864
    5 Stretch                  5     6                       1.22332
    6 Stretch                  5     7                       1.32693
    7 Stretch                  7     8                       1.01220
    8 Stretch                  7     9                       1.47256
    9 Stretch                  9    10                       1.09052
   10 Stretch                  9    11                       1.54638
   11 Stretch                  9    17                       1.53972
   12 Stretch                 11    12                       1.09135
   13 Stretch                 11    13                       1.09146
   14 Stretch                 11    14                       1.54584
   15 Stretch                 14    15                       1.25758
   16 Stretch                 14    16                       1.24626
   17 Stretch                 17    18                       1.22954
   18 Stretch                 17    19                       1.33048
   19 Stretch                 19    20                       1.01729
   20 Stretch                 19    21                       1.46284
   21 Stretch                 21    22                       1.09071
   22 Stretch                 21    23                       1.54017
   23 Stretch                 21    34                       1.54564
   24 Stretch                 23    24                       1.09068
   25 Stretch                 23    25                       1.09206
   26 Stretch                 23    26                       1.54347
   27 Stretch                 26    27                       1.09024
   28 Stretch                 26    28                       1.08945
   29 Stretch                 26    29                       1.52552
   30 Stretch                 29    30                       1.22132
   31 Stretch                 29    31                       1.31415
   32 Stretch                 31    32                       1.02687
   33 Stretch                 31    33                       0.99865
   34 Stretch                 34    35                       1.22789
   35 Stretch                 34    36                       1.32873
   36 Stretch                 36    37                       1.00449
   37 Stretch                 36    38                       1.01140
   38 Bend                     1     2     3               109.84268
   39 Bend                     1     2     4               110.08588
   40 Bend                     1     2     5               109.05660
   41 Bend                     2     5     6               120.14756
   42 Bend                     2     5     7               116.02677
   43 Bend                     3     2     4               109.76868
   44 Bend                     3     2     5               109.01490
   45 Bend                     4     2     5               109.04792
   46 Bend                     5     7     8               117.86987
   47 Bend                     5     7     9               125.39409
   48 Bend                     6     5     7               123.80383
   49 Bend                     7     9    10               109.20351
   50 Bend                     7     9    11               109.08238
   51 Bend                     7     9    17               112.01256
   52 Bend                     8     7     9               115.35154
   53 Bend                     9    11    12               108.35520
   54 Bend                     9    11    13               107.73655
   55 Bend                     9    11    14               116.70815
   56 Bend                     9    17    18               121.40732
   57 Bend                     9    17    19               116.09822
   58 Bend                    10     9    11               108.71047
   59 Bend                    10     9    17               107.34869
   60 Bend                    11     9    17               110.41211
   61 Bend                    11    14    15               119.88290
   62 Bend                    11    14    16               117.19460
   63 Bend                    12    11    13               107.24644
   64 Bend                    12    11    14               108.77630
   65 Bend                    13    11    14               107.64375
   66 Bend                    15    14    16               122.92019
   67 Bend                    17    19    20               115.06484
   68 Bend                    17    19    21               127.27305
   69 Bend                    18    17    19               122.41291
   70 Bend                    19    21    22               107.81597
   71 Bend                    19    21    23               107.85550
   72 Bend                    19    21    34               113.50928
   73 Bend                    20    19    21               117.63105
   74 Bend                    21    23    24               109.66674
   75 Bend                    21    23    25               107.46311
   76 Bend                    21    23    26               114.34919
   77 Bend                    21    34    35               120.84827
   78 Bend                    21    34    36               119.55737
   79 Bend                    22    21    23               107.84592
   80 Bend                    22    21    34               106.43333
   81 Bend                    23    21    34               113.11579
   82 Bend                    23    26    27               110.59824
   83 Bend                    23    26    28               109.28663
   84 Bend                    23    26    29               111.97031
   85 Bend                    24    23    25               107.17669
   86 Bend                    24    23    26               108.90960
   87 Bend                    25    23    26               109.03131
   88 Bend                    26    29    30               121.75762
   89 Bend                    26    29    31               119.18145
   90 Bend                    27    26    28               107.82441
   91 Bend                    27    26    29               107.55387
   92 Bend                    28    26    29               109.50654
   93 Bend                    29    31    32               121.34085
   94 Bend                    29    31    33               117.68256
   95 Bend                    30    29    31               119.05934
   96 Bend                    32    31    33               120.94628
   97 Bend                    34    36    37               118.68252
   98 Bend                    34    36    38               120.09654
   99 Bend                    35    34    36               119.58344
  100 Bend                    37    36    38               121.11124
  101 Torsion                  1     2     5     6           0.59211
  102 Torsion                  1     2     5     7        -177.77179
  103 Torsion                  2     5     7     8           7.47225
  104 Torsion                  2     5     7     9         173.37274
  105 Torsion                  3     2     5     6         120.51864
  106 Torsion                  3     2     5     7         -57.84526
  107 Torsion                  4     2     5     6        -119.64985
  108 Torsion                  4     2     5     7          61.98625
  109 Torsion                  5     7     9    10          57.15665
  110 Torsion                  5     7     9    11         175.83752
  111 Torsion                  5     7     9    17         -61.62006
  112 Torsion                  6     5     7     8        -170.82510
  113 Torsion                  6     5     7     9          -4.92461
  114 Torsion                  7     9    11    12         175.08455
  115 Torsion                  7     9    11    13         -69.18842
  116 Torsion                  7     9    11    14          51.95302
  117 Torsion                  7     9    17    18         132.38623
  118 Torsion                  7     9    17    19         -44.40591
  119 Torsion                  8     7     9    10        -136.62958
  120 Torsion                  8     7     9    11         -17.94871
  121 Torsion                  8     7     9    17         104.59371
  122 Torsion                  9    11    14    15          -7.16441
  123 Torsion                  9    11    14    16         173.37167
  124 Torsion                  9    17    19    20          -9.66022
  125 Torsion                  9    17    19    21         172.43120
  126 Torsion                 10     9    11    12         -65.92697
  127 Torsion                 10     9    11    13          49.80007
  128 Torsion                 10     9    11    14         170.94151
  129 Torsion                 10     9    17    18          12.51886
  130 Torsion                 10     9    17    19        -164.27327
  131 Torsion                 11     9    17    18        -105.83048
  132 Torsion                 11     9    17    19          77.37738
  133 Torsion                 12    11     9    17          51.58631
  134 Torsion                 12    11    14    15        -130.07833
  135 Torsion                 12    11    14    16          50.45775
  136 Torsion                 13    11     9    17         167.31335
  137 Torsion                 13    11    14    15         114.02596
  138 Torsion                 13    11    14    16         -65.43796
  139 Torsion                 14    11     9    17         -71.54521
  140 Torsion                 17    19    21    22          38.39145
  141 Torsion                 17    19    21    23         154.60444
  142 Torsion                 17    19    21    34         -79.24409
  143 Torsion                 18    17    19    20         173.58293
  144 Torsion                 18    17    19    21          -4.32565
  145 Torsion                 19    21    23    24        -172.96139
  146 Torsion                 19    21    23    25         -56.78090
  147 Torsion                 19    21    23    26          64.38944
  148 Torsion                 19    21    34    35        -166.87420
  149 Torsion                 19    21    34    36          11.91896
  150 Torsion                 20    19    21    22        -139.47019
  151 Torsion                 20    19    21    23         -23.25720
  152 Torsion                 20    19    21    34         102.89428
  153 Torsion                 21    23    26    27         -25.97545
  154 Torsion                 21    23    26    28          92.57736
  155 Torsion                 21    23    26    29        -145.91292
  156 Torsion                 21    34    36    37         179.65238
  157 Torsion                 21    34    36    38           3.41738
  158 Torsion                 22    21    23    24         -56.76798
  159 Torsion                 22    21    23    25          59.41252
  160 Torsion                 22    21    23    26        -179.41714
  161 Torsion                 22    21    34    35          74.69023
  162 Torsion                 22    21    34    36        -106.51661
  163 Torsion                 23    21    34    35         -43.55876
  164 Torsion                 23    21    34    36         135.23439
  165 Torsion                 23    26    29    30        -100.10321
  166 Torsion                 23    26    29    31          79.43399
  167 Torsion                 24    23    21    34          60.65601
  168 Torsion                 24    23    26    27        -149.03492
  169 Torsion                 24    23    26    28         -30.48210
  170 Torsion                 24    23    26    29          91.02762
  171 Torsion                 25    23    21    34         176.83651
  172 Torsion                 25    23    26    27          94.32530
  173 Torsion                 25    23    26    28        -147.12188
  174 Torsion                 25    23    26    29         -25.61216
  175 Torsion                 26    23    21    34         -61.99315
  176 Torsion                 26    29    31    32           0.53132
  177 Torsion                 26    29    31    33        -177.48450
  178 Torsion                 27    26    29    30         138.19439
  179 Torsion                 27    26    29    31         -42.26841
  180 Torsion                 28    26    29    30          21.27990
  181 Torsion                 28    26    29    31        -159.18291
  182 Torsion                 30    29    31    32        -179.91886
  183 Torsion                 30    29    31    33           2.06532
  184 Torsion                 35    34    36    37          -1.53904
  185 Torsion                 35    34    36    38        -177.77404


            XYZ format geometry
            -------------------
    38
 geometry
 H                    -1.12720091    -2.44816639    -3.56921184
 C                    -0.20292161    -2.15686375    -3.07411231
 H                    -0.05111167    -1.08333848    -3.17662207
 H                     0.63831576    -2.69050622    -3.50981222
 C                    -0.29920697    -2.50195086    -1.60863048
 O                    -1.30803849    -3.03551530    -1.16807293
 N                     0.74266180    -2.16167735    -0.86066029
 H                     1.46839988    -1.59997443    -1.28767794
 C                     0.81219071    -2.27266599     0.60605926
 H                     0.62609487    -3.30712562     0.89672681
 C                     2.22981171    -1.87251097     1.07670208
 H                     2.24278475    -1.87386424     2.16797055
 H                     2.92192775    -2.64807687     0.74388994
 C                     2.77113133    -0.51448309     0.57434927
 O                     2.12440836     0.13917236    -0.28355279
 O                     3.85621218    -0.12390671     1.04680841
 C                    -0.25029064    -1.40205988     1.30170456
 O                    -0.95837153    -1.85145176     2.20083602
 N                    -0.39717434    -0.16754116     0.82782407
 H                     0.31100361     0.12418505     0.15830648
 C                    -1.42520343     0.80605696     1.19548814
 H                    -1.60101059     0.71672958     2.26822038
 C                    -0.86096688     2.21344337     0.92524640
 H                    -1.55356336     2.96568518     1.30475711
 H                     0.06500417     2.31044252     1.49599835
 C                    -0.56886632     2.50725066    -0.56158464
 H                    -0.37113791     1.58224586    -1.10369773
 H                    -1.44101246     2.97862242    -1.01332657
 C                     0.64696279     3.41191098    -0.73643964
 O                     0.53217276     4.60938111    -0.94739353
 N                     1.85058559     2.89166431    -0.64909237
 H                     1.98771656     1.88918828    -0.47390416
 H                     2.63037768     3.51042988    -0.72886368
 C                    -2.78613898     0.55541333     0.50698963
 O                    -3.66732308     1.41035575     0.52410787
 N                    -2.99630492    -0.59054788    -0.13186261
 H                    -3.88738919    -0.74179640    -0.57013846
 H                    -2.28906789    -1.31349361    -0.12257466

 ==============================================================================
                                internuclear distances
 ------------------------------------------------------------------------------
       center one      |      center two      | atomic units |  angstroms
 ------------------------------------------------------------------------------
    2 C                |   1 H                |     2.05648  |     1.08824
    3 H                |   2 C                |     2.05799  |     1.08904
    4 H                |   2 C                |     2.05476  |     1.08733
    5 C                |   2 C                |     2.85092  |     1.50864
    6 O                |   5 C                |     2.31175  |     1.22332
    7 N                |   5 C                |     2.50753  |     1.32693
    8 H                |   7 N                |     1.91278  |     1.01220
    9 C                |   7 N                |     2.78273  |     1.47256
   10 H                |   9 C                |     2.06078  |     1.09052
   11 C                |   9 C                |     2.92223  |     1.54638
   12 H                |  11 C                |     2.06235  |     1.09135
   13 H                |  11 C                |     2.06257  |     1.09146
   14 C                |  11 C                |     2.92122  |     1.54584
   15 O                |  14 C                |     2.37649  |     1.25758
   16 O                |  14 C                |     2.35509  |     1.24626
   17 C                |   9 C                |     2.90965  |     1.53972
   18 O                |  17 C                |     2.32349  |     1.22954
   19 N                |  17 C                |     2.51424  |     1.33048
   20 H                |  19 N                |     1.92239  |     1.01729
   21 C                |  19 N                |     2.76438  |     1.46284
   22 H                |  21 C                |     2.06114  |     1.09071
   23 C                |  21 C                |     2.91050  |     1.54017
   24 H                |  23 C                |     2.06109  |     1.09068
   25 H                |  23 C                |     2.06369  |     1.09206
   26 C                |  23 C                |     2.91674  |     1.54347
   27 H                |  26 C                |     2.06025  |     1.09024
   28 H                |  26 C                |     2.05876  |     1.08945
   29 C                |  26 C                |     2.88282  |     1.52552
   30 O                |  29 C                |     2.30795  |     1.22132
   31 N                |  29 C                |     2.48339  |     1.31415
   32 H                |  31 N                |     1.94050  |     1.02687
   33 H                |  31 N                |     1.88718  |     0.99865
   34 C                |  21 C                |     2.92083  |     1.54564
   35 O                |  34 C                |     2.32037  |     1.22789
   36 N                |  34 C                |     2.51094  |     1.32873
   37 H                |  36 N                |     1.89820  |     1.00449
   38 H                |  36 N                |     1.91126  |     1.01140
 ------------------------------------------------------------------------------
                         number of included internuclear distances:         37
 ==============================================================================



 ==============================================================================
                                 internuclear angles
 ------------------------------------------------------------------------------
        center 1       |       center 2       |       center 3       |  degrees
 ------------------------------------------------------------------------------
    1 H                |   2 C                |   3 H                |   109.84
    1 H                |   2 C                |   4 H                |   110.09
    1 H                |   2 C                |   5 C                |   109.06
    3 H                |   2 C                |   4 H                |   109.77
    3 H                |   2 C                |   5 C                |   109.01
    4 H                |   2 C                |   5 C                |   109.05
    2 C                |   5 C                |   6 O                |   120.15
    2 C                |   5 C                |   7 N                |   116.03
    6 O                |   5 C                |   7 N                |   123.80
    5 C                |   7 N                |   8 H                |   117.87
    5 C                |   7 N                |   9 C                |   125.39
    8 H                |   7 N                |   9 C                |   115.35
    7 N                |   9 C                |  10 H                |   109.20
    7 N                |   9 C                |  11 C                |   109.08
    7 N                |   9 C                |  17 C                |   112.01
   10 H                |   9 C                |  11 C                |   108.71
   10 H                |   9 C                |  17 C                |   107.35
   11 C                |   9 C                |  17 C                |   110.41
    9 C                |  11 C                |  12 H                |   108.36
    9 C                |  11 C                |  13 H                |   107.74
    9 C                |  11 C                |  14 C                |   116.71
   12 H                |  11 C                |  13 H                |   107.25
   12 H                |  11 C                |  14 C                |   108.78
   13 H                |  11 C                |  14 C                |   107.64
   11 C                |  14 C                |  15 O                |   119.88
   11 C                |  14 C                |  16 O                |   117.19
   15 O                |  14 C                |  16 O                |   122.92
    9 C                |  17 C                |  18 O                |   121.41
    9 C                |  17 C                |  19 N                |   116.10
   18 O                |  17 C                |  19 N                |   122.41
   17 C                |  19 N                |  20 H                |   115.06
   17 C                |  19 N                |  21 C                |   127.27
   20 H                |  19 N                |  21 C                |   117.63
   19 N                |  21 C                |  22 H                |   107.82
   19 N                |  21 C                |  23 C                |   107.86
   19 N                |  21 C                |  34 C                |   113.51
   22 H                |  21 C                |  23 C                |   107.85
   22 H                |  21 C                |  34 C                |   106.43
   23 C                |  21 C                |  34 C                |   113.12
   21 C                |  23 C                |  24 H                |   109.67
   21 C                |  23 C                |  25 H                |   107.46
   21 C                |  23 C                |  26 C                |   114.35
   24 H                |  23 C                |  25 H                |   107.18
   24 H                |  23 C                |  26 C                |   108.91
   25 H                |  23 C                |  26 C                |   109.03
   23 C                |  26 C                |  27 H                |   110.60
   23 C                |  26 C                |  28 H                |   109.29
   23 C                |  26 C                |  29 C                |   111.97
   27 H                |  26 C                |  28 H                |   107.82
   27 H                |  26 C                |  29 C                |   107.55
   28 H                |  26 C                |  29 C                |   109.51
   26 C                |  29 C                |  30 O                |   121.76
   26 C                |  29 C                |  31 N                |   119.18
   30 O                |  29 C                |  31 N                |   119.06
   29 C                |  31 N                |  32 H                |   121.34
   29 C                |  31 N                |  33 H                |   117.68
   32 H                |  31 N                |  33 H                |   120.95
   21 C                |  34 C                |  35 O                |   120.85
   21 C                |  34 C                |  36 N                |   119.56
   35 O                |  34 C                |  36 N                |   119.58
   34 C                |  36 N                |  37 H                |   118.68
   34 C                |  36 N                |  38 H                |   120.10
   37 H                |  36 N                |  38 H                |   121.11
 ------------------------------------------------------------------------------
                            number of included internuclear angles:         63
 ==============================================================================



  library name resolved from: environment
  library file name is: </opt/rit/el9/20230413/app/linux-rhel9-x86_64_v3/gcc-11.2.1/nwchem-7.2.0-oxtctbuhfuzyfaoziquq6bki22grib3g/share/nwchem/libraries/>
  


 Summary of "ao basis" -> "" (cartesian)
 ------------------------------------------------------------------------------
       Tag                 Description            Shells   Functions and Types
 ---------------- ------------------------------  ------  ---------------------
 *                        aug-cc-pvdz                 on all atoms 


                      Basis "ao basis" -> "ao basis" (cartesian)
                      -----
  H (Hydrogen)
  ------------
            Exponent  Coefficients 
       -------------- ---------------------------------------------------------
  1 S  1.30100000E+01  0.019685
  1 S  1.96200000E+00  0.137977
  1 S  4.44600000E-01  0.478148

  2 S  1.22000000E-01  1.000000

  3 S  2.97400000E-02  1.000000

  4 P  7.27000000E-01  1.000000

  5 P  1.41000000E-01  1.000000

  C (Carbon)
  ----------
            Exponent  Coefficients 
       -------------- ---------------------------------------------------------
  1 S  6.66500000E+03  0.000692
  1 S  1.00000000E+03  0.005329
  1 S  2.28000000E+02  0.027077
  1 S  6.47100000E+01  0.101718
  1 S  2.10600000E+01  0.274740
  1 S  7.49500000E+00  0.448564
  1 S  2.79700000E+00  0.285074
  1 S  5.21500000E-01  0.015204

  2 S  6.66500000E+03 -0.000146
  2 S  1.00000000E+03 -0.001154
  2 S  2.28000000E+02 -0.005725
  2 S  6.47100000E+01 -0.023312
  2 S  2.10600000E+01 -0.063955
  2 S  7.49500000E+00 -0.149981
  2 S  2.79700000E+00 -0.127262
  2 S  5.21500000E-01  0.544529

  3 S  1.59600000E-01  1.000000

  4 S  4.69000000E-02  1.000000

  5 P  9.43900000E+00  0.038109
  5 P  2.00200000E+00  0.209480
  5 P  5.45600000E-01  0.508557

  6 P  1.51700000E-01  1.000000

  7 P  4.04100000E-02  1.000000

  8 D  5.50000000E-01  1.000000

  9 D  1.51000000E-01  1.000000

  O (Oxygen)
  ----------
            Exponent  Coefficients 
       -------------- ---------------------------------------------------------
  1 S  1.17200000E+04  0.000710
  1 S  1.75900000E+03  0.005470
  1 S  4.00800000E+02  0.027837
  1 S  1.13700000E+02  0.104800
  1 S  3.70300000E+01  0.283062
  1 S  1.32700000E+01  0.448719
  1 S  5.02500000E+00  0.270952
  1 S  1.01300000E+00  0.015458

  2 S  1.17200000E+04 -0.000160
  2 S  1.75900000E+03 -0.001263
  2 S  4.00800000E+02 -0.006267
  2 S  1.13700000E+02 -0.025716
  2 S  3.70300000E+01 -0.070924
  2 S  1.32700000E+01 -0.165411
  2 S  5.02500000E+00 -0.116955
  2 S  1.01300000E+00  0.557368

  3 S  3.02300000E-01  1.000000

  4 S  7.89600000E-02  1.000000

  5 P  1.77000000E+01  0.043018
  5 P  3.85400000E+00  0.228913
  5 P  1.04600000E+00  0.508728

  6 P  2.75300000E-01  1.000000

  7 P  6.85600000E-02  1.000000

  8 D  1.18500000E+00  1.000000

  9 D  3.32000000E-01  1.000000

  N (Nitrogen)
  ------------
            Exponent  Coefficients 
       -------------- ---------------------------------------------------------
  1 S  9.04600000E+03  0.000700
  1 S  1.35700000E+03  0.005389
  1 S  3.09300000E+02  0.027406
  1 S  8.77300000E+01  0.103207
  1 S  2.85600000E+01  0.278723
  1 S  1.02100000E+01  0.448540
  1 S  3.83800000E+00  0.278238
  1 S  7.46600000E-01  0.015440

  2 S  9.04600000E+03 -0.000153
  2 S  1.35700000E+03 -0.001208
  2 S  3.09300000E+02 -0.005992
  2 S  8.77300000E+01 -0.024544
  2 S  2.85600000E+01 -0.067459
  2 S  1.02100000E+01 -0.158078
  2 S  3.83800000E+00 -0.121831
  2 S  7.46600000E-01  0.549003

  3 S  2.24800000E-01  1.000000

  4 S  6.12400000E-02  1.000000

  5 P  1.35500000E+01  0.039919
  5 P  2.91700000E+00  0.217169
  5 P  7.97300000E-01  0.510319

  6 P  2.18500000E-01  1.000000

  7 P  5.61100000E-02  1.000000

  8 D  8.17000000E-01  1.000000

  9 D  2.30000000E-01  1.000000



 Summary of "ao basis" -> "ao basis" (cartesian)
 ------------------------------------------------------------------------------
       Tag                 Description            Shells   Functions and Types
 ---------------- ------------------------------  ------  ---------------------
 H                        aug-cc-pvdz                5        9   3s2p
 C                        aug-cc-pvdz                9       25   4s3p2d
 O                        aug-cc-pvdz                9       25   4s3p2d
 N                        aug-cc-pvdz                9       25   4s3p2d


 ------------------------------------------------------------------------
 scf: no. of closed-shell electrons is not even!                   0
 ------------------------------------------------------------------------
 ------------------------------------------------------------------------
  current input line : 
 scf: no. of closed-shell electrons is not even!                   0
 ------------------------------------------------------------------------
 ------------------------------------------------------------------------
  current input line : 
     0: 
 ------------------------------------------------------------------------
 scf: no. of closed-shell electrons is not even!                   0
 ------------------------------------------------------------------------
 ------------------------------------------------------------------------
  current input line : 
     0: 
 ------------------------------------------------------------------------
 ------------------------------------------------------------------------
 There is an error in the input file
 scf: no. of closed-shell electrons is not even!                   0
 ------------------------------------------------------------------------
 ------------------------------------------------------------------------
  current input line : 
     0: 
 ------------------------------------------------------------------------
 ------------------------------------------------------------------------
 There is an error in the input file
 ------------------------------------------------------------------------
 For more information see the NWChem manual at https://nwchemgit.github.io


 For further details see manual section:                                                                                                                                                                                                                                                                
 scf: no. of closed-shell electrons is not even!                   0
 ------------------------------------------------------------------------
 ------------------------------------------------------------------------
  current input line : 
     0: 
 ------------------------------------------------------------------------
 ------------------------------------------------------------------------
 There is an error in the input file
 ------------------------------------------------------------------------
 For more information see the NWChem manual at https://nwchemgit.github.io


 For further details see manual section:                                                                                                                                                                                                                                                                
 scf: no. of closed-shell electrons is not even!                   0
 ------------------------------------------------------------------------
 ------------------------------------------------------------------------
  current input line : 
     0: 
 ------------------------------------------------------------------------
 ------------------------------------------------------------------------
 There is an error in the input file
 ------------------------------------------------------------------------
 For more information see the NWChem manual at https://nwchemgit.github.io


 For further details see manual section:                                                                                                                                                                                                                                                                
 scf: no. of closed-shell electrons is not even!                   0
 ------------------------------------------------------------------------
 ------------------------------------------------------------------------
  current input line : 
     0: 
 ------------------------------------------------------------------------
 ------------------------------------------------------------------------
 There is an error in the input file
 ------------------------------------------------------------------------
 For more information see the NWChem manual at https://nwchemgit.github.io


 For further details see manual section:                                                                                                                                                                                                                                                                
     0: 
 ------------------------------------------------------------------------
 ------------------------------------------------------------------------
 There is an error in the input file
 ------------------------------------------------------------------------
 For more information see the NWChem manual at https://nwchemgit.github.io


 For further details see manual section:                                                                                                                                                                                                                                                                
1:scf: no. of closed-shell electrons is not even!:Received an Error in Communication
 ------------------------------------------------------------------------
 There is an error in the input file
 ------------------------------------------------------------------------
 For more information see the NWChem manual at https://nwchemgit.github.io


 For further details see manual section:                                                                                                                                                                                                                                                                
2:scf: no. of closed-shell electrons is not even!:Received an Error in Communication
 ------------------------------------------------------------------------
 For more information see the NWChem manual at https://nwchemgit.github.io


 For further details see manual section:                                                                                                                                                                                                                                                                
3:scf: no. of closed-shell electrons is not even!:Received an Error in Communication
4:scf: no. of closed-shell electrons is not even!:Received an Error in Communication
5:scf: no. of closed-shell electrons is not even!:Received an Error in Communication
6:scf: no. of closed-shell electrons is not even!:Received an Error in Communication
7:scf: no. of closed-shell electrons is not even!:Received an Error in Communication
 scf: no. of closed-shell electrons is not even!                   0
 ------------------------------------------------------------------------
 ------------------------------------------------------------------------
  current input line : 
    53: task scf energy
 ------------------------------------------------------------------------
 ------------------------------------------------------------------------
 There is an error in the input file
 ------------------------------------------------------------------------
 For more information see the NWChem manual at https://nwchemgit.github.io


 For further details see manual section:                                                                                                                                                                                                                                                                
0:scf: no. of closed-shell electrons is not even!:Received an Error in Communication
--------------------------------------------------------------------------
MPI_ABORT was invoked on rank 2 in communicator MPI COMMUNICATOR 3 DUP FROM 0
with errorcode -1.

NOTE: invoking MPI_ABORT causes Open MPI to kill all MPI processes.
You may or may not see output from other processes, depending on
exactly when Open MPI kills them.
--------------------------------------------------------------------------
--------------------------------------------------------------------------
MPI_ABORT was invoked on rank 0 in communicator MPI COMMUNICATOR 3 DUP FROM 0
with errorcode -1.

NOTE: invoking MPI_ABORT causes Open MPI to kill all MPI processes.
You may or may not see output from other processes, depending on
exactly when Open MPI kills them.
--------------------------------------------------------------------------
--------------------------------------------------------------------------
MPI_ABORT was invoked on rank 1 in communicator MPI COMMUNICATOR 3 DUP FROM 0
with errorcode -1.

NOTE: invoking MPI_ABORT causes Open MPI to kill all MPI processes.
You may or may not see output from other processes, depending on
exactly when Open MPI kills them.
--------------------------------------------------------------------------
--------------------------------------------------------------------------
MPI_ABORT was invoked on rank 3 in communicator MPI COMMUNICATOR 3 DUP FROM 0
with errorcode -1.

NOTE: invoking MPI_ABORT causes Open MPI to kill all MPI processes.
You may or may not see output from other processes, depending on
exactly when Open MPI kills them.
--------------------------------------------------------------------------
--------------------------------------------------------------------------
MPI_ABORT was invoked on rank 4 in communicator MPI COMMUNICATOR 3 DUP FROM 0
with errorcode -1.

NOTE: invoking MPI_ABORT causes Open MPI to kill all MPI processes.
You may or may not see output from other processes, depending on
exactly when Open MPI kills them.
--------------------------------------------------------------------------
--------------------------------------------------------------------------
MPI_ABORT was invoked on rank 5 in communicator MPI COMMUNICATOR 3 DUP FROM 0
with errorcode -1.

NOTE: invoking MPI_ABORT causes Open MPI to kill all MPI processes.
You may or may not see output from other processes, depending on
exactly when Open MPI kills them.
--------------------------------------------------------------------------
--------------------------------------------------------------------------
MPI_ABORT was invoked on rank 6 in communicator MPI COMMUNICATOR 3 DUP FROM 0
with errorcode -1.

NOTE: invoking MPI_ABORT causes Open MPI to kill all MPI processes.
You may or may not see output from other processes, depending on
exactly when Open MPI kills them.
--------------------------------------------------------------------------
--------------------------------------------------------------------------
MPI_ABORT was invoked on rank 7 in communicator MPI COMMUNICATOR 3 DUP FROM 0
with errorcode -1.

NOTE: invoking MPI_ABORT causes Open MPI to kill all MPI processes.
You may or may not see output from other processes, depending on
exactly when Open MPI kills them.
--------------------------------------------------------------------------
slurmstepd: error: *** STEP 6619389.106 ON nova21-swift-3 CANCELLED AT 2025-07-11T03:00:05 ***
srun: Job step aborted: Waiting up to 32 seconds for job step to finish.
slurmstepd: error: --task-epilog failed status=9
srun: error: nova21-swift-3: task 0: Exited with exit code 255
srun: error: nova21-swift-3: tasks 1-7: Killed
