export TMOUT=5400
export TMPDIR=/tmp
export PTMPDIR=/tmp/ptmp
 argument  1 = inputs/GLN_CYS_2.nw



============================== echo of input deck ==============================
start GLN_CYS_2
geometry
H          5.87200        4.21800       -0.38200
C          5.76700        5.13100        0.20100
H          6.03800        4.93700        1.23700
H          4.73800        5.48400        0.15100
C          6.68200        6.19000       -0.36400
O          6.22600        7.25100       -0.77800
N          7.98200        5.90500       -0.39300
H          8.28200        4.99400       -0.06400
C          8.99500        6.80600       -0.95200
H          8.93400        7.73800       -0.38900
C         10.41100        6.23300       -0.71900
H         11.13300        7.02300       -0.93200
H         10.51100        5.98300        0.33800
C         10.81100        4.99800       -1.55200
H         10.92800        5.28600       -2.59700
H         11.78300        4.64400       -1.20800
C          9.82100        3.84100       -1.44400
O          9.51800        3.35000       -0.37000
N          9.22300        3.40900       -2.52900
H          8.55900        2.66700       -2.41300
H          9.28300        3.95800       -3.37300
C          8.70700        7.13400       -2.43100
O          8.64300        6.24500       -3.27900
N          8.53300        8.42500       -2.73400
H          8.58800        9.09200       -1.98200
C          8.11100        8.93900       -4.04800
H          7.94600       10.01000       -3.92500
C          9.24500        8.79500       -5.07900
H          9.41200        7.73900       -5.29900
H          8.94600        9.29000       -6.00500
S         10.78200        9.55300       -4.47000
H         11.10400        8.57900       -3.61400
C          6.75500        8.39700       -4.56400
O          6.45300        8.50500       -5.74700
N          5.90400        7.83200       -3.71500
H          6.13800        7.73200       -2.73600
H          5.03300        7.48400       -4.07800
end

basis
 * library aug-cc-pvdz
end

echo

scf
 direct
end

task scf energy
================================================================================


                                         
                                         


             Northwest Computational Chemistry Package (NWChem) 7.2.0
             --------------------------------------------------------


                    Environmental Molecular Sciences Laboratory
                       Pacific Northwest National Laboratory
                                Richland, WA 99352

                              Copyright (c) 1994-2022
                       Pacific Northwest National Laboratory
                            Battelle Memorial Institute

             NWChem is an open-source computational chemistry package
                        distributed under the terms of the
                      Educational Community License (ECL) 2.0
             A copy of the license is included with this distribution
                              in the LICENSE.TXT file

                                  ACKNOWLEDGMENT
                                  --------------

            This software and its documentation were developed at the
            EMSL at Pacific Northwest National Laboratory, a multiprogram
            national laboratory, operated for the U.S. Department of Energy
            by Battelle under Contract Number DE-AC05-76RL01830. Support
            for this work was provided by the Department of Energy Office
            of Biological and Environmental Research, Office of Basic
            Energy Sciences, and the Office of Advanced Scientific Computing.


           Job information
           ---------------

    hostname        = nova18-34
    program         = /opt/rit/el9/20230413/app/linux-rhel9-x86_64_v3/gcc-11.2.1/nwchem-7.2.0-oxtctbuhfuzyfaoziquq6bki22grib3g/bin/nwchem
    date            = Thu Jul  3 13:38:33 2025

    compiled        = Wed_May_17_23:46:39_2023
    source          = /tmp/root/spack-stage/spack-stage-nwchem-7.2.0-oxtctbuhfuzyfaoziquq6bki22grib3g/spack-src
    nwchem branch   = 7.2.0
    nwchem revision = d0d141fd
    ga revision     = 5.8.0
    use scalapack   = T
    input           = inputs/GLN_CYS_2.nw
    prefix          = GLN_CYS_2.
    data base       = ./GLN_CYS_2.db
    status          = startup
    nproc           =        1
    time left       =     -1s



           Memory information
           ------------------

    heap     =   26214398 doubles =    200.0 Mbytes
    stack    =   26214395 doubles =    200.0 Mbytes
    global   =   52428800 doubles =    400.0 Mbytes (distinct from heap & stack)
    total    =  104857593 doubles =    800.0 Mbytes
    verify   = yes
    hardfail = no 


           Directory information
           ---------------------

  0 permanent = .
  0 scratch   = .




                                NWChem Input Module
                                -------------------



 Scaling coordinates for geometry "geometry" by  1.889725989
 (inverse scale =  0.529177249)

 C1  symmetry detected

          ------
          auto-z
          ------
  no constraints, skipping    0.0000000000000000     
  no constraints, skipping    0.0000000000000000     


                             Geometry "geometry" -> ""
                             -------------------------

 Output coordinates in angstroms (scale by  1.889725989 to convert to a.u.)

  No.       Tag          Charge          X              Y              Z
 ---- ---------------- ---------- -------------- -------------- --------------
    1 H                    1.0000    -2.53384156    -3.33975342    -0.61936540
    2 C                    6.0000    -2.80511447    -3.05870008     0.39646088
    3 H                    1.0000    -2.63717678    -3.89986803     1.06624174
    4 H                    1.0000    -3.85361351    -2.76639981     0.43052443
    5 C                    6.0000    -1.95159881    -1.89375851     0.83504173
    6 O                    8.0000    -2.46930736    -0.83196929     1.16615277
    7 N                    7.0000    -0.63379203    -2.08201706     0.83187580
    8 H                    1.0000    -0.27654736    -2.97603797     0.51365443
    9 C                    6.0000     0.33301379    -1.03761225     1.18536711
   10 H                    1.0000     0.10543345    -0.72895181     2.20627353
   11 C                    6.0000     1.76622987    -1.61497308     1.20020417
   12 H                    1.0000     2.41755566    -0.88641432     1.68572436
   13 H                    1.0000     1.76902727    -2.51201144     1.82073890
   14 C                    6.0000     2.39300751    -1.96469335    -0.16506485
   15 H                    1.0000     2.59887827    -1.04723165    -0.71691562
   16 H                    1.0000     3.35107714    -2.45605709     0.00552313
   17 C                    6.0000     1.52942229    -2.89407174    -1.01411689
   18 O                    8.0000     1.15871775    -3.98139787    -0.60586939
   19 N                    7.0000     1.11272716    -2.48288837    -2.18831722
   20 H                    1.0000     0.52472413    -3.11048120    -2.70338583
   21 H                    1.0000     1.21040914    -1.50828679    -2.42903905
   22 C                    6.0000     0.18530513     0.20114819     0.27893249
   23 O                    8.0000     0.31801687     0.11612800    -0.94118233
   24 N                    7.0000    -0.09206812     1.35855689     0.88904327
   25 H                    1.0000    -0.19824059     1.34431688     1.89001412
   26 C                    6.0000    -0.41159401     2.62317591     0.20529042
   27 H                    1.0000    -0.70572426     3.33091963     0.98116491
   28 C                    6.0000     0.84374978     3.21423588    -0.46135272
   29 H                    1.0000     1.14952376     2.58296975    -1.29767224
   30 H                    1.0000     0.60249213     4.20349621    -0.85513027
   31 S                   16.0000     2.20729254     3.36667082     0.73251860
   32 H                    1.0000     2.53170220     2.07087550     0.76024691
   33 C                    6.0000    -1.63087883     2.56794720    -0.74815087
   34 O                    8.0000    -1.80289585     3.44463788    -1.58730557
   35 N                    7.0000    -2.50824537     1.57652537    -0.64073718
   36 H                    1.0000    -2.38044966     0.84313452     0.04410084
   37 H                    1.0000    -3.28776618     1.56243124    -1.27608171

      Atomic Mass 
      ----------- 

      H                  1.007825
      C                 12.000000
      O                 15.994910
      N                 14.003070
      S                 31.972070


 Effective nuclear repulsion energy (a.u.)    1727.2331378837

            Nuclear Dipole moment (a.u.) 
            ----------------------------
        X                 Y               Z
 ---------------- ---------------- ----------------
    -0.0000000000    -0.0000000000     0.0000000000



                                Z-matrix (autoz)
                                -------- 

 Units are Angstrom for bonds and degrees for angles

      Type          Name      I     J     K     L     M      Value
      ----------- --------  ----- ----- ----- ----- ----- ----------
    1 Stretch                  1     2                       1.08834
    2 Stretch                  2     3                       1.08829
    3 Stretch                  2     4                       1.08901
    4 Stretch                  2     5                       1.50928
    5 Stretch                  5     6                       1.22681
    6 Stretch                  5     7                       1.33119
    7 Stretch                  7     8                       1.01398
    8 Stretch                  7     9                       1.46644
    9 Stretch                  9    10                       1.09056
   10 Stretch                  9    11                       1.54521
   11 Stretch                  9    22                       1.54207
   12 Stretch                 11    12                       1.09122
   13 Stretch                 11    13                       1.09076
   14 Stretch                 11    14                       1.54244
   15 Stretch                 14    15                       1.09026
   16 Stretch                 14    16                       1.09015
   17 Stretch                 14    17                       1.52657
   18 Stretch                 17    18                       1.21917
   19 Stretch                 17    19                       1.31204
   20 Stretch                 19    20                       1.00245
   21 Stretch                 19    21                       1.00863
   22 Stretch                 22    23                       1.23025
   23 Stretch                 22    24                       1.33745
   24 Stretch                 24    25                       1.00669
   25 Stretch                 24    26                       1.47271
   26 Stretch                 26    27                       1.09059
   27 Stretch                 26    28                       1.53937
   28 Stretch                 26    33                       1.54879
   29 Stretch                 28    29                       1.09152
   30 Stretch                 28    30                       1.09174
   31 Stretch                 28    31                       1.81874
   32 Stretch                 31    32                       1.33607
   33 Stretch                 33    34                       1.22571
   34 Stretch                 33    35                       1.32824
   35 Stretch                 35    36                       1.01153
   36 Stretch                 35    37                       1.00574
   37 Bend                     1     2     3               109.65612
   38 Bend                     1     2     4               109.78491
   39 Bend                     1     2     5               109.24422
   40 Bend                     2     5     6               120.51843
   41 Bend                     2     5     7               116.74231
   42 Bend                     3     2     4               109.68094
   43 Bend                     3     2     5               109.29777
   44 Bend                     4     2     5               109.16027
   45 Bend                     5     7     8               118.30809
   46 Bend                     5     7     9               123.46070
   47 Bend                     6     5     7               122.73779
   48 Bend                     7     9    10               106.83711
   49 Bend                     7     9    11               110.34707
   50 Bend                     7     9    22               111.54786
   51 Bend                     8     7     9               118.11975
   52 Bend                     9    11    12               107.96433
   53 Bend                     9    11    13               108.36852
   54 Bend                     9    11    14               116.94415
   55 Bend                     9    22    23               121.13883
   56 Bend                     9    22    24               116.54483
   57 Bend                    10     9    11               106.87724
   58 Bend                    10     9    22               107.63268
   59 Bend                    11     9    22               113.24364
   60 Bend                    11    14    15               109.50933
   61 Bend                    11    14    16               108.71183
   62 Bend                    11    14    17               113.60675
   63 Bend                    12    11    13               107.12313
   64 Bend                    12    11    14               107.61758
   65 Bend                    13    11    14               108.42425
   66 Bend                    14    17    18               121.91997
   67 Bend                    14    17    19               119.11873
   68 Bend                    15    14    16               107.01061
   69 Bend                    15    14    17               109.73149
   70 Bend                    16    14    17               108.04653
   71 Bend                    17    19    20               116.73821
   72 Bend                    17    19    21               119.05503
   73 Bend                    18    17    19               118.85611
   74 Bend                    20    19    21               122.62333
   75 Bend                    22    24    25               117.59489
   76 Bend                    22    24    26               125.19149
   77 Bend                    23    22    24               122.31634
   78 Bend                    24    26    27               106.58696
   79 Bend                    24    26    28               110.72235
   80 Bend                    24    26    33               115.21385
   81 Bend                    25    24    26               116.80208
   82 Bend                    26    28    29               109.76721
   83 Bend                    26    28    30               108.89951
   84 Bend                    26    28    31               111.05703
   85 Bend                    26    33    34               120.42686
   86 Bend                    26    33    35               119.79172
   87 Bend                    27    26    28               106.19182
   88 Bend                    27    26    33               104.40516
   89 Bend                    28    26    33               112.89807
   90 Bend                    28    31    32                96.56753
   91 Bend                    29    28    30               108.03482
   92 Bend                    29    28    31               109.96226
   93 Bend                    30    28    31               109.05617
   94 Bend                    33    35    36               120.82865
   95 Bend                    33    35    37               118.12163
   96 Bend                    34    33    35               119.77137
   97 Bend                    36    35    37               121.02778
   98 Torsion                  1     2     5     6         120.53550
   99 Torsion                  1     2     5     7         -59.03558
  100 Torsion                  2     5     7     8           1.74251
  101 Torsion                  2     5     7     9         177.82666
  102 Torsion                  3     2     5     6        -119.48230
  103 Torsion                  3     2     5     7          60.94662
  104 Torsion                  4     2     5     6           0.47937
  105 Torsion                  4     2     5     7        -179.09170
  106 Torsion                  5     7     9    10          59.22717
  107 Torsion                  5     7     9    11         175.05942
  108 Torsion                  5     7     9    22         -58.14444
  109 Torsion                  6     5     7     8        -177.81821
  110 Torsion                  6     5     7     9          -1.73406
  111 Torsion                  7     9    11    12        -167.00017
  112 Torsion                  7     9    11    13         -51.29174
  113 Torsion                  7     9    11    14          71.55187
  114 Torsion                  7     9    22    23         -59.24565
  115 Torsion                  7     9    22    24         120.75002
  116 Torsion                  8     7     9    10        -124.68177
  117 Torsion                  8     7     9    11          -8.84952
  118 Torsion                  8     7     9    22         117.94661
  119 Torsion                  9    11    14    15          69.41252
  120 Torsion                  9    11    14    16        -173.99164
  121 Torsion                  9    11    14    17         -53.66193
  122 Torsion                  9    22    24    25          -0.82450
  123 Torsion                  9    22    24    26        -173.20226
  124 Torsion                 10     9    11    12         -51.19305
  125 Torsion                 10     9    11    13          64.51538
  126 Torsion                 10     9    11    14        -172.64101
  127 Torsion                 10     9    22    23        -176.13560
  128 Torsion                 10     9    22    24           3.86006
  129 Torsion                 11     9    22    23          65.95596
  130 Torsion                 11     9    22    24        -114.04838
  131 Torsion                 11    14    17    18         -56.48214
  132 Torsion                 11    14    17    19         119.74502
  133 Torsion                 12    11     9    22          67.15432
  134 Torsion                 12    11    14    15         -52.21674
  135 Torsion                 12    11    14    16          64.37911
  136 Torsion                 12    11    14    17        -175.29118
  137 Torsion                 13    11     9    22        -177.13725
  138 Torsion                 13    11    14    15        -167.77261
  139 Torsion                 13    11    14    16         -51.17676
  140 Torsion                 13    11    14    17          69.15295
  141 Torsion                 14    11     9    22         -54.29364
  142 Torsion                 14    17    19    20        -178.16229
  143 Torsion                 14    17    19    21         -12.12508
  144 Torsion                 15    14    17    18        -179.43469
  145 Torsion                 15    14    17    19          -3.20753
  146 Torsion                 16    14    17    18          64.22258
  147 Torsion                 16    14    17    19        -119.55026
  148 Torsion                 18    17    19    20          -1.81845
  149 Torsion                 18    17    19    21         164.21876
  150 Torsion                 22    24    26    27         173.09434
  151 Torsion                 22    24    26    28         -71.83259
  152 Torsion                 22    24    26    33          57.80641
  153 Torsion                 23    22    24    25         179.17111
  154 Torsion                 23    22    24    26           6.79335
  155 Torsion                 24    26    28    29          68.58793
  156 Torsion                 24    26    28    30        -173.32808
  157 Torsion                 24    26    28    31         -53.22170
  158 Torsion                 24    26    33    34        -163.18259
  159 Torsion                 24    26    33    35          17.97373
  160 Torsion                 25    24    26    27           0.66225
  161 Torsion                 25    24    26    28         115.73532
  162 Torsion                 25    24    26    33        -114.62568
  163 Torsion                 26    28    31    32          75.98884
  164 Torsion                 26    33    35    36          -1.34644
  165 Torsion                 26    33    35    37        -179.66010
  166 Torsion                 27    26    28    29        -176.09199
  167 Torsion                 27    26    28    30         -58.00800
  168 Torsion                 27    26    28    31          62.09838
  169 Torsion                 27    26    33    34          80.28421
  170 Torsion                 27    26    33    35         -98.55947
  171 Torsion                 28    26    33    34         -34.61492
  172 Torsion                 28    26    33    35         146.54140
  173 Torsion                 29    28    26    33         -62.27233
  174 Torsion                 29    28    31    32         -45.70692
  175 Torsion                 30    28    26    33          55.81166
  176 Torsion                 30    28    31    32        -163.99787
  177 Torsion                 31    28    26    33         175.91804
  178 Torsion                 34    33    35    36         179.80223
  179 Torsion                 34    33    35    37           1.48857


            XYZ format geometry
            -------------------
    37
 geometry
 H                    -2.53384156    -3.33975342    -0.61936540
 C                    -2.80511447    -3.05870008     0.39646088
 H                    -2.63717678    -3.89986803     1.06624174
 H                    -3.85361351    -2.76639981     0.43052443
 C                    -1.95159881    -1.89375851     0.83504173
 O                    -2.46930736    -0.83196929     1.16615277
 N                    -0.63379203    -2.08201706     0.83187580
 H                    -0.27654736    -2.97603797     0.51365443
 C                     0.33301379    -1.03761225     1.18536711
 H                     0.10543345    -0.72895181     2.20627353
 C                     1.76622987    -1.61497308     1.20020417
 H                     2.41755566    -0.88641432     1.68572436
 H                     1.76902727    -2.51201144     1.82073890
 C                     2.39300751    -1.96469335    -0.16506485
 H                     2.59887827    -1.04723165    -0.71691562
 H                     3.35107714    -2.45605709     0.00552313
 C                     1.52942229    -2.89407174    -1.01411689
 O                     1.15871775    -3.98139787    -0.60586939
 N                     1.11272716    -2.48288837    -2.18831722
 H                     0.52472413    -3.11048120    -2.70338583
 H                     1.21040914    -1.50828679    -2.42903905
 C                     0.18530513     0.20114819     0.27893249
 O                     0.31801687     0.11612800    -0.94118233
 N                    -0.09206812     1.35855689     0.88904327
 H                    -0.19824059     1.34431688     1.89001412
 C                    -0.41159401     2.62317591     0.20529042
 H                    -0.70572426     3.33091963     0.98116491
 C                     0.84374978     3.21423588    -0.46135272
 H                     1.14952376     2.58296975    -1.29767224
 H                     0.60249213     4.20349621    -0.85513027
 S                     2.20729254     3.36667082     0.73251860
 H                     2.53170220     2.07087550     0.76024691
 C                    -1.63087883     2.56794720    -0.74815087
 O                    -1.80289585     3.44463788    -1.58730557
 N                    -2.50824537     1.57652537    -0.64073718
 H                    -2.38044966     0.84313452     0.04410084
 H                    -3.28776618     1.56243124    -1.27608171

 ==============================================================================
                                internuclear distances
 ------------------------------------------------------------------------------
       center one      |      center two      | atomic units |  angstroms
 ------------------------------------------------------------------------------
    2 C                |   1 H                |     2.05666  |     1.08834
    3 H                |   2 C                |     2.05657  |     1.08829
    4 H                |   2 C                |     2.05794  |     1.08901
    5 C                |   2 C                |     2.85213  |     1.50928
    6 O                |   5 C                |     2.31833  |     1.22681
    7 N                |   5 C                |     2.51558  |     1.33119
    8 H                |   7 N                |     1.91615  |     1.01398
    9 C                |   7 N                |     2.77117  |     1.46644
   10 H                |   9 C                |     2.06085  |     1.09056
   11 C                |   9 C                |     2.92002  |     1.54521
   12 H                |  11 C                |     2.06210  |     1.09122
   13 H                |  11 C                |     2.06123  |     1.09076
   14 C                |  11 C                |     2.91478  |     1.54244
   15 H                |  14 C                |     2.06028  |     1.09026
   16 H                |  14 C                |     2.06009  |     1.09015
   17 C                |  14 C                |     2.88480  |     1.52657
   18 O                |  17 C                |     2.30389  |     1.21917
   19 N                |  17 C                |     2.47940  |     1.31204
   20 H                |  19 N                |     1.89437  |     1.00245
   21 H                |  19 N                |     1.90604  |     1.00863
   22 C                |   9 C                |     2.91408  |     1.54207
   23 O                |  22 C                |     2.32484  |     1.23025
   24 N                |  22 C                |     2.52741  |     1.33745
   25 H                |  24 N                |     1.90236  |     1.00669
   26 C                |  24 N                |     2.78302  |     1.47271
   27 H                |  26 C                |     2.06092  |     1.09059
   28 C                |  26 C                |     2.90898  |     1.53937
   29 H                |  28 C                |     2.06268  |     1.09152
   30 H                |  28 C                |     2.06309  |     1.09174
   31 S                |  28 C                |     3.43692  |     1.81874
   32 H                |  31 S                |     2.52482  |     1.33607
   33 C                |  26 C                |     2.92679  |     1.54879
   34 O                |  33 C                |     2.31625  |     1.22571
   35 N                |  33 C                |     2.51001  |     1.32824
   36 H                |  35 N                |     1.91152  |     1.01153
   37 H                |  35 N                |     1.90057  |     1.00574
 ------------------------------------------------------------------------------
                         number of included internuclear distances:         36
 ==============================================================================



 ==============================================================================
                                 internuclear angles
 ------------------------------------------------------------------------------
        center 1       |       center 2       |       center 3       |  degrees
 ------------------------------------------------------------------------------
    1 H                |   2 C                |   3 H                |   109.66
    1 H                |   2 C                |   4 H                |   109.78
    1 H                |   2 C                |   5 C                |   109.24
    3 H                |   2 C                |   4 H                |   109.68
    3 H                |   2 C                |   5 C                |   109.30
    4 H                |   2 C                |   5 C                |   109.16
    2 C                |   5 C                |   6 O                |   120.52
    2 C                |   5 C                |   7 N                |   116.74
    6 O                |   5 C                |   7 N                |   122.74
    5 C                |   7 N                |   8 H                |   118.31
    5 C                |   7 N                |   9 C                |   123.46
    8 H                |   7 N                |   9 C                |   118.12
    7 N                |   9 C                |  10 H                |   106.84
    7 N                |   9 C                |  11 C                |   110.35
    7 N                |   9 C                |  22 C                |   111.55
   10 H                |   9 C                |  11 C                |   106.88
   10 H                |   9 C                |  22 C                |   107.63
   11 C                |   9 C                |  22 C                |   113.24
    9 C                |  11 C                |  12 H                |   107.96
    9 C                |  11 C                |  13 H                |   108.37
    9 C                |  11 C                |  14 C                |   116.94
   12 H                |  11 C                |  13 H                |   107.12
   12 H                |  11 C                |  14 C                |   107.62
   13 H                |  11 C                |  14 C                |   108.42
   11 C                |  14 C                |  15 H                |   109.51
   11 C                |  14 C                |  16 H                |   108.71
   11 C                |  14 C                |  17 C                |   113.61
   15 H                |  14 C                |  16 H                |   107.01
   15 H                |  14 C                |  17 C                |   109.73
   16 H                |  14 C                |  17 C                |   108.05
   14 C                |  17 C                |  18 O                |   121.92
   14 C                |  17 C                |  19 N                |   119.12
   18 O                |  17 C                |  19 N                |   118.86
   17 C                |  19 N                |  20 H                |   116.74
   17 C                |  19 N                |  21 H                |   119.06
   20 H                |  19 N                |  21 H                |   122.62
    9 C                |  22 C                |  23 O                |   121.14
    9 C                |  22 C                |  24 N                |   116.54
   23 O                |  22 C                |  24 N                |   122.32
   22 C                |  24 N                |  25 H                |   117.59
   22 C                |  24 N                |  26 C                |   125.19
   25 H                |  24 N                |  26 C                |   116.80
   24 N                |  26 C                |  27 H                |   106.59
   24 N                |  26 C                |  28 C                |   110.72
   24 N                |  26 C                |  33 C                |   115.21
   27 H                |  26 C                |  28 C                |   106.19
   27 H                |  26 C                |  33 C                |   104.41
   28 C                |  26 C                |  33 C                |   112.90
   26 C                |  28 C                |  29 H                |   109.77
   26 C                |  28 C                |  30 H                |   108.90
   26 C                |  28 C                |  31 S                |   111.06
   29 H                |  28 C                |  30 H                |   108.03
   29 H                |  28 C                |  31 S                |   109.96
   30 H                |  28 C                |  31 S                |   109.06
   28 C                |  31 S                |  32 H                |    96.57
   26 C                |  33 C                |  34 O                |   120.43
   26 C                |  33 C                |  35 N                |   119.79
   34 O                |  33 C                |  35 N                |   119.77
   33 C                |  35 N                |  36 H                |   120.83
   33 C                |  35 N                |  37 H                |   118.12
   36 H                |  35 N                |  37 H                |   121.03
 ------------------------------------------------------------------------------
                            number of included internuclear angles:         61
 ==============================================================================



  library name resolved from: environment
  library file name is: </opt/rit/el9/20230413/app/linux-rhel9-x86_64_v3/gcc-11.2.1/nwchem-7.2.0-oxtctbuhfuzyfaoziquq6bki22grib3g/share/nwchem/libraries/>
  


 Summary of "ao basis" -> "" (cartesian)
 ------------------------------------------------------------------------------
       Tag                 Description            Shells   Functions and Types
 ---------------- ------------------------------  ------  ---------------------
 *                        aug-cc-pvdz                 on all atoms 


                      Basis "ao basis" -> "ao basis" (cartesian)
                      -----
  H (Hydrogen)
  ------------
            Exponent  Coefficients 
       -------------- ---------------------------------------------------------
  1 S  1.30100000E+01  0.019685
  1 S  1.96200000E+00  0.137977
  1 S  4.44600000E-01  0.478148

  2 S  1.22000000E-01  1.000000

  3 S  2.97400000E-02  1.000000

  4 P  7.27000000E-01  1.000000

  5 P  1.41000000E-01  1.000000

  C (Carbon)
  ----------
            Exponent  Coefficients 
       -------------- ---------------------------------------------------------
  1 S  6.66500000E+03  0.000692
  1 S  1.00000000E+03  0.005329
  1 S  2.28000000E+02  0.027077
  1 S  6.47100000E+01  0.101718
  1 S  2.10600000E+01  0.274740
  1 S  7.49500000E+00  0.448564
  1 S  2.79700000E+00  0.285074
  1 S  5.21500000E-01  0.015204

  2 S  6.66500000E+03 -0.000146
  2 S  1.00000000E+03 -0.001154
  2 S  2.28000000E+02 -0.005725
  2 S  6.47100000E+01 -0.023312
  2 S  2.10600000E+01 -0.063955
  2 S  7.49500000E+00 -0.149981
  2 S  2.79700000E+00 -0.127262
  2 S  5.21500000E-01  0.544529

  3 S  1.59600000E-01  1.000000

  4 S  4.69000000E-02  1.000000

  5 P  9.43900000E+00  0.038109
  5 P  2.00200000E+00  0.209480
  5 P  5.45600000E-01  0.508557

  6 P  1.51700000E-01  1.000000

  7 P  4.04100000E-02  1.000000

  8 D  5.50000000E-01  1.000000

  9 D  1.51000000E-01  1.000000

  O (Oxygen)
  ----------
            Exponent  Coefficients 
       -------------- ---------------------------------------------------------
  1 S  1.17200000E+04  0.000710
  1 S  1.75900000E+03  0.005470
  1 S  4.00800000E+02  0.027837
  1 S  1.13700000E+02  0.104800
  1 S  3.70300000E+01  0.283062
  1 S  1.32700000E+01  0.448719
  1 S  5.02500000E+00  0.270952
  1 S  1.01300000E+00  0.015458

  2 S  1.17200000E+04 -0.000160
  2 S  1.75900000E+03 -0.001263
  2 S  4.00800000E+02 -0.006267
  2 S  1.13700000E+02 -0.025716
  2 S  3.70300000E+01 -0.070924
  2 S  1.32700000E+01 -0.165411
  2 S  5.02500000E+00 -0.116955
  2 S  1.01300000E+00  0.557368

  3 S  3.02300000E-01  1.000000

  4 S  7.89600000E-02  1.000000

  5 P  1.77000000E+01  0.043018
  5 P  3.85400000E+00  0.228913
  5 P  1.04600000E+00  0.508728

  6 P  2.75300000E-01  1.000000

  7 P  6.85600000E-02  1.000000

  8 D  1.18500000E+00  1.000000

  9 D  3.32000000E-01  1.000000

  N (Nitrogen)
  ------------
            Exponent  Coefficients 
       -------------- ---------------------------------------------------------
  1 S  9.04600000E+03  0.000700
  1 S  1.35700000E+03  0.005389
  1 S  3.09300000E+02  0.027406
  1 S  8.77300000E+01  0.103207
  1 S  2.85600000E+01  0.278723
  1 S  1.02100000E+01  0.448540
  1 S  3.83800000E+00  0.278238
  1 S  7.46600000E-01  0.015440

  2 S  9.04600000E+03 -0.000153
  2 S  1.35700000E+03 -0.001208
  2 S  3.09300000E+02 -0.005992
  2 S  8.77300000E+01 -0.024544
  2 S  2.85600000E+01 -0.067459
  2 S  1.02100000E+01 -0.158078
  2 S  3.83800000E+00 -0.121831
  2 S  7.46600000E-01  0.549003

  3 S  2.24800000E-01  1.000000

  4 S  6.12400000E-02  1.000000

  5 P  1.35500000E+01  0.039919
  5 P  2.91700000E+00  0.217169
  5 P  7.97300000E-01  0.510319

  6 P  2.18500000E-01  1.000000

  7 P  5.61100000E-02  1.000000

  8 D  8.17000000E-01  1.000000

  9 D  2.30000000E-01  1.000000

  S (Sulphur)
  -----------
            Exponent  Coefficients 
       -------------- ---------------------------------------------------------
  1 S  1.10800000E+05  0.000248
  1 S  1.66100000E+04  0.001920
  1 S  3.78100000E+03  0.009962
  1 S  1.07100000E+03  0.040298
  1 S  3.49800000E+02  0.128604
  1 S  1.26300000E+02  0.303480
  1 S  4.92600000E+01  0.421432
  1 S  2.01600000E+01  0.230781
  1 S  5.72000000E+00  0.017897
  1 S  2.18200000E+00 -0.002975
  1 S  4.32700000E-01  0.000850

  2 S  1.10800000E+05 -0.000069
  2 S  1.66100000E+04 -0.000528
  2 S  3.78100000E+03 -0.002797
  2 S  1.07100000E+03 -0.011265
  2 S  3.49800000E+02 -0.038883
  2 S  1.26300000E+02 -0.099503
  2 S  4.92600000E+01 -0.199740
  2 S  2.01600000E+01 -0.123360
  2 S  5.72000000E+00  0.513194
  2 S  2.18200000E+00  0.607120
  2 S  4.32700000E-01  0.039675

  3 S  1.10800000E+05  0.000020
  3 S  1.66100000E+04  0.000153
  3 S  3.78100000E+03  0.000810
  3 S  1.07100000E+03  0.003290
  3 S  3.49800000E+02  0.011297
  3 S  1.26300000E+02  0.029639
  3 S  4.92600000E+01  0.059985
  3 S  2.01600000E+01  0.041325
  3 S  5.72000000E+00 -0.207474
  3 S  2.18200000E+00 -0.392889
  3 S  4.32700000E-01  0.632840

  4 S  1.57000000E-01  1.000000

  5 S  5.07000000E-02  1.000000

  6 P  3.99700000E+02  0.004475
  6 P  9.41900000E+01  0.034171
  6 P  2.97500000E+01  0.144250
  6 P  1.07700000E+01  0.353928
  6 P  4.11900000E+00  0.459085
  6 P  1.62500000E+00  0.206383
  6 P  4.72600000E-01  0.010214

  7 P  3.99700000E+02 -0.001163
  7 P  9.41900000E+01 -0.008657
  7 P  2.97500000E+01 -0.039089
  7 P  1.07700000E+01 -0.093463
  7 P  4.11900000E+00 -0.147994
  7 P  1.62500000E+00  0.030190
  7 P  4.72600000E-01  0.561573

  8 P  1.40700000E-01  1.000000

  9 P  3.99000000E-02  1.000000

 10 D  4.79000000E-01  1.000000

 11 D  1.52000000E-01  1.000000



 Summary of "ao basis" -> "ao basis" (cartesian)
 ------------------------------------------------------------------------------
       Tag                 Description            Shells   Functions and Types
 ---------------- ------------------------------  ------  ---------------------
 H                        aug-cc-pvdz                5        9   3s2p
 C                        aug-cc-pvdz                9       25   4s3p2d
 O                        aug-cc-pvdz                9       25   4s3p2d
 N                        aug-cc-pvdz                9       25   4s3p2d
 S                        aug-cc-pvdz               11       29   5s4p2d


                                 NWChem SCF Module
                                 -----------------



  ao basis        = "ao basis"
  functions       =   641
  atoms           =    37
  closed shells   =    77
  open shells     =     0
  charge          =   0.00
  wavefunction    = RHF 
  input vectors   = atomic
  output vectors  = ./GLN_CYS_2.movecs
  use symmetry    = F
  symmetry adapt  = F


 Summary of "ao basis" -> "ao basis" (cartesian)
 ------------------------------------------------------------------------------
       Tag                 Description            Shells   Functions and Types
 ---------------- ------------------------------  ------  ---------------------
 H                        aug-cc-pvdz                5        9   3s2p
 C                        aug-cc-pvdz                9       25   4s3p2d
 O                        aug-cc-pvdz                9       25   4s3p2d
 N                        aug-cc-pvdz                9       25   4s3p2d
 S                        aug-cc-pvdz               11       29   5s4p2d



 Forming initial guess at       1.1s


 !! The overlap matrix has   5 vectors deemed linearly dependent with
    eigenvalues:
 1.80D-06 3.05D-06 4.77D-06 7.15D-06 8.11D-06


      Superposition of Atomic Density Guess
      -------------------------------------

 Sum of atomic energies:       -1299.41518133

      Non-variational initial energy
      ------------------------------

 Total energy =   -1311.323297
 1-e energy   =   -5212.135728
 2-e energy   =    2173.579293
 HOMO         =      -0.289774
 LUMO         =       0.008901


 Starting SCF solution at     740.4s



 ----------------------------------------------
         Quadratically convergent ROHF

 Convergence threshold     :          1.000E-04
 Maximum no. of iterations :           30
 Final Fock-matrix accuracy:          1.000E-10
 ----------------------------------------------


              iter       energy          gnorm     gmax       time
             ----- ------------------- --------- --------- --------
                 1    -1303.7116423675  2.68D+00  1.26D-01   1545.6
                 2    -1304.0941996122  8.84D-01  3.44D-02   3160.7
                 3    -1304.1633777123  6.97D-02  3.80D-03   5444.1
                 4    -1304.1641170374  4.49D-03  2.79D-04   8466.1
                 5    -1304.1641207471  9.55D-06  4.52D-07  13695.3


       Final RHF  results 
       ------------------ 

         Total SCF energy =  -1304.164120747097
      One-electron energy =  -5224.703571972597
      Two-electron energy =   2193.306313341830
 Nuclear repulsion energy =   1727.233137883670

        Time for solution =  12957.9s


             Final eigenvalues
             -----------------

              1      
    1  -91.9651
    2  -20.5521
    3  -20.5446
    4  -20.5332
    5  -20.5173
    6  -15.6225
    7  -15.6104
    8  -15.5978
    9  -15.5773
   10  -11.3836
   11  -11.3725
   12  -11.3659
   13  -11.3561
   14  -11.3217
   15  -11.3129
   16  -11.2782
   17  -11.2766
   18  -11.2664
   19  -11.2521
   20   -8.9662
   21   -6.6485
   22   -6.6472
   23   -6.6451
   24   -1.4160
   25   -1.4061
   26   -1.4036
   27   -1.3790
   28   -1.2686
   29   -1.2614
   30   -1.2319
   31   -1.2045
   32   -1.1086
   33   -1.0829
   34   -1.0324
   35   -0.9956
   36   -0.9714
   37   -0.8955
   38   -0.8602
   39   -0.8384
   40   -0.8149
   41   -0.8010
   42   -0.7757
   43   -0.7487
   44   -0.7422
   45   -0.7363
   46   -0.6983
   47   -0.6954
   48   -0.6925
   49   -0.6733
   50   -0.6601
   51   -0.6402
   52   -0.6338
   53   -0.6192
   54   -0.6164
   55   -0.6118
   56   -0.6006
   57   -0.5923
   58   -0.5870
   59   -0.5774
   60   -0.5752
   61   -0.5618
   62   -0.5427
   63   -0.5381
   64   -0.5345
   65   -0.5283
   66   -0.5226
   67   -0.5097
   68   -0.4676
   69   -0.4571
   70   -0.4485
   71   -0.4365
   72   -0.4351
   73   -0.4203
   74   -0.4106
   75   -0.4059
   76   -0.3966
   77   -0.3674
   78    0.0247
   79    0.0324
   80    0.0353
   81    0.0411
   82    0.0488
   83    0.0525
   84    0.0550
   85    0.0569
   86    0.0592
   87    0.0703

                       ROHF Final Molecular Orbital Analysis
                       -------------------------------------

 Vector   24  Occ=2.000000D+00  E=-1.415954D+00
              MO Center= -3.2D-01, -2.8D-01, -2.6D-02, r^2= 3.4D+00
   Bfn.  Coefficient  Atom+Function         Bfn.  Coefficient  Atom+Function  
  ----- ------------  ---------------      ----- ------------  ---------------
   377      0.316540  23 O  s               376      0.286216  23 O  s         
   351      0.206956  22 C  s                80      0.177720   6 O  s         
   173     -0.173976  11 C  s                79      0.168784   6 O  s         
    12      0.165190   2 C  s         

 Vector   25  Occ=2.000000D+00  E=-1.406075D+00
              MO Center=  1.2D+00, -3.3D+00, -8.4D-01, r^2= 1.8D+00
   Bfn.  Coefficient  Atom+Function         Bfn.  Coefficient  Atom+Function  
  ----- ------------  ---------------      ----- ------------  ---------------
   284      0.361474  18 O  s               283      0.339910  18 O  s         
   258      0.239864  17 C  s         

 Vector   26  Occ=2.000000D+00  E=-1.403570D+00
              MO Center= -1.5D+00, -9.2D-01,  6.4D-01, r^2= 3.1D+00
   Bfn.  Coefficient  Atom+Function         Bfn.  Coefficient  Atom+Function  
  ----- ------------  ---------------      ----- ------------  ---------------
    80      0.317787   6 O  s                79      0.309772   6 O  s         
    54      0.210292   5 C  s               377     -0.194781  23 O  s         
   376     -0.175339  23 O  s         

 Vector   27  Occ=2.000000D+00  E=-1.379024D+00
              MO Center= -1.8D+00,  3.0D+00, -1.2D+00, r^2= 1.1D+00
   Bfn.  Coefficient  Atom+Function         Bfn.  Coefficient  Atom+Function  
  ----- ------------  ---------------      ----- ------------  ---------------
   576      0.379165  34 O  s               575      0.351107  34 O  s         
   550      0.245393  33 C  s         

 Vector   28  Occ=2.000000D+00  E=-1.268562D+00
              MO Center= -1.4D-01,  9.8D-01,  5.0D-01, r^2= 2.5D+00
   Bfn.  Coefficient  Atom+Function         Bfn.  Coefficient  Atom+Function  
  ----- ------------  ---------------      ----- ------------  ---------------
   402      0.359218  24 N  s               401      0.323758  24 N  s         
   377     -0.235283  23 O  s               376     -0.186607  23 O  s         
   356      0.159238  22 C  pz        

 Vector   29  Occ=2.000000D+00  E=-1.261367D+00
              MO Center= -8.0D-01, -1.5D+00,  8.5D-01, r^2= 2.7D+00
   Bfn.  Coefficient  Atom+Function         Bfn.  Coefficient  Atom+Function  
  ----- ------------  ---------------      ----- ------------  ---------------
   105      0.420165   7 N  s               104      0.330481   7 N  s         
    80     -0.207565   6 O  s                79     -0.171269   6 O  s         
    57      0.156233   5 C  px        

 Vector   30  Occ=2.000000D+00  E=-1.231851D+00
              MO Center=  1.2D+00, -2.7D+00, -1.8D+00, r^2= 1.3D+00
   Bfn.  Coefficient  Atom+Function         Bfn.  Coefficient  Atom+Function  
  ----- ------------  ---------------      ----- ------------  ---------------
   308      0.367106  19 N  s               309      0.346553  19 N  s         
   284     -0.229682  18 O  s               283     -0.189886  18 O  s         
   216     -0.181433  14 C  s               263     -0.165809  17 C  pz        
   341      0.163800  21 H  s               332      0.156004  20 H  s         
   260      0.151957  17 C  s         

 Vector   31  Occ=2.000000D+00  E=-1.204528D+00
              MO Center= -2.2D+00,  1.9D+00, -6.9D-01, r^2= 1.5D+00
   Bfn.  Coefficient  Atom+Function         Bfn.  Coefficient  Atom+Function  
  ----- ------------  ---------------      ----- ------------  ---------------
   601      0.392183  35 N  s               600      0.370036  35 N  s         
   576     -0.206975  34 O  s               436     -0.181831  26 C  s         
   554     -0.180346  33 C  py              575     -0.173313  34 O  s         
   624      0.162421  36 H  s               633      0.159115  37 H  s         
   556      0.152125  33 C  px        

 Vector   32  Occ=2.000000D+00  E=-1.108626D+00
              MO Center=  8.9D-01, -1.1D+00,  6.5D-01, r^2= 5.4D+00
   Bfn.  Coefficient  Atom+Function         Bfn.  Coefficient  Atom+Function  
  ----- ------------  ---------------      ----- ------------  ---------------
   172      0.233242  11 C  s               138      0.178038   9 C  s         
   215      0.176432  14 C  s         

 Vector   33  Occ=2.000000D+00  E=-1.082939D+00
              MO Center=  8.4D-01,  2.1D+00,  1.1D-01, r^2= 5.6D+00
   Bfn.  Coefficient  Atom+Function         Bfn.  Coefficient  Atom+Function  
  ----- ------------  ---------------      ----- ------------  ---------------
   469      0.240758  28 C  s               513      0.193706  31 S  s         
   435      0.186609  26 C  s               443     -0.165818  26 C  pz        
   436      0.164924  26 C  s         

 Vector   34  Occ=2.000000D+00  E=-1.032395D+00
              MO Center= -5.5D-01, -1.9D+00,  3.7D-01, r^2= 8.1D+00
   Bfn.  Coefficient  Atom+Function         Bfn.  Coefficient  Atom+Function  
  ----- ------------  ---------------      ----- ------------  ---------------
    11      0.244403   2 C  s               215      0.187281  14 C  s         
   174      0.151673  11 C  s         

 Vector   35  Occ=2.000000D+00  E=-9.956052D-01
              MO Center= -2.9D-01, -1.8D-02,  4.0D-01, r^2= 1.2D+01
   Bfn.  Coefficient  Atom+Function         Bfn.  Coefficient  Atom+Function  
  ----- ------------  ---------------      ----- ------------  ---------------
   513      0.214659  31 S  s                11      0.211673   2 C  s         

 Vector   36  Occ=2.000000D+00  E=-9.714309D-01
              MO Center=  4.1D-01,  3.5D-01,  3.2D-01, r^2= 1.1D+01
   Bfn.  Coefficient  Atom+Function         Bfn.  Coefficient  Atom+Function  
  ----- ------------  ---------------      ----- ------------  ---------------
   513      0.213479  31 S  s               216      0.210512  14 C  s         
   435     -0.176678  26 C  s               514      0.155859  31 S  s         

 Vector   37  Occ=2.000000D+00  E=-8.955477D-01
              MO Center=  1.1D+00, -8.4D-01,  3.7D-01, r^2= 7.0D+00
   Bfn.  Coefficient  Atom+Function         Bfn.  Coefficient  Atom+Function  
  ----- ------------  ---------------      ----- ------------  ---------------
   216      0.390886  14 C  s               172     -0.218534  11 C  s         
   139      0.177897   9 C  s               223     -0.172970  14 C  pz        
   146     -0.159697   9 C  pz              436      0.155281  26 C  s         

 Vector   38  Occ=2.000000D+00  E=-8.602261D-01
              MO Center=  6.5D-01,  1.8D+00,  1.1D-01, r^2= 7.9D+00
   Bfn.  Coefficient  Atom+Function         Bfn.  Coefficient  Atom+Function  
  ----- ------------  ---------------      ----- ------------  ---------------
   514      0.287810  31 S  s               513      0.223115  31 S  s         
   469     -0.217664  28 C  s               441     -0.189667  26 C  px        
   216      0.166260  14 C  s         

 Vector   39  Occ=2.000000D+00  E=-8.383691D-01
              MO Center= -7.4D-01,  4.1D-01,  1.9D-01, r^2= 8.0D+00
   Bfn.  Coefficient  Atom+Function         Bfn.  Coefficient  Atom+Function  
  ----- ------------  ---------------      ----- ------------  ---------------
   139      0.220173   9 C  s               441     -0.215667  26 C  px        
   436      0.199499  26 C  s               107     -0.196381   7 N  px        
   361      0.193110  22 C  py              550      0.168197  33 C  s         
   552     -0.159340  33 C  s         

 Vector   40  Occ=2.000000D+00  E=-8.149469D-01
              MO Center= -6.5D-01, -6.6D-01,  6.6D-01, r^2= 5.6D+00
   Bfn.  Coefficient  Atom+Function         Bfn.  Coefficient  Atom+Function  
  ----- ------------  ---------------      ----- ------------  ---------------
   128      0.232547   8 H  s               107      0.228116   7 N  px        
   105      0.179085   7 N  s               406     -0.179157  24 N  pz        
    60     -0.177039   5 C  px               12     -0.171229   2 C  s         
   139     -0.167029   9 C  s               108     -0.163043   7 N  py        
    54     -0.157684   5 C  s               129      0.157219   8 H  s         

 Vector   41  Occ=2.000000D+00  E=-8.010308D-01
              MO Center=  1.2D+00, -2.4D+00, -1.2D+00, r^2= 3.9D+00
   Bfn.  Coefficient  Atom+Function         Bfn.  Coefficient  Atom+Function  
  ----- ------------  ---------------      ----- ------------  ---------------
   313      0.295248  19 N  pz              258      0.214225  17 C  s         
   341     -0.207245  21 H  s               284     -0.180301  18 O  s         
   263     -0.166520  17 C  pz              332     -0.152758  20 H  s         
   259      0.150328  17 C  s         

 Vector   42  Occ=2.000000D+00  E=-7.756623D-01
              MO Center= -1.0D+00,  1.7D+00, -2.2D-01, r^2= 5.2D+00
   Bfn.  Coefficient  Atom+Function         Bfn.  Coefficient  Atom+Function  
  ----- ------------  ---------------      ----- ------------  ---------------
   604      0.234472  35 N  py              406      0.200085  24 N  pz        
   425      0.197139  25 H  s               443     -0.185003  26 C  pz        
   556     -0.183708  33 C  px              624     -0.182850  36 H  s         
   550      0.164786  33 C  s               603      0.164444  35 N  px        
   576     -0.161988  34 O  s         

 Vector   43  Occ=2.000000D+00  E=-7.487007D-01
              MO Center= -6.5D-02, -3.6D-01,  4.6D-01, r^2= 6.1D+00
   Bfn.  Coefficient  Atom+Function         Bfn.  Coefficient  Atom+Function  
  ----- ------------  ---------------      ----- ------------  ---------------
   145      0.248633   9 C  py              352     -0.241405  22 C  s         
   406      0.206536  24 N  pz               55     -0.202308   5 C  s         
   355     -0.173350  22 C  py              108     -0.166469   7 N  py        
   163     -0.164721  10 H  s               128      0.158517   8 H  s         
   425      0.156216  25 H  s               373     -0.154594  22 C  dyz       

 Vector   44  Occ=2.000000D+00  E=-7.422254D-01
              MO Center=  9.3D-01, -2.2D+00, -1.4D+00, r^2= 4.8D+00
   Bfn.  Coefficient  Atom+Function         Bfn.  Coefficient  Atom+Function  
  ----- ------------  ---------------      ----- ------------  ---------------
   312      0.346266  19 N  py              341      0.273486  21 H  s         
   332     -0.265064  20 H  s               216     -0.164210  14 C  s         

 Vector   45  Occ=2.000000D+00  E=-7.363346D-01
              MO Center= -1.4D+00,  1.1D+00, -1.4D-01, r^2= 5.4D+00
   Bfn.  Coefficient  Atom+Function         Bfn.  Coefficient  Atom+Function  
  ----- ------------  ---------------      ----- ------------  ---------------
   624      0.252048  36 H  s               605      0.227261  35 N  pz        
   552      0.213026  33 C  s               625      0.195181  36 H  s         
   604     -0.188520  35 N  py              633     -0.180248  37 H  s         

 Vector   46  Occ=2.000000D+00  E=-6.982867D-01
              MO Center= -4.1D-01,  3.2D-02,  2.4D-01, r^2= 7.5D+00
   Bfn.  Coefficient  Atom+Function         Bfn.  Coefficient  Atom+Function  
  ----- ------------  ---------------      ----- ------------  ---------------
   143      0.201720   9 C  pz              162      0.180468  10 H  s         
   108     -0.170532   7 N  py              358      0.150215  22 C  py        
   551     -0.150077  33 C  s         

 Vector   47  Occ=2.000000D+00  E=-6.953991D-01
              MO Center=  3.0D-01, -2.1D+00, -8.4D-02, r^2= 8.1D+00
   Bfn.  Coefficient  Atom+Function         Bfn.  Coefficient  Atom+Function  
  ----- ------------  ---------------      ----- ------------  ---------------
   263      0.203924  17 C  pz               83     -0.180283   6 O  py        
   287      0.176085  18 O  py              219     -0.169813  14 C  py        
   266      0.161081  17 C  pz              239     -0.150393  15 H  s         

 Vector   48  Occ=2.000000D+00  E=-6.924977D-01
              MO Center= -6.9D-01, -5.4D-01,  2.3D-01, r^2= 1.0D+01
   Bfn.  Coefficient  Atom+Function         Bfn.  Coefficient  Atom+Function  
  ----- ------------  ---------------      ----- ------------  ---------------
   216      0.247032  14 C  s                57     -0.162368   5 C  px        

 Vector   49  Occ=2.000000D+00  E=-6.733291D-01
              MO Center= -5.4D-01, -1.0D+00,  2.6D-01, r^2= 8.9D+00
   Bfn.  Coefficient  Atom+Function         Bfn.  Coefficient  Atom+Function  
  ----- ------------  ---------------      ----- ------------  ---------------
   139      0.229129   9 C  s                83      0.211470   6 O  py        
   145      0.188813   9 C  py               80      0.179293   6 O  s         
   361      0.166599  22 C  py              263      0.152505  17 C  pz        

 Vector   50  Occ=2.000000D+00  E=-6.600805D-01
              MO Center= -1.5D-01,  8.9D-01, -3.3D-01, r^2= 9.9D+00
   Bfn.  Coefficient  Atom+Function         Bfn.  Coefficient  Atom+Function  
  ----- ------------  ---------------      ----- ------------  ---------------
   352      0.262894  22 C  s               381      0.188797  23 O  pz        
   402     -0.165731  24 N  s               440      0.151322  26 C  pz        

 Vector   51  Occ=2.000000D+00  E=-6.402000D-01
              MO Center= -4.0D-02,  7.0D-01, -4.0D-01, r^2= 8.4D+00
   Bfn.  Coefficient  Atom+Function         Bfn.  Coefficient  Atom+Function  
  ----- ------------  ---------------      ----- ------------  ---------------
   381      0.274537  23 O  pz              356     -0.204104  22 C  pz        
   377     -0.198185  23 O  s         

 Vector   52  Occ=2.000000D+00  E=-6.337788D-01
              MO Center= -7.4D-01, -1.9D+00,  4.1D-01, r^2= 7.5D+00
   Bfn.  Coefficient  Atom+Function         Bfn.  Coefficient  Atom+Function  
  ----- ------------  ---------------      ----- ------------  ---------------
   352     -0.229602  22 C  s               217      0.226048  14 C  s         
   139      0.212303   9 C  s                59     -0.200977   5 C  pz        
    35     -0.187399   3 H  s                16     -0.180532   2 C  pz        
   240     -0.171754  15 H  s               109     -0.154377   7 N  pz        

 Vector   53  Occ=2.000000D+00  E=-6.192456D-01
              MO Center=  2.8D-01, -3.5D-02,  9.1D-02, r^2= 1.1D+01
   Bfn.  Coefficient  Atom+Function         Bfn.  Coefficient  Atom+Function  
  ----- ------------  ---------------      ----- ------------  ---------------
   404      0.185673  24 N  px        

 Vector   54  Occ=2.000000D+00  E=-6.163502D-01
              MO Center= -1.0D-01, -7.9D-01, -7.9D-03, r^2= 1.0D+01
   Bfn.  Coefficient  Atom+Function         Bfn.  Coefficient  Atom+Function  
  ----- ------------  ---------------      ----- ------------  ---------------
   287      0.190159  18 O  py              145      0.185567   9 C  py        
   197      0.176554  12 H  s               404     -0.174349  24 N  px        
   217      0.171138  14 C  s         

 Vector   55  Occ=2.000000D+00  E=-6.117998D-01
              MO Center=  5.3D-01, -1.3D+00, -1.7D-02, r^2= 1.0D+01
   Bfn.  Coefficient  Atom+Function         Bfn.  Coefficient  Atom+Function  
  ----- ------------  ---------------      ----- ------------  ---------------
   176      0.203492  11 C  py              287      0.182141  18 O  py        
   217     -0.168145  14 C  s               262     -0.166348  17 C  py        
   197      0.158202  12 H  s               260      0.158592  17 C  s         
   284     -0.152107  18 O  s               356     -0.150601  22 C  pz        

 Vector   56  Occ=2.000000D+00  E=-6.006250D-01
              MO Center= -1.2D+00,  5.9D-02, -9.5D-03, r^2= 1.1D+01
   Bfn.  Coefficient  Atom+Function         Bfn.  Coefficient  Atom+Function  
  ----- ------------  ---------------      ----- ------------  ---------------
    58      0.218546   5 C  py               82      0.199130   6 O  px        
   579      0.186912  34 O  py              174      0.173126  11 C  s         
   352     -0.155313  22 C  s               580     -0.152828  34 O  pz        

 Vector   57  Occ=2.000000D+00  E=-5.922685D-01
              MO Center=  5.1D-01, -1.2D+00, -4.9D-01, r^2= 1.0D+01
   Bfn.  Coefficient  Atom+Function         Bfn.  Coefficient  Atom+Function  
  ----- ------------  ---------------      ----- ------------  ---------------
   261      0.218040  17 C  px              286      0.199923  18 O  px        
   163     -0.196918  10 H  s               173      0.197579  11 C  s         
   289      0.162676  18 O  px              162     -0.158182  10 H  s         
   287     -0.155075  18 O  py              311      0.150828  19 N  px        

 Vector   58  Occ=2.000000D+00  E=-5.869935D-01
              MO Center= -6.1D-01,  9.2D-02,  6.9D-02, r^2= 1.2D+01
   Bfn.  Coefficient  Atom+Function         Bfn.  Coefficient  Atom+Function  
  ----- ------------  ---------------      ----- ------------  ---------------
   145      0.192683   9 C  py               82      0.178425   6 O  px        
    58      0.176882   5 C  py              173      0.172545  11 C  s         
   471     -0.165117  28 C  s                15     -0.154311   2 C  py        

 Vector   59  Occ=2.000000D+00  E=-5.774009D-01
              MO Center= -9.9D-01,  1.9D+00, -5.3D-01, r^2= 7.7D+00
   Bfn.  Coefficient  Atom+Function         Bfn.  Coefficient  Atom+Function  
  ----- ------------  ---------------      ----- ------------  ---------------
   580      0.251108  34 O  pz              554      0.213891  33 C  py        
   605      0.170410  35 N  pz              472      0.167250  28 C  px        
   583      0.155827  34 O  pz              440      0.153948  26 C  pz        
   475      0.152986  28 C  px        

 Vector   60  Occ=2.000000D+00  E=-5.752171D-01
              MO Center= -1.4D+00, -2.4D+00,  1.3D-01, r^2= 9.1D+00
   Bfn.  Coefficient  Atom+Function         Bfn.  Coefficient  Atom+Function  
  ----- ------------  ---------------      ----- ------------  ---------------
    14      0.305019   2 C  px               44     -0.304996   4 H  s         
    45     -0.233469   4 H  s                56      0.181102   5 C  s         
   174     -0.154123  11 C  s               113      0.152394   7 N  px        

 Vector   61  Occ=2.000000D+00  E=-5.617987D-01
              MO Center=  2.3D-01,  1.5D-01,  6.0D-02, r^2= 1.0D+01
   Bfn.  Coefficient  Atom+Function         Bfn.  Coefficient  Atom+Function  
  ----- ------------  ---------------      ----- ------------  ---------------
   379      0.228745  23 O  px              354      0.175329  22 C  px        
   382      0.174857  23 O  px        

 Vector   62  Occ=2.000000D+00  E=-5.426950D-01
              MO Center=  6.4D-01, -1.3D+00,  4.1D-01, r^2= 8.6D+00
   Bfn.  Coefficient  Atom+Function         Bfn.  Coefficient  Atom+Function  
  ----- ------------  ---------------      ----- ------------  ---------------
   197      0.315122  12 H  s               196      0.228240  12 H  s         
   206     -0.223101  13 H  s               175      0.197224  11 C  px        
   288      0.182295  18 O  pz              176      0.168805  11 C  py        
   240     -0.164913  15 H  s               262      0.150454  17 C  py        

 Vector   63  Occ=2.000000D+00  E=-5.381117D-01
              MO Center= -8.5D-01, -1.6D+00,  4.2D-01, r^2= 9.3D+00
   Bfn.  Coefficient  Atom+Function         Bfn.  Coefficient  Atom+Function  
  ----- ------------  ---------------      ----- ------------  ---------------
    84     -0.225191   6 O  pz               16      0.221521   2 C  pz        
     1     -0.191906   1 H  s                35      0.176314   3 H  s         
    87     -0.168374   6 O  pz              109     -0.167916   7 N  pz        
    59     -0.164183   5 C  pz              112     -0.160117   7 N  pz        

 Vector   64  Occ=2.000000D+00  E=-5.345389D-01
              MO Center=  1.2D+00, -8.5D-01,  1.6D-01, r^2= 7.3D+00
   Bfn.  Coefficient  Atom+Function         Bfn.  Coefficient  Atom+Function  
  ----- ------------  ---------------      ----- ------------  ---------------
   173      0.363919  11 C  s               177      0.243846  11 C  pz        
   220     -0.241944  14 C  pz              144     -0.240394   9 C  px        
   260      0.240636  17 C  s               239      0.216364  15 H  s         
   139     -0.214786   9 C  s               205      0.214413  13 H  s         
   240      0.213071  15 H  s               380     -0.208921  23 O  py        

 Vector   65  Occ=2.000000D+00  E=-5.282836D-01
              MO Center=  6.6D-01,  2.3D+00,  5.5D-02, r^2= 7.5D+00
   Bfn.  Coefficient  Atom+Function         Bfn.  Coefficient  Atom+Function  
  ----- ------------  ---------------      ----- ------------  ---------------
   502     -0.241752  30 H  s               494      0.239629  29 H  s         
   540     -0.233156  32 H  s               473     -0.188377  28 C  py        
   520      0.183310  31 S  py              519     -0.172258  31 S  px        
   471     -0.168590  28 C  s               514      0.156551  31 S  s         
   474      0.154163  28 C  pz        

 Vector   66  Occ=2.000000D+00  E=-5.225964D-01
              MO Center= -4.2D-01,  1.8D+00, -2.8D-01, r^2= 7.2D+00
   Bfn.  Coefficient  Atom+Function         Bfn.  Coefficient  Atom+Function  
  ----- ------------  ---------------      ----- ------------  ---------------
   470      0.253504  28 C  s               361     -0.205045  22 C  py        
   459     -0.203674  27 H  s               460     -0.198166  27 H  s         
   475     -0.196448  28 C  px              440     -0.183313  26 C  pz        
   472     -0.177919  28 C  px              494     -0.176886  29 H  s         
   260     -0.174243  17 C  s               216      0.168189  14 C  s         

 Vector   67  Occ=2.000000D+00  E=-5.097451D-01
              MO Center=  8.5D-01, -1.5D+00,  4.4D-01, r^2= 6.3D+00
   Bfn.  Coefficient  Atom+Function         Bfn.  Coefficient  Atom+Function  
  ----- ------------  ---------------      ----- ------------  ---------------
   218      0.190663  14 C  px              248      0.186619  16 H  s         
   175     -0.185611  11 C  px              141      0.183504   9 C  px        
   162     -0.180817  10 H  s                84      0.179834   6 O  pz        
   197      0.166663  12 H  s               174     -0.157556  11 C  s         
   163     -0.152484  10 H  s               178     -0.152599  11 C  px        

 Vector   68  Occ=2.000000D+00  E=-4.676095D-01
              MO Center=  1.3D+00,  2.8D+00,  2.6D-01, r^2= 6.0D+00
   Bfn.  Coefficient  Atom+Function         Bfn.  Coefficient  Atom+Function  
  ----- ------------  ---------------      ----- ------------  ---------------
   514      0.354796  31 S  s               520      0.251935  31 S  py        
   521      0.207121  31 S  pz              523      0.203215  31 S  py        
   519      0.186650  31 S  px              475     -0.168228  28 C  px        
   380      0.166367  23 O  py              472     -0.166570  28 C  px        
   477     -0.166579  28 C  pz              578     -0.160141  34 O  px        

 Vector   69  Occ=2.000000D+00  E=-4.571226D-01
              MO Center= -2.9D-03, -1.0D-01, -1.5D-01, r^2= 6.6D+00
   Bfn.  Coefficient  Atom+Function         Bfn.  Coefficient  Atom+Function  
  ----- ------------  ---------------      ----- ------------  ---------------
   380      0.379677  23 O  py              383      0.308206  23 O  py        
    84      0.193547   6 O  pz              109     -0.190130   7 N  pz        
   358     -0.171089  22 C  py              112     -0.164784   7 N  pz        
   206      0.163446  13 H  s                87      0.150192   6 O  pz        

 Vector   70  Occ=2.000000D+00  E=-4.484525D-01
              MO Center= -1.0D+00, -5.5D-01,  4.1D-01, r^2= 8.5D+00
   Bfn.  Coefficient  Atom+Function         Bfn.  Coefficient  Atom+Function  
  ----- ------------  ---------------      ----- ------------  ---------------
    82      0.348146   6 O  px               85      0.290942   6 O  px        
   361     -0.231867  22 C  py              552      0.200186  33 C  s         
   379      0.192365  23 O  px               83      0.187014   6 O  py        
   404     -0.170017  24 N  px              288      0.160645  18 O  pz        
   382      0.159588  23 O  px               15      0.157750   2 C  py        

 Vector   71  Occ=2.000000D+00  E=-4.365144D-01
              MO Center= -1.0D+00,  8.4D-01,  1.4D-01, r^2= 8.4D+00
   Bfn.  Coefficient  Atom+Function         Bfn.  Coefficient  Atom+Function  
  ----- ------------  ---------------      ----- ------------  ---------------
    82      0.287865   6 O  px              404      0.235728  24 N  px        
   578      0.235371  34 O  px               85      0.230498   6 O  px        
   407      0.210186  24 N  px              581      0.185433  34 O  px        
   460      0.162073  27 H  s                83      0.157330   6 O  py        

 Vector   72  Occ=2.000000D+00  E=-4.350538D-01
              MO Center=  1.0D+00, -3.0D+00, -4.9D-01, r^2= 4.7D+00
   Bfn.  Coefficient  Atom+Function         Bfn.  Coefficient  Atom+Function  
  ----- ------------  ---------------      ----- ------------  ---------------
   288      0.440647  18 O  pz              291      0.358545  18 O  pz        
   173      0.302473  11 C  s               197     -0.241183  12 H  s         
   266     -0.206441  17 C  pz              286      0.192837  18 O  px        
   259     -0.186241  17 C  s               361     -0.154307  22 C  py        
   264     -0.152986  17 C  px              106     -0.151961   7 N  s         

 Vector   73  Occ=2.000000D+00  E=-4.203164D-01
              MO Center=  8.4D-01, -2.9D+00, -1.0D+00, r^2= 4.1D+00
   Bfn.  Coefficient  Atom+Function         Bfn.  Coefficient  Atom+Function  
  ----- ------------  ---------------      ----- ------------  ---------------
   286      0.368024  18 O  px              311     -0.309581  19 N  px        
   289      0.300063  18 O  px              314     -0.261584  19 N  px        
   313      0.216304  19 N  pz              316      0.200468  19 N  pz        
   109     -0.176568   7 N  pz              112     -0.158800   7 N  pz        
   310     -0.157243  19 N  s               361      0.155174  22 C  py        

 Vector   74  Occ=2.000000D+00  E=-4.106323D-01
              MO Center= -5.3D-01, -1.1D+00,  2.7D-01, r^2= 5.9D+00
   Bfn.  Coefficient  Atom+Function         Bfn.  Coefficient  Atom+Function  
  ----- ------------  ---------------      ----- ------------  ---------------
   109      0.336800   7 N  pz              112      0.298917   7 N  pz        
    84     -0.230933   6 O  pz              380      0.216658  23 O  py        
   383      0.191181  23 O  py               87     -0.186520   6 O  pz        
   358     -0.178110  22 C  py              352      0.165417  22 C  s         
    56      0.160309   5 C  s               311     -0.154041  19 N  px        

 Vector   75  Occ=2.000000D+00  E=-4.059193D-01
              MO Center= -1.1D+00,  2.3D+00, -5.9D-01, r^2= 4.6D+00
   Bfn.  Coefficient  Atom+Function         Bfn.  Coefficient  Atom+Function  
  ----- ------------  ---------------      ----- ------------  ---------------
   578      0.406089  34 O  px              581      0.318733  34 O  px        
   404     -0.278011  24 N  px              407     -0.261091  24 N  px        
   470      0.194229  28 C  s               604      0.191294  35 N  py        
   379      0.169016  23 O  px              361      0.158750  22 C  py        

 Vector   76  Occ=2.000000D+00  E=-3.965888D-01
              MO Center= -1.8D+00,  2.1D+00, -8.5D-01, r^2= 3.7D+00
   Bfn.  Coefficient  Atom+Function         Bfn.  Coefficient  Atom+Function  
  ----- ------------  ---------------      ----- ------------  ---------------
   580      0.281923  34 O  pz              605     -0.272707  35 N  pz        
   603      0.243503  35 N  px              579      0.235453  34 O  py        
   608     -0.229298  35 N  pz              583      0.216845  34 O  pz        
   606      0.215724  35 N  px              582      0.188201  34 O  py        
   604     -0.186937  35 N  py              607     -0.162391  35 N  py        

 Vector   77  Occ=2.000000D+00  E=-3.674234D-01
              MO Center=  2.0D+00,  3.3D+00,  6.2D-01, r^2= 2.4D+00
   Bfn.  Coefficient  Atom+Function         Bfn.  Coefficient  Atom+Function  
  ----- ------------  ---------------      ----- ------------  ---------------
   521      0.393942  31 S  pz              524      0.393149  31 S  pz        
   519     -0.337439  31 S  px              522     -0.309378  31 S  px        
   403     -0.269886  24 N  s               441     -0.220319  26 C  px        
   470      0.216595  28 C  s               552      0.216407  33 C  s         

 Vector   78  Occ=0.000000D+00  E= 2.471750D-02
              MO Center=  1.9D+00, -1.1D+00,  2.6D+00, r^2= 2.4D+01
   Bfn.  Coefficient  Atom+Function         Bfn.  Coefficient  Atom+Function  
  ----- ------------  ---------------      ----- ------------  ---------------
    56      4.715443   5 C  s               149      2.896484   9 C  pz        
   164     -2.466179  10 H  s               360      2.224487  22 C  px        
   130      2.003417   8 H  s                63      1.757251   5 C  px        
   113      1.765240   7 N  px              181      1.759762  11 C  px        
    13      1.741008   2 C  s               198     -1.708826  12 H  s         

 Vector   79  Occ=0.000000D+00  E= 3.240529D-02
              MO Center= -2.1D+00, -2.8D+00, -1.4D+00, r^2= 2.8D+01
   Bfn.  Coefficient  Atom+Function         Bfn.  Coefficient  Atom+Function  
  ----- ------------  ---------------      ----- ------------  ---------------
   147      3.526283   9 C  px               63      3.466927   5 C  px        
   217     -3.210858  14 C  s               310      2.934202  19 N  s         
    56      2.781012   5 C  s                64      2.228276   5 C  py        
   361      2.184863  22 C  py               12     -1.913576   2 C  s         
   269      1.823333  17 C  pz              260     -1.765643  17 C  s         

 Vector   80  Occ=0.000000D+00  E= 3.530412D-02
              MO Center=  1.9D+00, -1.5D+00,  4.6D-01, r^2= 3.4D+01
   Bfn.  Coefficient  Atom+Function         Bfn.  Coefficient  Atom+Function  
  ----- ------------  ---------------      ----- ------------  ---------------
   250      3.678351  16 H  s               147     -2.781504   9 C  px        
   224     -2.675743  14 C  px              217      2.300694  14 C  s         
   164     -2.240199  10 H  s               207     -1.889575  13 H  s         
   139      1.874970   9 C  s               362      1.863992  22 C  pz        
   226      1.845201  14 C  pz              181     -1.809388  11 C  px        

 Vector   81  Occ=0.000000D+00  E= 4.114700D-02
              MO Center= -2.4D-01,  3.1D-02,  1.9D+00, r^2= 3.9D+01
   Bfn.  Coefficient  Atom+Function         Bfn.  Coefficient  Atom+Function  
  ----- ------------  ---------------      ----- ------------  ---------------
   361      5.447220  22 C  py              207      3.417592  13 H  s         
   362     -2.999528  22 C  pz              260      2.977073  17 C  s         
   461     -2.877781  27 H  s               403     -2.714956  24 N  s         
    37      2.446433   3 H  s               360     -2.328751  22 C  px        
   106      2.188506   7 N  s               183     -2.196493  11 C  pz        

 Vector   82  Occ=0.000000D+00  E= 4.881807D-02
              MO Center= -1.5D+00, -1.9D+00, -8.4D-01, r^2= 3.8D+01
   Bfn.  Coefficient  Atom+Function         Bfn.  Coefficient  Atom+Function  
  ----- ------------  ---------------      ----- ------------  ---------------
   260      5.146975  17 C  s                63      3.365385   5 C  px        
    56      3.191062   5 C  s               310     -3.189613  19 N  s         
    46      3.007507   4 H  s               164     -2.913883  10 H  s         
   147      2.829960   9 C  px              149      2.512020   9 C  pz        
   174     -2.520725  11 C  s               360     -2.372601  22 C  px        

 Vector   83  Occ=0.000000D+00  E= 5.253366D-02
              MO Center=  3.4D-01, -2.1D-01,  3.0D-01, r^2= 4.2D+01
   Bfn.  Coefficient  Atom+Function         Bfn.  Coefficient  Atom+Function  
  ----- ------------  ---------------      ----- ------------  ---------------
   198      4.397394  12 H  s                37     -2.808930   3 H  s         
   360      2.655072  22 C  px              241     -2.540046  15 H  s         
   362     -2.240264  22 C  pz              504     -2.047113  30 H  s         
   182     -2.024103  11 C  py                3      1.914015   1 H  s         
    56      1.755326   5 C  s               602      1.663760  35 N  s         

 Vector   84  Occ=0.000000D+00  E= 5.497221D-02
              MO Center=  1.6D+00, -2.9D-01,  8.0D-01, r^2= 4.0D+01
   Bfn.  Coefficient  Atom+Function         Bfn.  Coefficient  Atom+Function  
  ----- ------------  ---------------      ----- ------------  ---------------
   250      4.021483  16 H  s               198     -2.870677  12 H  s         
   224     -2.641927  14 C  px              461      2.488410  27 H  s         
   552     -2.042662  33 C  s               217      1.813889  14 C  s         
   361     -1.781699  22 C  py              182      1.765612  11 C  py        
   207      1.750525  13 H  s               515      1.741770  31 S  s         

 Vector   85  Occ=0.000000D+00  E= 5.687576D-02
              MO Center= -5.3D-01, -2.2D-01, -8.0D-01, r^2= 4.0D+01
   Bfn.  Coefficient  Atom+Function         Bfn.  Coefficient  Atom+Function  
  ----- ------------  ---------------      ----- ------------  ---------------
   403      4.502188  24 N  s               164     -3.758494  10 H  s         
   149      3.435216   9 C  pz              260     -3.121275  17 C  s         
   446     -2.955914  26 C  pz               56      2.619894   5 C  s         
   207     -2.536184  13 H  s               495     -2.447261  29 H  s         
   427      2.428540  25 H  s               471     -2.252938  28 C  s         

 Vector   86  Occ=0.000000D+00  E= 5.922047D-02
              MO Center=  6.3D-01,  1.4D+00,  4.9D-01, r^2= 4.3D+01
   Bfn.  Coefficient  Atom+Function         Bfn.  Coefficient  Atom+Function  
  ----- ------------  ---------------      ----- ------------  ---------------
   164      3.837160  10 H  s               504     -3.708407  30 H  s         
   471     -3.446602  28 C  s               207     -3.090631  13 H  s         
   149     -2.935451   9 C  pz              241      2.872924  15 H  s         
   361      2.885342  22 C  py              515      2.198010  31 S  s         
   198     -2.137936  12 H  s               480     -2.135331  28 C  pz        

 Vector   87  Occ=0.000000D+00  E= 7.031541D-02
              MO Center= -1.8D+00, -1.1D-01, -2.4D-02, r^2= 4.6D+01
   Bfn.  Coefficient  Atom+Function         Bfn.  Coefficient  Atom+Function  
  ----- ------------  ---------------      ----- ------------  ---------------
    56      4.431424   5 C  s                46      4.351319   4 H  s         
   552      3.984786  33 C  s               174     -3.933319  11 C  s         
   504      3.760667  30 H  s               602     -3.334955  35 N  s         
    37     -3.070938   3 H  s               106     -2.543411   7 N  s         
   130     -2.524359   8 H  s               147      2.437081   9 C  px        

 Vector   88  Occ=0.000000D+00  E= 7.497455D-02
              MO Center= -1.0D+00, -2.0D+00, -1.1D+00, r^2= 3.9D+01
   Bfn.  Coefficient  Atom+Function         Bfn.  Coefficient  Atom+Function  
  ----- ------------  ---------------      ----- ------------  ---------------
     3      5.893302   1 H  s                46     -3.725346   4 H  s         
   198     -3.629337  12 H  s               164      2.974590  10 H  s         
[...]
    12      8.624588   2 C  s               310     -7.887134  19 N  s         
   362      7.453652  22 C  pz               63      6.932252   5 C  px        
    45     -6.576759   4 H  s               412     -6.343247  24 N  pz        

 Vector  186  Occ=0.000000D+00  E= 4.314591D-01
              MO Center= -8.1D-02, -1.3D-01,  1.9D-01, r^2= 1.8D+01
   Bfn.  Coefficient  Atom+Function         Bfn.  Coefficient  Atom+Function  
  ----- ------------  ---------------      ----- ------------  ---------------
   361     11.132372  22 C  py              148     -9.988654   9 C  py        
   147      8.344223   9 C  px              260     -6.698349  17 C  s         
   403      6.375380  24 N  s               216     -5.710769  14 C  s         
   181      5.031597  11 C  px              183     -4.855650  11 C  pz        
   360     -4.471828  22 C  px              149      4.053453   9 C  pz        

 Vector  187  Occ=0.000000D+00  E= 4.359704D-01
              MO Center= -4.5D-02, -6.0D-01,  7.8D-02, r^2= 1.9D+01
   Bfn.  Coefficient  Atom+Function         Bfn.  Coefficient  Atom+Function  
  ----- ------------  ---------------      ----- ------------  ---------------
   174     18.673302  11 C  s                56    -13.934778   5 C  s         
   471     13.556303  28 C  s               149     -9.959385   9 C  pz        
   403     -9.469655  24 N  s               260     -8.863396  17 C  s         
   113     -7.349822   7 N  px              147     -5.626142   9 C  px        
   164      5.249699  10 H  s               360     -4.815278  22 C  px        

 Vector  188  Occ=0.000000D+00  E= 4.447327D-01
              MO Center=  1.7D-02, -7.3D-01, -6.8D-02, r^2= 2.0D+01
   Bfn.  Coefficient  Atom+Function         Bfn.  Coefficient  Atom+Function  
  ----- ------------  ---------------      ----- ------------  ---------------
   174     10.760994  11 C  s               403    -10.786500  24 N  s         
   360    -10.677668  22 C  px              471      7.091367  28 C  s         
   113     -5.329426   7 N  px              241      5.141213  15 H  s         
   445     -4.218328  26 C  py              206     -4.143590  13 H  s         
   480      4.132118  28 C  pz              503     -4.143570  30 H  s         

 Vector  189  Occ=0.000000D+00  E= 4.472642D-01
              MO Center= -1.9D-01,  3.2D-01, -1.2D-01, r^2= 2.1D+01
   Bfn.  Coefficient  Atom+Function         Bfn.  Coefficient  Atom+Function  
  ----- ------------  ---------------      ----- ------------  ---------------
    56     15.377265   5 C  s               310    -12.495561  19 N  s         
   147     11.672716   9 C  px              260     11.316540  17 C  s         
   174    -10.766686  11 C  s               106     10.257447   7 N  s         
   552     -9.985660  33 C  s               181      7.457568  11 C  px        
   471      7.380411  28 C  s                12      6.788091   2 C  s         

 Vector  190  Occ=0.000000D+00  E= 4.503398D-01
              MO Center= -6.9D-01, -4.0D-01,  1.6D-01, r^2= 2.0D+01
   Bfn.  Coefficient  Atom+Function         Bfn.  Coefficient  Atom+Function  
  ----- ------------  ---------------      ----- ------------  ---------------
   552     15.555628  33 C  s               147     -8.102452   9 C  px        
   360      7.898470  22 C  px              412      7.262670  24 N  pz        
   106     -7.167454   7 N  s               403     -6.853573  24 N  s         
   471     -6.629505  28 C  s               174      6.407394  11 C  s         
   602     -6.294526  35 N  s               444      5.387363  26 C  px        

 Vector  191  Occ=0.000000D+00  E= 4.589203D-01
              MO Center=  5.0D-01, -6.3D-01, -4.3D-02, r^2= 2.1D+01
   Bfn.  Coefficient  Atom+Function         Bfn.  Coefficient  Atom+Function  
  ----- ------------  ---------------      ----- ------------  ---------------
   403     20.667839  24 N  s               174    -16.392941  11 C  s         
   217     13.090548  14 C  s               361    -13.109846  22 C  py        
    56     11.375392   5 C  s               260     -8.873143  17 C  s         
   412     -7.965267  24 N  pz              552     -6.249700  33 C  s         
   241     -6.013246  15 H  s               310      6.039503  19 N  s         

 Vector  192  Occ=0.000000D+00  E= 4.605661D-01
              MO Center= -4.6D-01, -6.9D-01, -4.7D-01, r^2= 1.9D+01
   Bfn.  Coefficient  Atom+Function         Bfn.  Coefficient  Atom+Function  
  ----- ------------  ---------------      ----- ------------  ---------------
   217      7.662204  14 C  s               362      7.547391  22 C  pz        
   471     -7.557120  28 C  s               310     -6.961051  19 N  s         
   361     -5.712616  22 C  py              552      5.534813  33 C  s         
   149     -4.593089   9 C  pz              444      4.582792  26 C  px        
   387     -4.504296  23 O  pz              378     -4.400476  23 O  s         

 Vector  193  Occ=0.000000D+00  E= 4.621944D-01
              MO Center= -6.0D-01, -4.7D-01,  1.5D-01, r^2= 2.3D+01
   Bfn.  Coefficient  Atom+Function         Bfn.  Coefficient  Atom+Function  
  ----- ------------  ---------------      ----- ------------  ---------------
   552     11.174964  33 C  s               602     -9.303298  35 N  s         
   147     -8.506602   9 C  px                2     -6.153804   1 H  s         
   260     -5.971568  17 C  s               471     -5.577424  28 C  s         
   437      5.240219  26 C  s               106     -5.206722   7 N  s         
   444      5.063268  26 C  px               12      4.911565   2 C  s         

 Vector  194  Occ=0.000000D+00  E= 4.646610D-01
              MO Center= -6.3D-01,  4.9D-01, -1.5D-01, r^2= 2.1D+01
   Bfn.  Coefficient  Atom+Function         Bfn.  Coefficient  Atom+Function  
  ----- ------------  ---------------      ----- ------------  ---------------
   360      4.959767  22 C  px              559     -4.749598  33 C  px        
   471      4.707042  28 C  s               503     -4.149092  30 H  s         
   560     -3.826977  33 C  py              106      3.670108   7 N  s         
   403     -3.346169  24 N  s               609      3.279759  35 N  px        
   362      3.030878  22 C  pz              114      3.002683   7 N  py        

 Vector  195  Occ=0.000000D+00  E= 4.745154D-01
              MO Center=  1.1D-01, -1.9D-01, -1.6D-02, r^2= 1.8D+01
   Bfn.  Coefficient  Atom+Function         Bfn.  Coefficient  Atom+Function  
  ----- ------------  ---------------      ----- ------------  ---------------
   552     21.022966  33 C  s               471    -13.132520  28 C  s         
   106    -11.920744   7 N  s               361    -10.599698  22 C  py        
   260     10.371893  17 C  s               444      9.936718  26 C  px        
   113     -9.540654   7 N  px              197     -7.942470  12 H  s         
   240     -7.974508  15 H  s               310     -7.885418  19 N  s         

 Vector  196  Occ=0.000000D+00  E= 4.757624D-01
              MO Center= -1.4D-01, -7.5D-01,  1.6D-01, r^2= 2.2D+01
   Bfn.  Coefficient  Atom+Function         Bfn.  Coefficient  Atom+Function  
  ----- ------------  ---------------      ----- ------------  ---------------
   174     33.703064  11 C  s               217    -24.982739  14 C  s         
   471    -14.831589  28 C  s               353     12.876288  22 C  s         
   140     10.512552   9 C  s               552    -10.554401  33 C  s         
   361      8.993250  22 C  py               13      8.886384   2 C  s         
   183     -8.511212  11 C  pz              206     -8.356605  13 H  s         

 Vector  197  Occ=0.000000D+00  E= 4.803695D-01
              MO Center=  4.9D-01, -3.3D-01, -1.8D-01, r^2= 2.0D+01
   Bfn.  Coefficient  Atom+Function         Bfn.  Coefficient  Atom+Function  
  ----- ------------  ---------------      ----- ------------  ---------------
   174     23.711859  11 C  s               217    -23.201978  14 C  s         
   260     18.256111  17 C  s               361     17.087395  22 C  py        
   360    -13.039441  22 C  px               56    -11.571014   5 C  s         
   353     10.306400  22 C  s               412     -9.199379  24 N  pz        
   552     -9.172505  33 C  s               140      8.137129   9 C  s         

 Vector  198  Occ=0.000000D+00  E= 4.833513D-01
              MO Center= -5.1D-01,  3.7D-01, -4.2D-01, r^2= 2.1D+01
   Bfn.  Coefficient  Atom+Function         Bfn.  Coefficient  Atom+Function  
  ----- ------------  ---------------      ----- ------------  ---------------
   174      8.212105  11 C  s               217     -8.140616  14 C  s         
   471     -7.243520  28 C  s               260     -7.176037  17 C  s         
   310      5.629315  19 N  s               148     -5.290321   9 C  py        
   503      4.745300  30 H  s               602      4.085904  35 N  s         
   362      3.864606  22 C  pz              360     -3.747515  22 C  px        

 Vector  199  Occ=0.000000D+00  E= 4.860606D-01
              MO Center=  1.8D-01, -5.4D-01, -3.0D-01, r^2= 2.0D+01
   Bfn.  Coefficient  Atom+Function         Bfn.  Coefficient  Atom+Function  
  ----- ------------  ---------------      ----- ------------  ---------------
   260     23.240435  17 C  s               174    -19.060381  11 C  s         
   310    -14.950017  19 N  s               552     14.146539  33 C  s         
   217     12.590833  14 C  s               197      9.458050  12 H  s         
   602     -8.665876  35 N  s               226      8.322989  14 C  pz        
   173     -7.950122  11 C  s               148      7.850414   9 C  py        

 Vector  200  Occ=0.000000D+00  E= 4.907473D-01
              MO Center=  4.6D-01,  1.2D+00, -2.0D-01, r^2= 1.7D+01
   Bfn.  Coefficient  Atom+Function         Bfn.  Coefficient  Atom+Function  
  ----- ------------  ---------------      ----- ------------  ---------------
   552     13.196313  33 C  s               260     -9.435337  17 C  s         
   310      8.549781  19 N  s               217     -7.100128  14 C  s         
   494     -6.922549  29 H  s               479     -6.592044  28 C  py        
   148     -6.135113   9 C  py              411     -5.872592  24 N  py        
   113     -5.804486   7 N  px              602     -5.749498  35 N  s         

 Vector  201  Occ=0.000000D+00  E= 4.946494D-01
              MO Center=  3.8D-01,  7.3D-02,  2.1D-02, r^2= 1.9D+01
   Bfn.  Coefficient  Atom+Function         Bfn.  Coefficient  Atom+Function  
  ----- ------------  ---------------      ----- ------------  ---------------
   217     18.049493  14 C  s               403     14.194465  24 N  s         
   260    -12.660982  17 C  s               174    -10.307159  11 C  s         
   445      8.246978  26 C  py              552     -7.806565  33 C  s         
    56      7.703050   5 C  s               310      7.537022  19 N  s         
   139      7.253860   9 C  s               173     -7.047091  11 C  s         

 Vector  202  Occ=0.000000D+00  E= 5.045701D-01
              MO Center=  4.3D-01, -2.7D-01,  5.8D-01, r^2= 1.8D+01
   Bfn.  Coefficient  Atom+Function         Bfn.  Coefficient  Atom+Function  
  ----- ------------  ---------------      ----- ------------  ---------------
    56     12.837475   5 C  s               173    -11.534556  11 C  s         
   260    -10.956342  17 C  s               148      9.718277   9 C  py        
   445     -8.882486  26 C  py              206      8.657896  13 H  s         
   412     -8.166870  24 N  pz              471      7.134693  28 C  s         
   552      6.858878  33 C  s               174     -6.640220  11 C  s         


 center of mass
 --------------
 x =  -0.00285548 y =   0.05945907 z =  -0.00982739

 moments of inertia (a.u.)
 ------------------
        7387.828914289470           0.000000000000          -0.000000000001
           0.000000000000        4062.618601995852          -0.000000000000
          -0.000000000001          -0.000000000000        9331.103703818884

  Mulliken analysis of the total density
  --------------------------------------

    Atom       Charge   Shell Charges
 -----------   ------   -------------------------------------------------------
    1 H    1     0.85   0.76  0.12 -0.01  0.03 -0.06
    2 C    6     6.19   2.01  0.66  0.27  0.03  2.07  0.99  0.00  0.06  0.11
    3 H    1     0.84   0.76  0.11  0.00  0.03 -0.06
    4 H    1     1.01   0.77  0.26  0.00  0.03 -0.05
    5 C    6     5.12   2.01  0.68  0.08 -0.15  1.89  0.35  0.03  0.24 -0.01
    6 O    8     8.84   2.01  0.81  1.01  0.18  2.80  1.88  0.16  0.01 -0.01
    7 N    7     7.48   2.01  0.72  0.88 -0.20  2.45  1.43  0.11  0.05  0.03
    8 H    1     0.95   0.74  0.27 -0.03  0.06 -0.08
    9 C    6     6.26   2.01  0.66  0.13 -0.02  1.99  1.16  0.10  0.14  0.09
   10 H    1     1.31   0.79  0.46  0.01  0.03  0.02
   11 C    6     6.26   2.01  0.66  0.43  0.17  2.03  0.73 -0.03  0.09  0.17
   12 H    1     0.93   0.78  0.23  0.00  0.03 -0.11
   13 H    1     0.90   0.78  0.19 -0.01  0.03 -0.09
   14 C    6     6.16   2.01  0.66  0.47 -0.11  2.05  0.88  0.00  0.09  0.12
   15 H    1     0.98   0.78  0.24 -0.02  0.03 -0.05
   16 H    1     0.91   0.77  0.17 -0.00  0.03 -0.06
   17 C    6     4.66   2.01  0.68  0.04 -0.03  1.90 -0.08  0.04  0.24 -0.13
   18 O    8     8.91   2.01  0.81  1.03  0.21  2.81  1.87  0.16  0.02 -0.00
   19 N    7     7.20   2.01  0.72  0.75 -0.12  2.47  1.26  0.09  0.04 -0.02
   20 H    1     1.00   0.76  0.21 -0.01  0.05 -0.01
   21 H    1     0.88   0.74  0.15 -0.01  0.06 -0.06
   22 C    6     4.23   2.01  0.68 -0.13  0.03  1.89 -0.01  0.06  0.23 -0.52
   23 O    8     8.97   2.01  0.82  1.07  0.20  2.79  1.89  0.17  0.01  0.01
   24 N    7     7.51   2.01  0.72  0.87 -0.24  2.45  1.46  0.09  0.05  0.09
   25 H    1     1.12   0.77  0.32 -0.01  0.05 -0.01
   26 C    6     6.24   2.01  0.67  0.11 -0.03  1.99  1.23  0.03  0.14  0.11
   27 H    1     1.21   0.78  0.42 -0.02  0.03  0.00
   28 C    6     5.82   2.01  0.66  0.09 -0.06  1.99  1.04 -0.03  0.10  0.02
   29 H    1     1.10   0.77  0.30  0.01  0.03 -0.01
   30 H    1     1.10   0.76  0.34 -0.00  0.03 -0.03
   31 S   16    15.57   2.00  2.03  0.87  0.73  0.06  6.00  2.31  1.61  0.03  0.10 -0.16
   32 H    1     1.00   0.72  0.18  0.02  0.03  0.05
   33 C    6     4.66   2.01  0.68  0.15  0.05  1.88 -0.19  0.01  0.24 -0.17
   34 O    8     8.80   2.01  0.82  1.04  0.17  2.79  1.84  0.13  0.01 -0.00
   35 N    7     7.15   2.01  0.72  0.81 -0.21  2.47  1.23  0.10  0.04 -0.02
   36 H    1     0.89   0.73  0.27 -0.03  0.06 -0.14
   37 H    1     1.01   0.76  0.23 -0.00  0.05 -0.03

       Multipole analysis of the density wrt the origin
       ------------------------------------------------

     L   x y z        total         open         nuclear
     -   - - -        -----         ----         -------
     0   0 0 0     -0.000000      0.000000    154.000000

     1   1 0 0      0.528755      0.000000     -0.000000
     1   0 1 0     -1.372616      0.000000     -0.000000
     1   0 0 1      0.926485      0.000000      0.000000

     2   2 0 0    -90.178969      0.000000   1647.250015
     2   1 1 0      6.348951      0.000000     18.261666
     2   1 0 1      0.613572      0.000000      2.250128
     2   0 2 0   -108.772241      0.000000   3367.757122
     2   0 1 1      6.832467      0.000000     -2.138612
     2   0 0 2    -87.944480      0.000000    593.441370


 Task  times  cpu:    13696.2s     wall:    13736.8s


                                NWChem Input Module
                                -------------------


 Summary of allocated global arrays
-----------------------------------
  No active global arrays


MA_summarize_allocated_blocks: starting scan ...
MA_summarize_allocated_blocks: scan completed: 0 heap blocks, 0 stack blocks
MA usage statistics:

	allocation statistics:
					      heap	     stack
					      ----	     -----
	current number of blocks	         0	         0
	maximum number of blocks	        16	        14
	current total bytes		         0	         0
	maximum total bytes		    146648	  35431480
	maximum total K-bytes		       147	     35432
	maximum total M-bytes		         1	        36


                                     CITATION
                                     --------
                Please cite the following reference when publishing
                           results obtained with NWChem:

          E. Apra, E. J. Bylaska, W. A. de Jong, N. Govind, K. Kowalski,
       T. P. Straatsma, M. Valiev, H. J. J. van Dam, Y. Alexeev, J. Anchell,
       V. Anisimov, F. W. Aquino, R. Atta-Fynn, J. Autschbach, N. P. Bauman,
     J. C. Becca, D. E. Bernholdt, K. Bhaskaran-Nair, S. Bogatko, P. Borowski,
         J. Boschen, J. Brabec, A. Bruner, E. Cauet, Y. Chen, G. N. Chuev,
      C. J. Cramer, J. Daily, M. J. O. Deegan, T. H. Dunning Jr., M. Dupuis,
   K. G. Dyall, G. I. Fann, S. A. Fischer, A. Fonari, H. Fruchtl, L. Gagliardi,
      J. Garza, N. Gawande, S. Ghosh, K. Glaesemann, A. W. Gotz, J. Hammond,
       V. Helms, E. D. Hermes, K. Hirao, S. Hirata, M. Jacquelin, L. Jensen,
   B. G. Johnson, H. Jonsson, R. A. Kendall, M. Klemm, R. Kobayashi, V. Konkov,
      S. Krishnamoorthy, M. Krishnan, Z. Lin, R. D. Lins, R. J. Littlefield,
      A. J. Logsdail, K. Lopata, W. Ma, A. V. Marenich, J. Martin del Campo,
   D. Mejia-Rodriguez, J. E. Moore, J. M. Mullin, T. Nakajima, D. R. Nascimento,
    J. A. Nichols, P. J. Nichols, J. Nieplocha, A. Otero-de-la-Roza, B. Palmer,
    A. Panyala, T. Pirojsirikul, B. Peng, R. Peverati, J. Pittner, L. Pollack,
   R. M. Richard, P. Sadayappan, G. C. Schatz, W. A. Shelton, D. W. Silverstein,
   D. M. A. Smith, T. A. Soares, D. Song, M. Swart, H. L. Taylor, G. S. Thomas,
            V. Tipparaju, D. G. Truhlar, K. Tsemekhman, T. Van Voorhis,
      A. Vazquez-Mayagoitia, P. Verma, O. Villa, A. Vishnu, K. D. Vogiatzis,
        D. Wang, J. H. Weare, M. J. Williamson, T. L. Windus, K. Wolinski,
        A. T. Wong, Q. Wu, C. Yang, Q. Yu, M. Zacharias, Z. Zhang, Y. Zhao,
                                and R. J. Harrison
                        "NWChem: Past, present, and future
                         J. Chem. Phys. 152, 184102 (2020)
                               doi:10.1063/5.0004997

                                      AUTHORS
                                      -------
  E. Apra, E. J. Bylaska, N. Govind, K. Kowalski, M. Valiev, D. Mejia-Rodriguez,
       A. Kunitsa, N. P. Bauman, A. Panyala, W. A. de Jong, T. P. Straatsma,
   H. J. J. van Dam, D. Wang, T. L. Windus, J. Hammond, J. Autschbach, A. Woods,
    K. Bhaskaran-Nair, J. Brabec, K. Lopata, S. A. Fischer, S. Krishnamoorthy,
     M. Jacquelin, W. Ma, M. Klemm, O. Villa, Y. Chen, V. Anisimov, F. Aquino,
     S. Hirata, M. T. Hackler, E. Hermes, L. Jensen, J. E. Moore, J. C. Becca,
      V. Konjkov, T. Risthaus, M. Malagoli, A. Marenich, A. Otero-de-la-Roza,
        J. Mullin, P. Nichols, R. Peverati, J. Pittner, Y. Zhao, P.-D. Fan,
        A. Fonari, M. J. Williamson, R. J. Harrison, J. R. Rehr, M. Dupuis,
     D. Silverstein, D. M. A. Smith, J. Nieplocha, V. Tipparaju, M. Krishnan,
     B. E. Van Kuiken, A. Vazquez-Mayagoitia, M. Swart, Q. Wu, T. Van Voorhis,
     A. A. Auer, M. Nooijen, L. D. Crosby, E. Brown, G. Cisneros, G. I. Fann,
   H. Fruchtl, J. Garza, K. Hirao, R. A. Kendall, J. A. Nichols, K. Tsemekhman,
    K. Wolinski, J. Anchell, D. E. Bernholdt, P. Borowski, T. Clark, D. Clerc,
   H. Dachsel, M. J. O. Deegan, K. Dyall, D. Elwood, E. Glendening, M. Gutowski,
   A. C. Hess, J. Jaffe, B. G. Johnson, J. Ju, R. Kobayashi, R. Kutteh, Z. Lin,
   R. Littlefield, X. Long, B. Meng, T. Nakajima, S. Niu, L. Pollack, M. Rosing,
   K. Glaesemann, G. Sandrone, M. Stave, H. Taylor, G. Thomas, J. H. van Lenthe,
                               A. T. Wong, Z. Zhang.

 Total times  cpu:    13696.2s     wall:    13737.8s
