export TMOUT=5400
export TMPDIR=/tmp
export PTMPDIR=/tmp/ptmp
 argument  1 = inputs/GLN_CYS_5.nw



============================== echo of input deck ==============================
start GLN_CYS_5
geometry
H         18.31000        5.50700        0.91600
C         18.63500        4.92300        1.77500
H         19.64100        5.22000        2.06600
H         18.62400        3.86400        1.52200
C         17.68800        5.16100        2.92700
O         17.05000        4.23200        3.40300
N         17.60100        6.41300        3.37200
H         18.21100        7.10500        2.95400
C         16.78400        6.84400        4.51900
H         16.02600        6.08100        4.70500
C         17.66700        6.92200        5.78600
H         17.09700        7.39400        6.58700
H         17.88100        5.90300        6.11300
C         19.01700        7.65600        5.64300
H         19.40500        7.88100        6.63600
H         19.72700        6.98600        5.15700
C         18.94800        8.93700        4.82000
O         19.09800        8.92500        3.60900
N         18.67700       10.07600        5.41600
H         18.63600       10.89200        4.82900
H         18.48500       10.10600        6.40100
C         15.98700        8.14200        4.25900
O         15.40200        8.70700        5.18000
N         15.96700        8.63600        3.01800
H         16.44400        8.12500        2.28800
C         15.21500        9.81700        2.59200
H         14.24100        9.80100        3.08400
C         15.96200       11.08600        3.04300
H         15.33700       11.95900        2.85500
H         16.15000       11.03100        4.11700
S         17.53600       11.29800        2.16100
H         18.14300       10.18000        2.59800
C         14.96600        9.78100        1.07100
O         15.48500        8.92500        0.36200
N         14.15600       10.69100        0.54500
H         14.00300       10.66300       -0.45000
H         13.73500       11.39800        1.12200
end

basis
 * library aug-cc-pvdz
end

echo

scf
 direct
end

task scf energy
================================================================================


                                         
                                         


             Northwest Computational Chemistry Package (NWChem) 7.2.0
             --------------------------------------------------------


                    Environmental Molecular Sciences Laboratory
                       Pacific Northwest National Laboratory
                                Richland, WA 99352

                              Copyright (c) 1994-2022
                       Pacific Northwest National Laboratory
                            Battelle Memorial Institute

             NWChem is an open-source computational chemistry package
                        distributed under the terms of the
                      Educational Community License (ECL) 2.0
             A copy of the license is included with this distribution
                              in the LICENSE.TXT file

                                  ACKNOWLEDGMENT
                                  --------------

            This software and its documentation were developed at the
            EMSL at Pacific Northwest National Laboratory, a multiprogram
            national laboratory, operated for the U.S. Department of Energy
            by Battelle under Contract Number DE-AC05-76RL01830. Support
            for this work was provided by the Department of Energy Office
            of Biological and Environmental Research, Office of Basic
            Energy Sciences, and the Office of Advanced Scientific Computing.


           Job information
           ---------------

    hostname        = nova18-35
    program         = /opt/rit/el9/20230413/app/linux-rhel9-x86_64_v3/gcc-11.2.1/nwchem-7.2.0-oxtctbuhfuzyfaoziquq6bki22grib3g/bin/nwchem
    date            = Thu Jul  3 13:38:33 2025

    compiled        = Wed_May_17_23:46:39_2023
    source          = /tmp/root/spack-stage/spack-stage-nwchem-7.2.0-oxtctbuhfuzyfaoziquq6bki22grib3g/spack-src
    nwchem branch   = 7.2.0
    nwchem revision = d0d141fd
    ga revision     = 5.8.0
    use scalapack   = T
    input           = inputs/GLN_CYS_5.nw
    prefix          = GLN_CYS_5.
    data base       = ./GLN_CYS_5.db
    status          = startup
    nproc           =        1
    time left       =     -1s



           Memory information
           ------------------

    heap     =   26214398 doubles =    200.0 Mbytes
    stack    =   26214395 doubles =    200.0 Mbytes
    global   =   52428800 doubles =    400.0 Mbytes (distinct from heap & stack)
    total    =  104857593 doubles =    800.0 Mbytes
    verify   = yes
    hardfail = no 


           Directory information
           ---------------------

  0 permanent = .
  0 scratch   = .




                                NWChem Input Module
                                -------------------



 Scaling coordinates for geometry "geometry" by  1.889725989
 (inverse scale =  0.529177249)

 C1  symmetry detected

          ------
          auto-z
          ------
  no constraints, skipping    0.0000000000000000     
  no constraints, skipping    0.0000000000000000     


                             Geometry "geometry" -> ""
                             -------------------------

 Output coordinates in angstroms (scale by  1.889725989 to convert to a.u.)

  No.       Tag          Charge          X              Y              Z
 ---- ---------------- ---------- -------------- -------------- --------------
    1 H                    1.0000    -2.71821002     1.94119173     2.20533547
    2 C                    6.0000    -2.32603344     2.90863590     1.89742103
    3 H                    1.0000    -1.50299610     3.19909035     2.54793756
    4 H                    1.0000    -3.11593322     3.65628426     1.94929861
    5 C                    6.0000    -1.83215096     2.81623447     0.47330760
    6 O                    8.0000    -2.33394063     3.51085735    -0.39982880
    7 N                    7.0000    -0.84421560     1.95316175     0.24486240
    8 H                    1.0000    -0.45281674     1.46377082     1.04047000
    9 C                    6.0000    -0.18342712     1.75497116    -1.05626713
   10 H                    1.0000    -0.84028560     2.14407297    -1.83630926
   11 C                    6.0000     1.12068754     2.58419435    -1.10857268
   12 H                    1.0000     1.68138345     2.30734329    -2.00202586
   13 H                    1.0000     0.84949950     3.63515191    -1.22272721
   14 C                    6.0000     2.05676851     2.47722326     0.11372622
   15 H                    1.0000     3.03669435     2.87072749    -0.15482131
   16 H                    1.0000     1.65862080     3.10419962     0.91220918
   17 C                    6.0000     2.20788612     1.06377738     0.66362186
   18 O                    8.0000     1.44555810     0.62428708     1.50912127
   19 N                    7.0000     3.15010824     0.28119304     0.18848268
   20 H                    1.0000     3.20505927    -0.64440905     0.57879942
   21 H                    1.0000     3.75034153     0.59381821    -0.55311997
   22 C                    6.0000     0.03206255     0.26916440    -1.42171960
   23 O                    8.0000     0.72138258    -0.03863777    -2.39114557
   24 N                    7.0000    -0.53436378    -0.66232096    -0.64970066
   25 H                    1.0000    -1.11129515    -0.36171769     0.12382237
   26 C                    6.0000    -0.47913213    -2.10490687    -0.88977638
   27 H                    1.0000    -0.59297378    -2.28035763    -1.96087539
   28 C                    6.0000     0.89856652    -2.64042234    -0.45741009
   29 H                    1.0000     0.99448567    -3.68140766    -0.76603135
   30 H                    1.0000     1.68132885    -2.06700541    -0.95773115
   31 S                   16.0000     1.13121704    -2.54444394     1.34175802
   32 H                    1.0000     1.05458389    -1.20721465     1.46539938
   33 C                    6.0000    -1.64583549    -2.81762496    -0.17733396
   34 O                    8.0000    -2.38927293    -2.21136645     0.58721126
   35 N                    7.0000    -1.84157006    -4.10615803    -0.42682643
   36 H                    1.0000    -2.60291707    -4.56477458     0.04671301
   37 H                    1.0000    -1.22992338    -4.60739370    -1.04704424

      Atomic Mass 
      ----------- 

      H                  1.007825
      C                 12.000000
      O                 15.994910
      N                 14.003070
      S                 31.972070


 Effective nuclear repulsion energy (a.u.)    1748.5682001864

            Nuclear Dipole moment (a.u.) 
            ----------------------------
        X                 Y               Z
 ---------------- ---------------- ----------------
     0.0000000000    -0.0000000000     0.0000000000



                                Z-matrix (autoz)
                                -------- 

 Units are Angstrom for bonds and degrees for angles

      Type          Name      I     J     K     L     M      Value
      ----------- --------  ----- ----- ----- ----- ----- ----------
    1 Stretch                  1     2                       1.08838
    2 Stretch                  2     3                       1.08854
    3 Stretch                  2     4                       1.08886
    4 Stretch                  2     5                       1.51015
    5 Stretch                  5     6                       1.22338
    6 Stretch                  5     7                       1.33158
    7 Stretch                  7     8                       1.01276
    8 Stretch                  7     9                       1.47270
    9 Stretch                  9    10                       1.09148
   10 Stretch                  9    11                       1.54631
   11 Stretch                  9    22                       1.54519
   12 Stretch                 11    12                       1.09054
   13 Stretch                 11    13                       1.09137
   14 Stretch                 11    14                       1.54328
   15 Stretch                 14    15                       1.08960
   16 Stretch                 14    16                       1.09050
   17 Stretch                 14    17                       1.52416
   18 Stretch                 17    18                       1.22031
   19 Stretch                 17    19                       1.31376
   20 Stretch                 19    20                       1.00603
   21 Stretch                 19    21                       1.00399
   22 Stretch                 22    23                       1.22869
   23 Stretch                 22    24                       1.33586
   24 Stretch                 24    25                       1.01072
   25 Stretch                 24    26                       1.46347
   26 Stretch                 26    27                       1.09133
   27 Stretch                 26    28                       1.54006
   28 Stretch                 26    33                       1.54167
   29 Stretch                 28    29                       1.09000
   30 Stretch                 28    30                       1.09172
   31 Stretch                 28    31                       1.81668
   32 Stretch                 31    32                       1.34512
   33 Stretch                 33    34                       1.22669
   34 Stretch                 33    35                       1.32698
   35 Stretch                 35    36                       1.00708
   36 Stretch                 35    37                       1.00500
   37 Bend                     1     2     3               109.91072
   38 Bend                     1     2     4               109.60077
   39 Bend                     1     2     5               109.28388
   40 Bend                     2     5     6               120.27580
   41 Bend                     2     5     7               116.36487
   42 Bend                     3     2     4               109.68273
   43 Bend                     3     2     5               109.42720
   44 Bend                     4     2     5               108.91660
   45 Bend                     5     7     8               117.72069
   46 Bend                     5     7     9               124.86853
   47 Bend                     6     5     7               123.35933
   48 Bend                     7     9    10               108.26452
   49 Bend                     7     9    11               109.64136
   50 Bend                     7     9    22               113.63653
   51 Bend                     8     7     9               117.10512
   52 Bend                     9    11    12               108.97711
   53 Bend                     9    11    13               108.08195
   54 Bend                     9    11    14               116.58921
   55 Bend                     9    22    23               120.37956
   56 Bend                     9    22    24               118.33848
   57 Bend                    10     9    11               106.98978
   58 Bend                    10     9    22               104.93312
   59 Bend                    11     9    22               112.95673
   60 Bend                    11    14    15               108.98172
   61 Bend                    11    14    16               108.57938
   62 Bend                    11    14    17               114.21533
   63 Bend                    12    11    13               106.65019
   64 Bend                    12    11    14               108.62813
   65 Bend                    13    11    14               107.47620
   66 Bend                    14    17    18               121.46788
   67 Bend                    14    17    19               119.54044
   68 Bend                    15    14    16               107.52869
   69 Bend                    15    14    17               109.55229
   70 Bend                    16    14    17               107.77057
   71 Bend                    17    19    20               116.54585
   72 Bend                    17    19    21               120.69266
   73 Bend                    18    17    19               118.95199
   74 Bend                    20    19    21               122.71185
   75 Bend                    22    24    25               118.48590
   76 Bend                    22    24    26               125.20726
   77 Bend                    23    22    24               121.27680
   78 Bend                    24    26    27               108.39355
   79 Bend                    24    26    28               109.29725
   80 Bend                    24    26    33               110.56905
   81 Bend                    25    24    26               116.12059
   82 Bend                    26    28    29               109.34894
   83 Bend                    26    28    30               109.27544
   84 Bend                    26    28    31               111.97684
   85 Bend                    26    33    34               121.21081
   86 Bend                    26    33    35               118.27152
   87 Bend                    27    26    28               108.23758
   88 Bend                    27    26    33               107.47512
   89 Bend                    28    26    33               112.73713
   90 Bend                    28    31    32                97.83138
   91 Bend                    29    28    30               107.98512
   92 Bend                    29    28    31               108.63846
   93 Bend                    30    28    31               109.52989
   94 Bend                    33    35    36               117.72975
   95 Bend                    33    35    37               120.70062
   96 Bend                    34    33    35               120.51005
   97 Bend                    36    35    37               121.54441
   98 Torsion                  1     2     5     6         118.76941
   99 Torsion                  1     2     5     7         -61.23895
  100 Torsion                  2     5     7     8          -3.76235
  101 Torsion                  2     5     7     9        -177.21134
  102 Torsion                  3     2     5     6        -120.83421
  103 Torsion                  3     2     5     7          59.15744
  104 Torsion                  4     2     5     6          -0.93985
  105 Torsion                  4     2     5     7         179.05180
  106 Torsion                  5     7     9    10         -19.57001
  107 Torsion                  5     7     9    11          96.82137
  108 Torsion                  5     7     9    22        -135.71541
  109 Torsion                  6     5     7     8         176.22901
  110 Torsion                  6     5     7     9           2.78002
  111 Torsion                  7     9    11    12         170.88271
  112 Torsion                  7     9    11    13         -73.58530
  113 Torsion                  7     9    11    14          47.52566
  114 Torsion                  7     9    22    23        -170.61527
  115 Torsion                  7     9    22    24           8.56936
  116 Torsion                  8     7     9    10         166.94444
  117 Torsion                  8     7     9    11         -76.66418
  118 Torsion                  8     7     9    22          50.79904
  119 Torsion                  9    11    14    15         164.51259
  120 Torsion                  9    11    14    16         -78.63872
  121 Torsion                  9    11    14    17          41.64127
  122 Torsion                  9    22    24    25           2.27725
  123 Torsion                  9    22    24    26         177.11203
  124 Torsion                 10     9    11    12         -71.92379
  125 Torsion                 10     9    11    13          43.60819
  126 Torsion                 10     9    11    14         164.71916
  127 Torsion                 10     9    22    23          71.29963
  128 Torsion                 10     9    22    24        -109.51574
  129 Torsion                 11     9    22    23         -44.89329
  130 Torsion                 11     9    22    24         134.29134
  131 Torsion                 11    14    17    18         -88.57721
  132 Torsion                 11    14    17    19          89.10710
  133 Torsion                 12    11     9    22          43.04011
  134 Torsion                 12    11    14    15          40.97565
  135 Torsion                 12    11    14    16         157.82434
  136 Torsion                 12    11    14    17         -81.89567
  137 Torsion                 13    11     9    22         158.57210
  138 Torsion                 13    11    14    15         -74.05662
  139 Torsion                 13    11    14    16          42.79208
  140 Torsion                 13    11    14    17         163.07206
  141 Torsion                 14    11     9    22         -80.31694
  142 Torsion                 14    17    19    20        -179.56773
  143 Torsion                 14    17    19    21          -2.06181
  144 Torsion                 15    14    17    18         148.86195
  145 Torsion                 15    14    17    19         -33.45375
  146 Torsion                 16    14    17    18          32.15348
  147 Torsion                 16    14    17    19        -150.16222
  148 Torsion                 18    17    19    20          -1.82493
  149 Torsion                 18    17    19    21         175.68099
  150 Torsion                 22    24    26    27         -40.13102
  151 Torsion                 22    24    26    28          77.63569
  152 Torsion                 22    24    26    33        -157.69847
  153 Torsion                 23    22    24    25        -178.54578
  154 Torsion                 23    22    24    26          -3.71100
  155 Torsion                 24    26    28    29        -171.92683
  156 Torsion                 24    26    28    30         -53.92552
  157 Torsion                 24    26    28    31          67.61029
  158 Torsion                 24    26    33    34          -7.24905
  159 Torsion                 24    26    33    35         171.75128
  160 Torsion                 25    24    26    27         134.81297
  161 Torsion                 25    24    26    28        -107.42031
  162 Torsion                 25    24    26    33          17.24553
  163 Torsion                 26    28    31    32         -62.66617
  164 Torsion                 26    33    35    36         179.67978
  165 Torsion                 26    33    35    37           1.47887
  166 Torsion                 27    26    28    29         -54.06226
  167 Torsion                 27    26    28    30          63.93905
  168 Torsion                 27    26    28    31        -174.52514
  169 Torsion                 27    26    33    34        -125.37912
  170 Torsion                 27    26    33    35          53.62121
  171 Torsion                 28    26    33    34         115.43274
  172 Torsion                 28    26    33    35         -65.56693
  173 Torsion                 29    28    26    33          64.68214
  174 Torsion                 29    28    31    32         176.45858
  175 Torsion                 30    28    26    33        -177.31655
  176 Torsion                 30    28    31    32          58.72319
  177 Torsion                 31    28    26    33         -55.78074
  178 Torsion                 34    33    35    36          -1.31261
  179 Torsion                 34    33    35    37        -179.51352


            XYZ format geometry
            -------------------
    37
 geometry
 H                    -2.71821002     1.94119173     2.20533547
 C                    -2.32603344     2.90863590     1.89742103
 H                    -1.50299610     3.19909035     2.54793756
 H                    -3.11593322     3.65628426     1.94929861
 C                    -1.83215096     2.81623447     0.47330760
 O                    -2.33394063     3.51085735    -0.39982880
 N                    -0.84421560     1.95316175     0.24486240
 H                    -0.45281674     1.46377082     1.04047000
 C                    -0.18342712     1.75497116    -1.05626713
 H                    -0.84028560     2.14407297    -1.83630926
 C                     1.12068754     2.58419435    -1.10857268
 H                     1.68138345     2.30734329    -2.00202586
 H                     0.84949950     3.63515191    -1.22272721
 C                     2.05676851     2.47722326     0.11372622
 H                     3.03669435     2.87072749    -0.15482131
 H                     1.65862080     3.10419962     0.91220918
 C                     2.20788612     1.06377738     0.66362186
 O                     1.44555810     0.62428708     1.50912127
 N                     3.15010824     0.28119304     0.18848268
 H                     3.20505927    -0.64440905     0.57879942
 H                     3.75034153     0.59381821    -0.55311997
 C                     0.03206255     0.26916440    -1.42171960
 O                     0.72138258    -0.03863777    -2.39114557
 N                    -0.53436378    -0.66232096    -0.64970066
 H                    -1.11129515    -0.36171769     0.12382237
 C                    -0.47913213    -2.10490687    -0.88977638
 H                    -0.59297378    -2.28035763    -1.96087539
 C                     0.89856652    -2.64042234    -0.45741009
 H                     0.99448567    -3.68140766    -0.76603135
 H                     1.68132885    -2.06700541    -0.95773115
 S                     1.13121704    -2.54444394     1.34175802
 H                     1.05458389    -1.20721465     1.46539938
 C                    -1.64583549    -2.81762496    -0.17733396
 O                    -2.38927293    -2.21136645     0.58721126
 N                    -1.84157006    -4.10615803    -0.42682643
 H                    -2.60291707    -4.56477458     0.04671301
 H                    -1.22992338    -4.60739370    -1.04704424

 ==============================================================================
                                internuclear distances
 ------------------------------------------------------------------------------
       center one      |      center two      | atomic units |  angstroms
 ------------------------------------------------------------------------------
    2 C                |   1 H                |     2.05673  |     1.08838
    3 H                |   2 C                |     2.05705  |     1.08854
    4 H                |   2 C                |     2.05764  |     1.08886
    5 C                |   2 C                |     2.85377  |     1.51015
    6 O                |   5 C                |     2.31185  |     1.22338
    7 N                |   5 C                |     2.51632  |     1.33158
    8 H                |   7 N                |     1.91384  |     1.01276
    9 C                |   7 N                |     2.78301  |     1.47270
   10 H                |   9 C                |     2.06260  |     1.09148
   11 C                |   9 C                |     2.92209  |     1.54631
   12 H                |  11 C                |     2.06083  |     1.09054
   13 H                |  11 C                |     2.06239  |     1.09137
   14 C                |  11 C                |     2.91637  |     1.54328
   15 H                |  14 C                |     2.05904  |     1.08960
   16 H                |  14 C                |     2.06075  |     1.09050
   17 C                |  14 C                |     2.88024  |     1.52416
   18 O                |  17 C                |     2.30606  |     1.22031
   19 N                |  17 C                |     2.48266  |     1.31376
   20 H                |  19 N                |     1.90113  |     1.00603
   21 H                |  19 N                |     1.89726  |     1.00399
   22 C                |   9 C                |     2.91999  |     1.54519
   23 O                |  22 C                |     2.32190  |     1.22869
   24 N                |  22 C                |     2.52441  |     1.33586
   25 H                |  24 N                |     1.90998  |     1.01072
   26 C                |  24 N                |     2.76556  |     1.46347
   27 H                |  26 C                |     2.06231  |     1.09133
   28 C                |  26 C                |     2.91028  |     1.54006
   29 H                |  28 C                |     2.05980  |     1.09000
   30 H                |  28 C                |     2.06305  |     1.09172
   31 S                |  28 C                |     3.43304  |     1.81668
   32 H                |  31 S                |     2.54190  |     1.34512
   33 C                |  26 C                |     2.91333  |     1.54167
   34 O                |  33 C                |     2.31812  |     1.22669
   35 N                |  33 C                |     2.50763  |     1.32698
   36 H                |  35 N                |     1.90311  |     1.00708
   37 H                |  35 N                |     1.89917  |     1.00500
 ------------------------------------------------------------------------------
                         number of included internuclear distances:         36
 ==============================================================================



 ==============================================================================
                                 internuclear angles
 ------------------------------------------------------------------------------
        center 1       |       center 2       |       center 3       |  degrees
 ------------------------------------------------------------------------------
    1 H                |   2 C                |   3 H                |   109.91
    1 H                |   2 C                |   4 H                |   109.60
    1 H                |   2 C                |   5 C                |   109.28
    3 H                |   2 C                |   4 H                |   109.68
    3 H                |   2 C                |   5 C                |   109.43
    4 H                |   2 C                |   5 C                |   108.92
    2 C                |   5 C                |   6 O                |   120.28
    2 C                |   5 C                |   7 N                |   116.36
    6 O                |   5 C                |   7 N                |   123.36
    5 C                |   7 N                |   8 H                |   117.72
    5 C                |   7 N                |   9 C                |   124.87
    8 H                |   7 N                |   9 C                |   117.11
    7 N                |   9 C                |  10 H                |   108.26
    7 N                |   9 C                |  11 C                |   109.64
    7 N                |   9 C                |  22 C                |   113.64
   10 H                |   9 C                |  11 C                |   106.99
   10 H                |   9 C                |  22 C                |   104.93
   11 C                |   9 C                |  22 C                |   112.96
    9 C                |  11 C                |  12 H                |   108.98
    9 C                |  11 C                |  13 H                |   108.08
    9 C                |  11 C                |  14 C                |   116.59
   12 H                |  11 C                |  13 H                |   106.65
   12 H                |  11 C                |  14 C                |   108.63
   13 H                |  11 C                |  14 C                |   107.48
   11 C                |  14 C                |  15 H                |   108.98
   11 C                |  14 C                |  16 H                |   108.58
   11 C                |  14 C                |  17 C                |   114.22
   15 H                |  14 C                |  16 H                |   107.53
   15 H                |  14 C                |  17 C                |   109.55
   16 H                |  14 C                |  17 C                |   107.77
   14 C                |  17 C                |  18 O                |   121.47
   14 C                |  17 C                |  19 N                |   119.54
   18 O                |  17 C                |  19 N                |   118.95
   17 C                |  19 N                |  20 H                |   116.55
   17 C                |  19 N                |  21 H                |   120.69
   20 H                |  19 N                |  21 H                |   122.71
    9 C                |  22 C                |  23 O                |   120.38
    9 C                |  22 C                |  24 N                |   118.34
   23 O                |  22 C                |  24 N                |   121.28
   22 C                |  24 N                |  25 H                |   118.49
   22 C                |  24 N                |  26 C                |   125.21
   25 H                |  24 N                |  26 C                |   116.12
   24 N                |  26 C                |  27 H                |   108.39
   24 N                |  26 C                |  28 C                |   109.30
   24 N                |  26 C                |  33 C                |   110.57
   27 H                |  26 C                |  28 C                |   108.24
   27 H                |  26 C                |  33 C                |   107.48
   28 C                |  26 C                |  33 C                |   112.74
   26 C                |  28 C                |  29 H                |   109.35
   26 C                |  28 C                |  30 H                |   109.28
   26 C                |  28 C                |  31 S                |   111.98
   29 H                |  28 C                |  30 H                |   107.99
   29 H                |  28 C                |  31 S                |   108.64
   30 H                |  28 C                |  31 S                |   109.53
   28 C                |  31 S                |  32 H                |    97.83
   26 C                |  33 C                |  34 O                |   121.21
   26 C                |  33 C                |  35 N                |   118.27
   34 O                |  33 C                |  35 N                |   120.51
   33 C                |  35 N                |  36 H                |   117.73
   33 C                |  35 N                |  37 H                |   120.70
   36 H                |  35 N                |  37 H                |   121.54
 ------------------------------------------------------------------------------
                            number of included internuclear angles:         61
 ==============================================================================



  library name resolved from: environment
  library file name is: </opt/rit/el9/20230413/app/linux-rhel9-x86_64_v3/gcc-11.2.1/nwchem-7.2.0-oxtctbuhfuzyfaoziquq6bki22grib3g/share/nwchem/libraries/>
  


 Summary of "ao basis" -> "" (cartesian)
 ------------------------------------------------------------------------------
       Tag                 Description            Shells   Functions and Types
 ---------------- ------------------------------  ------  ---------------------
 *                        aug-cc-pvdz                 on all atoms 


                      Basis "ao basis" -> "ao basis" (cartesian)
                      -----
  H (Hydrogen)
  ------------
            Exponent  Coefficients 
       -------------- ---------------------------------------------------------
  1 S  1.30100000E+01  0.019685
  1 S  1.96200000E+00  0.137977
  1 S  4.44600000E-01  0.478148

  2 S  1.22000000E-01  1.000000

  3 S  2.97400000E-02  1.000000

  4 P  7.27000000E-01  1.000000

  5 P  1.41000000E-01  1.000000

  C (Carbon)
  ----------
            Exponent  Coefficients 
       -------------- ---------------------------------------------------------
  1 S  6.66500000E+03  0.000692
  1 S  1.00000000E+03  0.005329
  1 S  2.28000000E+02  0.027077
  1 S  6.47100000E+01  0.101718
  1 S  2.10600000E+01  0.274740
  1 S  7.49500000E+00  0.448564
  1 S  2.79700000E+00  0.285074
  1 S  5.21500000E-01  0.015204

  2 S  6.66500000E+03 -0.000146
  2 S  1.00000000E+03 -0.001154
  2 S  2.28000000E+02 -0.005725
  2 S  6.47100000E+01 -0.023312
  2 S  2.10600000E+01 -0.063955
  2 S  7.49500000E+00 -0.149981
  2 S  2.79700000E+00 -0.127262
  2 S  5.21500000E-01  0.544529

  3 S  1.59600000E-01  1.000000

  4 S  4.69000000E-02  1.000000

  5 P  9.43900000E+00  0.038109
  5 P  2.00200000E+00  0.209480
  5 P  5.45600000E-01  0.508557

  6 P  1.51700000E-01  1.000000

  7 P  4.04100000E-02  1.000000

  8 D  5.50000000E-01  1.000000

  9 D  1.51000000E-01  1.000000

  O (Oxygen)
  ----------
            Exponent  Coefficients 
       -------------- ---------------------------------------------------------
  1 S  1.17200000E+04  0.000710
  1 S  1.75900000E+03  0.005470
  1 S  4.00800000E+02  0.027837
  1 S  1.13700000E+02  0.104800
  1 S  3.70300000E+01  0.283062
  1 S  1.32700000E+01  0.448719
  1 S  5.02500000E+00  0.270952
  1 S  1.01300000E+00  0.015458

  2 S  1.17200000E+04 -0.000160
  2 S  1.75900000E+03 -0.001263
  2 S  4.00800000E+02 -0.006267
  2 S  1.13700000E+02 -0.025716
  2 S  3.70300000E+01 -0.070924
  2 S  1.32700000E+01 -0.165411
  2 S  5.02500000E+00 -0.116955
  2 S  1.01300000E+00  0.557368

  3 S  3.02300000E-01  1.000000

  4 S  7.89600000E-02  1.000000

  5 P  1.77000000E+01  0.043018
  5 P  3.85400000E+00  0.228913
  5 P  1.04600000E+00  0.508728

  6 P  2.75300000E-01  1.000000

  7 P  6.85600000E-02  1.000000

  8 D  1.18500000E+00  1.000000

  9 D  3.32000000E-01  1.000000

  N (Nitrogen)
  ------------
            Exponent  Coefficients 
       -------------- ---------------------------------------------------------
  1 S  9.04600000E+03  0.000700
  1 S  1.35700000E+03  0.005389
  1 S  3.09300000E+02  0.027406
  1 S  8.77300000E+01  0.103207
  1 S  2.85600000E+01  0.278723
  1 S  1.02100000E+01  0.448540
  1 S  3.83800000E+00  0.278238
  1 S  7.46600000E-01  0.015440

  2 S  9.04600000E+03 -0.000153
  2 S  1.35700000E+03 -0.001208
  2 S  3.09300000E+02 -0.005992
  2 S  8.77300000E+01 -0.024544
  2 S  2.85600000E+01 -0.067459
  2 S  1.02100000E+01 -0.158078
  2 S  3.83800000E+00 -0.121831
  2 S  7.46600000E-01  0.549003

  3 S  2.24800000E-01  1.000000

  4 S  6.12400000E-02  1.000000

  5 P  1.35500000E+01  0.039919
  5 P  2.91700000E+00  0.217169
  5 P  7.97300000E-01  0.510319

  6 P  2.18500000E-01  1.000000

  7 P  5.61100000E-02  1.000000

  8 D  8.17000000E-01  1.000000

  9 D  2.30000000E-01  1.000000

  S (Sulphur)
  -----------
            Exponent  Coefficients 
       -------------- ---------------------------------------------------------
  1 S  1.10800000E+05  0.000248
  1 S  1.66100000E+04  0.001920
  1 S  3.78100000E+03  0.009962
  1 S  1.07100000E+03  0.040298
  1 S  3.49800000E+02  0.128604
  1 S  1.26300000E+02  0.303480
  1 S  4.92600000E+01  0.421432
  1 S  2.01600000E+01  0.230781
  1 S  5.72000000E+00  0.017897
  1 S  2.18200000E+00 -0.002975
  1 S  4.32700000E-01  0.000850

  2 S  1.10800000E+05 -0.000069
  2 S  1.66100000E+04 -0.000528
  2 S  3.78100000E+03 -0.002797
  2 S  1.07100000E+03 -0.011265
  2 S  3.49800000E+02 -0.038883
  2 S  1.26300000E+02 -0.099503
  2 S  4.92600000E+01 -0.199740
  2 S  2.01600000E+01 -0.123360
  2 S  5.72000000E+00  0.513194
  2 S  2.18200000E+00  0.607120
  2 S  4.32700000E-01  0.039675

  3 S  1.10800000E+05  0.000020
  3 S  1.66100000E+04  0.000153
  3 S  3.78100000E+03  0.000810
  3 S  1.07100000E+03  0.003290
  3 S  3.49800000E+02  0.011297
  3 S  1.26300000E+02  0.029639
  3 S  4.92600000E+01  0.059985
  3 S  2.01600000E+01  0.041325
  3 S  5.72000000E+00 -0.207474
  3 S  2.18200000E+00 -0.392889
  3 S  4.32700000E-01  0.632840

  4 S  1.57000000E-01  1.000000

  5 S  5.07000000E-02  1.000000

  6 P  3.99700000E+02  0.004475
  6 P  9.41900000E+01  0.034171
  6 P  2.97500000E+01  0.144250
  6 P  1.07700000E+01  0.353928
  6 P  4.11900000E+00  0.459085
  6 P  1.62500000E+00  0.206383
  6 P  4.72600000E-01  0.010214

  7 P  3.99700000E+02 -0.001163
  7 P  9.41900000E+01 -0.008657
  7 P  2.97500000E+01 -0.039089
  7 P  1.07700000E+01 -0.093463
  7 P  4.11900000E+00 -0.147994
  7 P  1.62500000E+00  0.030190
  7 P  4.72600000E-01  0.561573

  8 P  1.40700000E-01  1.000000

  9 P  3.99000000E-02  1.000000

 10 D  4.79000000E-01  1.000000

 11 D  1.52000000E-01  1.000000



 Summary of "ao basis" -> "ao basis" (cartesian)
 ------------------------------------------------------------------------------
       Tag                 Description            Shells   Functions and Types
 ---------------- ------------------------------  ------  ---------------------
 H                        aug-cc-pvdz                5        9   3s2p
 C                        aug-cc-pvdz                9       25   4s3p2d
 O                        aug-cc-pvdz                9       25   4s3p2d
 N                        aug-cc-pvdz                9       25   4s3p2d
 S                        aug-cc-pvdz               11       29   5s4p2d


                                 NWChem SCF Module
                                 -----------------



  ao basis        = "ao basis"
  functions       =   641
  atoms           =    37
  closed shells   =    77
  open shells     =     0
  charge          =   0.00
  wavefunction    = RHF 
  input vectors   = atomic
  output vectors  = ./GLN_CYS_5.movecs
  use symmetry    = F
  symmetry adapt  = F


 Summary of "ao basis" -> "ao basis" (cartesian)
 ------------------------------------------------------------------------------
       Tag                 Description            Shells   Functions and Types
 ---------------- ------------------------------  ------  ---------------------
 H                        aug-cc-pvdz                5        9   3s2p
 C                        aug-cc-pvdz                9       25   4s3p2d
 O                        aug-cc-pvdz                9       25   4s3p2d
 N                        aug-cc-pvdz                9       25   4s3p2d
 S                        aug-cc-pvdz               11       29   5s4p2d



 Forming initial guess at       1.1s


 !! The overlap matrix has   5 vectors deemed linearly dependent with
    eigenvalues:
 2.60D-06 3.72D-06 5.81D-06 7.49D-06 9.25D-06


      Superposition of Atomic Density Guess
      -------------------------------------

 Sum of atomic energies:       -1299.41518133

      Non-variational initial energy
      ------------------------------

 Total energy =   -1311.375499
 1-e energy   =   -5254.788233
 2-e energy   =    2194.844534
 HOMO         =      -0.286229
 LUMO         =      -0.001212


 Starting SCF solution at     739.9s



 ----------------------------------------------
         Quadratically convergent ROHF

 Convergence threshold     :          1.000E-04
 Maximum no. of iterations :           30
 Final Fock-matrix accuracy:          1.000E-10
 ----------------------------------------------


              iter       energy          gnorm     gmax       time
             ----- ------------------- --------- --------- --------
                 1    -1303.6970395064  2.69D+00  1.66D-01   1552.3
                 2    -1304.0843166331  8.93D-01  4.09D-02   3178.6
                 3    -1304.1555330390  7.36D-02  4.34D-03   5469.3
                 4    -1304.1563663312  4.60D-03  4.44D-04   8487.0
                 5    -1304.1563700821  9.92D-06  6.71D-07  13735.2


       Final RHF  results 
       ------------------ 

         Total SCF energy =  -1304.156370082073
      One-electron energy =  -5267.925847442748
      Two-electron energy =   2215.201277174315
 Nuclear repulsion energy =   1748.568200186359

        Time for solution =  12998.3s


             Final eigenvalues
             -----------------

              1      
    1  -91.9455
    2  -20.5492
    3  -20.5386
    4  -20.5339
    5  -20.5177
    6  -15.6159
    7  -15.6121
    8  -15.6017
    9  -15.5933
   10  -11.3796
   11  -11.3749
   12  -11.3681
   13  -11.3496
   14  -11.3119
   15  -11.3032
   16  -11.2838
   17  -11.2667
   18  -11.2584
   19  -11.2359
   20   -8.9478
   21   -6.6301
   22   -6.6289
   23   -6.6270
   24   -1.4234
   25   -1.4022
   26   -1.3930
   27   -1.3797
   28   -1.2567
   29   -1.2490
   30   -1.2398
   31   -1.2362
   32   -1.0960
   33   -1.0815
   34   -1.0223
   35   -0.9837
   36   -0.9652
   37   -0.8909
   38   -0.8666
   39   -0.8286
   40   -0.8186
   41   -0.7960
   42   -0.7785
   43   -0.7666
   44   -0.7584
   45   -0.7298
   46   -0.7050
   47   -0.6778
   48   -0.6726
   49   -0.6687
   50   -0.6551
   51   -0.6430
   52   -0.6358
   53   -0.6274
   54   -0.6150
   55   -0.6100
   56   -0.5999
   57   -0.5897
   58   -0.5828
   59   -0.5729
   60   -0.5663
   61   -0.5592
   62   -0.5521
   63   -0.5379
   64   -0.5274
   65   -0.5181
   66   -0.5072
   67   -0.4947
   68   -0.4627
   69   -0.4455
   70   -0.4411
   71   -0.4364
   72   -0.4288
   73   -0.4276
   74   -0.4148
   75   -0.4036
   76   -0.3903
   77   -0.3554
   78    0.0235
   79    0.0272
   80    0.0386
   81    0.0449
   82    0.0478
   83    0.0509
   84    0.0562
   85    0.0613
   86    0.0668
   87    0.0682

                       ROHF Final Molecular Orbital Analysis
                       -------------------------------------

 Vector   24  Occ=2.000000D+00  E=-1.423443D+00
              MO Center=  1.8D+00,  7.1D-01,  1.1D+00, r^2= 9.1D-01
   Bfn.  Coefficient  Atom+Function         Bfn.  Coefficient  Atom+Function  
  ----- ------------  ---------------      ----- ------------  ---------------
   284      0.376958  18 O  s               283      0.352041  18 O  s         
   258      0.245750  17 C  s         

 Vector   25  Occ=2.000000D+00  E=-1.402171D+00
              MO Center= -1.5D+00, -2.0D+00, -2.3D-01, r^2= 3.9D+00
   Bfn.  Coefficient  Atom+Function         Bfn.  Coefficient  Atom+Function  
  ----- ------------  ---------------      ----- ------------  ---------------
   576      0.322991  34 O  s               575      0.302272  34 O  s         
   550      0.217977  33 C  s               377      0.164892  23 O  s         
   376      0.155451  23 O  s         

 Vector   26  Occ=2.000000D+00  E=-1.392990D+00
              MO Center= -2.6D-01, -5.0D-01, -1.3D+00, r^2= 4.7D+00
   Bfn.  Coefficient  Atom+Function         Bfn.  Coefficient  Atom+Function  
  ----- ------------  ---------------      ----- ------------  ---------------
   377      0.330381  23 O  s               376      0.303402  23 O  s         
   351      0.212084  22 C  s               576     -0.184073  34 O  s         
   575     -0.173259  34 O  s         

 Vector   27  Occ=2.000000D+00  E=-1.379662D+00
              MO Center= -1.9D+00,  3.0D+00, -1.5D-01, r^2= 1.7D+00
   Bfn.  Coefficient  Atom+Function         Bfn.  Coefficient  Atom+Function  
  ----- ------------  ---------------      ----- ------------  ---------------
    80      0.347921   6 O  s                79      0.342137   6 O  s         
    54      0.242991   5 C  s         

 Vector   28  Occ=2.000000D+00  E=-1.256708D+00
              MO Center= -4.7D-01,  4.6D-01, -5.8D-01, r^2= 4.3D+00
   Bfn.  Coefficient  Atom+Function         Bfn.  Coefficient  Atom+Function  
  ----- ------------  ---------------      ----- ------------  ---------------
   402      0.263881  24 N  s               401      0.254137  24 N  s         
   105      0.225938   7 N  s               104      0.202917   7 N  s         
   377     -0.202170  23 O  s               376     -0.164728  23 O  s         

 Vector   29  Occ=2.000000D+00  E=-1.248954D+00
              MO Center=  2.7D+00,  4.5D-01,  3.6D-01, r^2= 1.7D+00
   Bfn.  Coefficient  Atom+Function         Bfn.  Coefficient  Atom+Function  
  ----- ------------  ---------------      ----- ------------  ---------------
   309      0.371421  19 N  s               308      0.363153  19 N  s         
   284     -0.232853  18 O  s               283     -0.186770  18 O  s         
   216     -0.181069  14 C  s               261      0.169593  17 C  px        
   341      0.167187  21 H  s               332      0.151956  20 H  s         

 Vector   30  Occ=2.000000D+00  E=-1.239789D+00
              MO Center= -1.7D+00, -2.9D+00, -2.6D-01, r^2= 4.8D+00
   Bfn.  Coefficient  Atom+Function         Bfn.  Coefficient  Atom+Function  
  ----- ------------  ---------------      ----- ------------  ---------------
   601      0.355828  35 N  s               600      0.333173  35 N  s         
   576     -0.221943  34 O  s               575     -0.187898  34 O  s         
   554     -0.170287  33 C  py              633      0.156737  37 H  s         

 Vector   31  Occ=2.000000D+00  E=-1.236237D+00
              MO Center= -9.3D-01,  2.9D-01, -2.9D-01, r^2= 6.9D+00
   Bfn.  Coefficient  Atom+Function         Bfn.  Coefficient  Atom+Function  
  ----- ------------  ---------------      ----- ------------  ---------------
   105      0.320819   7 N  s               402     -0.276830  24 N  s         
   104      0.248330   7 N  s               401     -0.213830  24 N  s         
   601      0.178564  35 N  s               600      0.156589  35 N  s         
    80     -0.154843   6 O  s         

 Vector   32  Occ=2.000000D+00  E=-1.095985D+00
              MO Center=  6.7D-01,  1.3D+00, -4.1D-01, r^2= 6.4D+00
   Bfn.  Coefficient  Atom+Function         Bfn.  Coefficient  Atom+Function  
  ----- ------------  ---------------      ----- ------------  ---------------
   172      0.209961  11 C  s               215      0.192434  14 C  s         
   216      0.193150  14 C  s               138      0.151158   9 C  s         

 Vector   33  Occ=2.000000D+00  E=-1.081491D+00
              MO Center=  6.1D-01, -1.1D+00, -3.4D-01, r^2= 6.6D+00
   Bfn.  Coefficient  Atom+Function         Bfn.  Coefficient  Atom+Function  
  ----- ------------  ---------------      ----- ------------  ---------------
   436      0.262261  26 C  s               469      0.233486  28 C  s         
   435      0.171078  26 C  s               513      0.168311  31 S  s         

 Vector   34  Occ=2.000000D+00  E=-1.022337D+00
              MO Center= -2.2D-01,  1.9D+00,  4.3D-01, r^2= 7.6D+00
   Bfn.  Coefficient  Atom+Function         Bfn.  Coefficient  Atom+Function  
  ----- ------------  ---------------      ----- ------------  ---------------
    12      0.212978   2 C  s                11      0.209625   2 C  s         
   215      0.187552  14 C  s               138     -0.178302   9 C  s         
   216      0.177783  14 C  s         

 Vector   35  Occ=2.000000D+00  E=-9.837115D-01
              MO Center= -7.3D-01,  1.6D-01,  6.0D-01, r^2= 1.1D+01
   Bfn.  Coefficient  Atom+Function         Bfn.  Coefficient  Atom+Function  
  ----- ------------  ---------------      ----- ------------  ---------------
    11      0.228588   2 C  s               513      0.213591  31 S  s         
   435     -0.158641  26 C  s         

 Vector   36  Occ=2.000000D+00  E=-9.651659D-01
              MO Center= -4.5D-02,  4.1D-01,  1.4D-01, r^2= 1.0D+01
   Bfn.  Coefficient  Atom+Function         Bfn.  Coefficient  Atom+Function  
  ----- ------------  ---------------      ----- ------------  ---------------
   216      0.247845  14 C  s               513      0.184626  31 S  s         
    11     -0.163202   2 C  s               138     -0.151446   9 C  s         
   435     -0.151225  26 C  s         

 Vector   37  Occ=2.000000D+00  E=-8.908864D-01
              MO Center=  9.4D-01,  9.1D-01, -4.0D-01, r^2= 7.1D+00
   Bfn.  Coefficient  Atom+Function         Bfn.  Coefficient  Atom+Function  
  ----- ------------  ---------------      ----- ------------  ---------------
   216      0.291097  14 C  s               172     -0.214635  11 C  s         
   222     -0.201295  14 C  py              145     -0.167133   9 C  py        
   259     -0.159105  17 C  s         

 Vector   38  Occ=2.000000D+00  E=-8.666305D-01
              MO Center=  1.5D-01, -2.2D+00, -3.9D-02, r^2= 6.3D+00
   Bfn.  Coefficient  Atom+Function         Bfn.  Coefficient  Atom+Function  
  ----- ------------  ---------------      ----- ------------  ---------------
   514     -0.290222  31 S  s               441      0.276307  26 C  px        
   552      0.264889  33 C  s               513     -0.240737  31 S  s         
   469      0.197189  28 C  s               550     -0.162517  33 C  s         
   438      0.151780  26 C  px              471     -0.151731  28 C  s         
   503      0.152430  30 H  s         

 Vector   39  Occ=2.000000D+00  E=-8.286058D-01
              MO Center=  7.4D-01, -6.7D-01, -1.2D-01, r^2= 1.0D+01
   Bfn.  Coefficient  Atom+Function         Bfn.  Coefficient  Atom+Function  
  ----- ------------  ---------------      ----- ------------  ---------------
   436      0.198922  26 C  s               604      0.196880  35 N  py        
   311      0.186341  19 N  px              258     -0.166335  17 C  s         
   341      0.156356  21 H  s         

 Vector   40  Occ=2.000000D+00  E=-8.185671D-01
              MO Center=  8.0D-04,  3.0D-01, -4.3D-02, r^2= 1.1D+01
   Bfn.  Coefficient  Atom+Function         Bfn.  Coefficient  Atom+Function  
  ----- ------------  ---------------      ----- ------------  ---------------
   604     -0.172609  35 N  py              107      0.164069   7 N  px        

 Vector   41  Occ=2.000000D+00  E=-7.960192D-01
              MO Center= -1.5D-01,  6.0D-01, -1.4D-01, r^2= 8.7D+00
   Bfn.  Coefficient  Atom+Function         Bfn.  Coefficient  Atom+Function  
  ----- ------------  ---------------      ----- ------------  ---------------
   128     -0.206132   8 H  s                55      0.193622   5 C  s         
   107     -0.169119   7 N  px              108      0.161126   7 N  py        
   163      0.154494  10 H  s         

 Vector   42  Occ=2.000000D+00  E=-7.785157D-01
              MO Center= -2.7D-01, -3.5D-01, -4.7D-01, r^2= 6.0D+00
   Bfn.  Coefficient  Atom+Function         Bfn.  Coefficient  Atom+Function  
  ----- ------------  ---------------      ----- ------------  ---------------
   352      0.310659  22 C  s               402     -0.256811  24 N  s         
   425     -0.253231  25 H  s               406     -0.235276  24 N  pz        
   460      0.172574  27 H  s               404      0.161477  24 N  px        
   359      0.151964  22 C  pz        

 Vector   43  Occ=2.000000D+00  E=-7.666473D-01
              MO Center= -1.3D+00, -2.4D+00, -4.6D-01, r^2= 7.6D+00
   Bfn.  Coefficient  Atom+Function         Bfn.  Coefficient  Atom+Function  
  ----- ------------  ---------------      ----- ------------  ---------------
   633      0.285652  37 H  s               603      0.232507  35 N  px        
   605     -0.215053  35 N  pz              624     -0.174113  36 H  s         

 Vector   44  Occ=2.000000D+00  E=-7.584498D-01
              MO Center=  2.6D+00,  6.7D-01,  1.7D-01, r^2= 3.8D+00
   Bfn.  Coefficient  Atom+Function         Bfn.  Coefficient  Atom+Function  
  ----- ------------  ---------------      ----- ------------  ---------------
   332     -0.292727  20 H  s               312      0.286049  19 N  py        
   341      0.265995  21 H  s               313     -0.244582  19 N  pz        
   260     -0.185132  17 C  s               216     -0.181176  14 C  s         
   333     -0.161574  20 H  s         

 Vector   45  Occ=2.000000D+00  E=-7.298206D-01
              MO Center= -6.3D-01, -2.2D-01, -4.9D-01, r^2= 1.1D+01
   Bfn.  Coefficient  Atom+Function         Bfn.  Coefficient  Atom+Function  
  ----- ------------  ---------------      ----- ------------  ---------------
   145      0.224628   9 C  py              352      0.208540  22 C  s         
   355     -0.202525  22 C  py              624     -0.202990  36 H  s         
   146      0.197942   9 C  pz              109     -0.188140   7 N  pz        
   603      0.188506  35 N  px               55      0.180035   5 C  s         
   142      0.170528   9 C  py        

 Vector   46  Occ=2.000000D+00  E=-7.050478D-01
              MO Center=  1.6D+00,  1.1D+00,  6.0D-01, r^2= 4.6D+00
   Bfn.  Coefficient  Atom+Function         Bfn.  Coefficient  Atom+Function  
  ----- ------------  ---------------      ----- ------------  ---------------
   287     -0.234733  18 O  py              261      0.225717  17 C  px        
   284      0.207605  18 O  s               288      0.194703  18 O  pz        
   239      0.185110  15 H  s               290     -0.157648  18 O  py        

 Vector   47  Occ=2.000000D+00  E=-6.778216D-01
              MO Center= -9.7D-01, -1.2D+00, -1.3D-02, r^2= 1.0D+01
   Bfn.  Coefficient  Atom+Function         Bfn.  Coefficient  Atom+Function  
  ----- ------------  ---------------      ----- ------------  ---------------
   554      0.228275  33 C  py              624      0.175198  36 H  s         
   578      0.170809  34 O  px              604     -0.169956  35 N  py        
   552      0.168424  33 C  s               576     -0.167435  34 O  s         

 Vector   48  Occ=2.000000D+00  E=-6.726306D-01
              MO Center= -4.6D-01, -1.2D+00, -6.5D-01, r^2= 6.3D+00
   Bfn.  Coefficient  Atom+Function         Bfn.  Coefficient  Atom+Function  
  ----- ------------  ---------------      ----- ------------  ---------------
   440      0.246744  26 C  pz              459     -0.226357  27 H  s         
   578      0.168058  34 O  px              139      0.159121   9 C  s         
   404      0.157123  24 N  px              503      0.152762  30 H  s         

 Vector   49  Occ=2.000000D+00  E=-6.686759D-01
              MO Center= -1.2D+00,  1.4D+00, -3.4D-01, r^2= 9.4D+00
   Bfn.  Coefficient  Atom+Function         Bfn.  Coefficient  Atom+Function  
  ----- ------------  ---------------      ----- ------------  ---------------
    84      0.251687   6 O  pz               80     -0.226189   6 O  s         
    13     -0.181665   2 C  s                19     -0.156006   2 C  pz        
   143      0.154102   9 C  pz              146      0.150533   9 C  pz        

 Vector   50  Occ=2.000000D+00  E=-6.550817D-01
              MO Center= -4.7D-02,  1.4D+00,  1.7D-02, r^2= 8.3D+00
   Bfn.  Coefficient  Atom+Function         Bfn.  Coefficient  Atom+Function  
  ----- ------------  ---------------      ----- ------------  ---------------
   145      0.198488   9 C  py              260      0.184513  17 C  s         

 Vector   51  Occ=2.000000D+00  E=-6.429572D-01
              MO Center= -2.1D-01, -1.6D+00, -7.2D-02, r^2= 7.6D+00
   Bfn.  Coefficient  Atom+Function         Bfn.  Coefficient  Atom+Function  
  ----- ------------  ---------------      ----- ------------  ---------------
   580     -0.237023  34 O  pz              472      0.235490  28 C  px        
   502      0.187620  30 H  s               576     -0.172173  34 O  s         
   551      0.161888  33 C  s               442      0.154218  26 C  py        
   553     -0.151487  33 C  px        

 Vector   52  Occ=2.000000D+00  E=-6.358438D-01
              MO Center= -2.8D-03,  1.3D+00, -5.0D-02, r^2= 9.0D+00
   Bfn.  Coefficient  Atom+Function         Bfn.  Coefficient  Atom+Function  
  ----- ------------  ---------------      ----- ------------  ---------------
   173      0.363139  11 C  s               260      0.253086  17 C  s         
   139     -0.183799   9 C  s               108     -0.174316   7 N  py        
   503      0.162652  30 H  s                57     -0.158970   5 C  px        

 Vector   53  Occ=2.000000D+00  E=-6.273915D-01
              MO Center= -3.4D-02,  3.7D-01, -8.9D-01, r^2= 8.1D+00
   Bfn.  Coefficient  Atom+Function         Bfn.  Coefficient  Atom+Function  
  ----- ------------  ---------------      ----- ------------  ---------------
   381     -0.224500  23 O  pz              377      0.222855  23 O  s         
   356      0.210493  22 C  pz              379      0.179752  23 O  px        
   173     -0.153193  11 C  s         

 Vector   54  Occ=2.000000D+00  E=-6.150312D-01
              MO Center=  1.2D+00,  6.8D-01,  9.2D-02, r^2= 8.6D+00
   Bfn.  Coefficient  Atom+Function         Bfn.  Coefficient  Atom+Function  
  ----- ------------  ---------------      ----- ------------  ---------------
   277     -0.175351  17 C  dxy             471      0.176064  28 C  s         
   288     -0.175070  18 O  pz              494     -0.170242  29 H  s         
   262     -0.169110  17 C  py              219      0.162054  14 C  py        
   309     -0.160248  19 N  s               248      0.158771  16 H  s         
   473      0.158459  28 C  py        

 Vector   55  Occ=2.000000D+00  E=-6.099911D-01
              MO Center= -5.0D-01,  1.9D+00,  6.8D-01, r^2= 8.6D+00
   Bfn.  Coefficient  Atom+Function         Bfn.  Coefficient  Atom+Function  
  ----- ------------  ---------------      ----- ------------  ---------------
   249      0.202337  16 H  s                35     -0.184327   3 H  s         
   286     -0.183264  18 O  px               15     -0.180608   2 C  py        
     1      0.172660   1 H  s                14     -0.158781   2 C  px        
   263     -0.153961  17 C  pz        

 Vector   56  Occ=2.000000D+00  E=-5.998675D-01
              MO Center=  9.2D-01,  7.9D-01,  2.9D-01, r^2= 7.8D+00
   Bfn.  Coefficient  Atom+Function         Bfn.  Coefficient  Atom+Function  
  ----- ------------  ---------------      ----- ------------  ---------------
   288      0.241684  18 O  pz              173      0.196343  11 C  s         
   261      0.171457  17 C  px              313      0.169572  19 N  pz        
   291      0.156592  18 O  pz        

 Vector   57  Occ=2.000000D+00  E=-5.896675D-01
              MO Center=  1.4D-01,  1.9D-01, -3.0D-01, r^2= 9.9D+00
   Bfn.  Coefficient  Atom+Function         Bfn.  Coefficient  Atom+Function  
  ----- ------------  ---------------      ----- ------------  ---------------
   473      0.170547  28 C  py              471      0.155901  28 C  s         

 Vector   58  Occ=2.000000D+00  E=-5.828180D-01
              MO Center= -1.2D+00, -7.4D-01, -1.1D-01, r^2= 1.0D+01
   Bfn.  Coefficient  Atom+Function         Bfn.  Coefficient  Atom+Function  
  ----- ------------  ---------------      ----- ------------  ---------------
   579      0.256703  34 O  py              555     -0.232498  33 C  pz        
   460     -0.184701  27 H  s               582      0.165559  34 O  py        
    59      0.161363   5 C  pz        

 Vector   59  Occ=2.000000D+00  E=-5.729112D-01
              MO Center= -3.6D-01,  4.9D-01, -3.0D-01, r^2= 9.8D+00
   Bfn.  Coefficient  Atom+Function         Bfn.  Coefficient  Atom+Function  
  ----- ------------  ---------------      ----- ------------  ---------------
   381      0.203860  23 O  pz               59      0.176133   5 C  pz        
    83      0.151432   6 O  py              406      0.150089  24 N  pz        

 Vector   60  Occ=2.000000D+00  E=-5.662989D-01
              MO Center= -3.4D-01, -3.9D-01, -3.0D-01, r^2= 1.1D+01
   Bfn.  Coefficient  Atom+Function         Bfn.  Coefficient  Atom+Function  
  ----- ------------  ---------------      ----- ------------  ---------------
   173      0.222996  11 C  s               216     -0.158301  14 C  s         
   580      0.155954  34 O  pz        

 Vector   61  Occ=2.000000D+00  E=-5.592205D-01
              MO Center= -1.3D+00,  1.1D+00,  6.5D-01, r^2= 1.2D+01
   Bfn.  Coefficient  Atom+Function         Bfn.  Coefficient  Atom+Function  
  ----- ------------  ---------------      ----- ------------  ---------------
    15      0.230052   2 C  py               44      0.227391   4 H  s         
    45      0.227448   4 H  s               173      0.194700  11 C  s         
     1     -0.168780   1 H  s         

 Vector   62  Occ=2.000000D+00  E=-5.520896D-01
              MO Center= -1.1D+00,  1.4D+00,  6.7D-01, r^2= 1.1D+01
   Bfn.  Coefficient  Atom+Function         Bfn.  Coefficient  Atom+Function  
  ----- ------------  ---------------      ----- ------------  ---------------
    44     -0.267774   4 H  s                14      0.257158   2 C  px        
   106     -0.207473   7 N  s                45     -0.200241   4 H  s         
   216     -0.177956  14 C  s         

 Vector   63  Occ=2.000000D+00  E=-5.379421D-01
              MO Center= -1.3D-01,  6.8D-01, -2.8D-01, r^2= 9.4D+00
   Bfn.  Coefficient  Atom+Function         Bfn.  Coefficient  Atom+Function  
  ----- ------------  ---------------      ----- ------------  ---------------
   470      0.229651  28 C  s               379     -0.177939  23 O  px        
   436     -0.169031  26 C  s               552     -0.165763  33 C  s         
    14     -0.157866   2 C  px              176     -0.153837  11 C  py        

 Vector   64  Occ=2.000000D+00  E=-5.273673D-01
              MO Center=  3.0D-01,  7.5D-01,  2.2D-01, r^2= 1.1D+01
   Bfn.  Coefficient  Atom+Function         Bfn.  Coefficient  Atom+Function  
  ----- ------------  ---------------      ----- ------------  ---------------
   139      0.283631   9 C  s               503      0.227764  30 H  s         
   206      0.224841  13 H  s               460      0.201821  27 H  s         
   403     -0.184817  24 N  s               471     -0.179424  28 C  s         
   470     -0.173704  28 C  s               240      0.159264  15 H  s         
   218      0.150271  14 C  px              540     -0.150706  32 H  s         

 Vector   65  Occ=2.000000D+00  E=-5.181355D-01
              MO Center=  2.9D-01, -3.7D-02, -2.4D-01, r^2= 9.8D+00
   Bfn.  Coefficient  Atom+Function         Bfn.  Coefficient  Atom+Function  
  ----- ------------  ---------------      ----- ------------  ---------------
   503      0.230815  30 H  s               470     -0.192293  28 C  s         
   460      0.176996  27 H  s               471     -0.175813  28 C  s         
   540     -0.174671  32 H  s               520     -0.173227  31 S  py        
   493     -0.169295  29 H  s               176     -0.162508  11 C  py        
   205     -0.158435  13 H  s               139      0.157170   9 C  s         

 Vector   66  Occ=2.000000D+00  E=-5.072290D-01
              MO Center=  8.9D-01,  2.2D+00, -4.2D-01, r^2= 6.0D+00
   Bfn.  Coefficient  Atom+Function         Bfn.  Coefficient  Atom+Function  
  ----- ------------  ---------------      ----- ------------  ---------------
   206      0.324233  13 H  s               196     -0.277286  12 H  s         
   197     -0.268844  12 H  s               177      0.262944  11 C  pz        
   220     -0.225001  14 C  pz              248     -0.225143  16 H  s         
   240      0.193027  15 H  s               249     -0.178513  16 H  s         
   105     -0.160695   7 N  s         

 Vector   67  Occ=2.000000D+00  E=-4.946650D-01
              MO Center= -7.5D-02,  2.0D+00, -4.1D-01, r^2= 7.0D+00
   Bfn.  Coefficient  Atom+Function         Bfn.  Coefficient  Atom+Function  
  ----- ------------  ---------------      ----- ------------  ---------------
   175     -0.234049  11 C  px              141      0.224344   9 C  px        
   162     -0.189898  10 H  s               163     -0.177909  10 H  s         
   218      0.176226  14 C  px              178     -0.171605  11 C  px        
    82     -0.170304   6 O  px              106      0.158324   7 N  s         
    83     -0.152141   6 O  py              240      0.150093  15 H  s         

 Vector   68  Occ=2.000000D+00  E=-4.626820D-01
              MO Center=  8.0D-01, -1.1D+00,  6.5D-01, r^2= 7.4D+00
   Bfn.  Coefficient  Atom+Function         Bfn.  Coefficient  Atom+Function  
  ----- ------------  ---------------      ----- ------------  ---------------
   514      0.361367  31 S  s               521      0.262681  31 S  pz        
   287      0.260246  18 O  py              477     -0.227234  28 C  pz        
   290      0.212811  18 O  py              474     -0.213617  28 C  pz        
   460     -0.193105  27 H  s               541     -0.181861  32 H  s         
   259     -0.176209  17 C  s               265     -0.173501  17 C  py        

 Vector   69  Occ=2.000000D+00  E=-4.455430D-01
              MO Center=  1.9D+00,  2.7D-01,  5.0D-01, r^2= 4.7D+00
   Bfn.  Coefficient  Atom+Function         Bfn.  Coefficient  Atom+Function  
  ----- ------------  ---------------      ----- ------------  ---------------
   310      0.320261  19 N  s               313      0.282362  19 N  pz        
   286     -0.258865  18 O  px              288     -0.249958  18 O  pz        
   316      0.230969  19 N  pz              139      0.229312   9 C  s         
   314      0.227020  19 N  px              289     -0.218271  18 O  px        
   311      0.217770  19 N  px              291     -0.201065  18 O  pz        

 Vector   70  Occ=2.000000D+00  E=-4.410961D-01
              MO Center= -3.0D-02,  3.4D-01, -8.5D-01, r^2= 7.6D+00
   Bfn.  Coefficient  Atom+Function         Bfn.  Coefficient  Atom+Function  
  ----- ------------  ---------------      ----- ------------  ---------------
   380      0.370465  23 O  py              383      0.295574  23 O  py        
   579     -0.166235  34 O  py              163      0.159936  10 H  s         
   142      0.158615   9 C  py              287      0.154689  18 O  py        

 Vector   71  Occ=2.000000D+00  E=-4.364461D-01
              MO Center= -9.5D-01, -1.3D+00, -2.1D-01, r^2= 7.1D+00
   Bfn.  Coefficient  Atom+Function         Bfn.  Coefficient  Atom+Function  
  ----- ------------  ---------------      ----- ------------  ---------------
   436      0.360970  26 C  s               579      0.335771  34 O  py        
   578      0.277668  34 O  px              582      0.277447  34 O  py        
   139     -0.272688   9 C  s               380      0.270683  23 O  py        
   383      0.222669  23 O  py              581      0.214971  34 O  px        
   551     -0.206314  33 C  s               569     -0.191430  33 C  dxy       

 Vector   72  Occ=2.000000D+00  E=-4.288462D-01
              MO Center=  3.2D-01, -1.5D+00,  6.3D-01, r^2= 8.0D+00
   Bfn.  Coefficient  Atom+Function         Bfn.  Coefficient  Atom+Function  
  ----- ------------  ---------------      ----- ------------  ---------------
   287      0.273844  18 O  py              520      0.224053  31 S  py        
   290      0.221708  18 O  py              523      0.195093  31 S  py        
   503     -0.192380  30 H  s               514     -0.193194  31 S  s         
   579      0.182637  34 O  py              580     -0.166821  34 O  pz        
   605      0.162871  35 N  pz              436      0.160424  26 C  s         

 Vector   73  Occ=2.000000D+00  E=-4.276101D-01
              MO Center= -1.2D+00, -2.7D+00,  2.1D-01, r^2= 6.2D+00
   Bfn.  Coefficient  Atom+Function         Bfn.  Coefficient  Atom+Function  
  ----- ------------  ---------------      ----- ------------  ---------------
   605     -0.285585  35 N  pz              580      0.276242  34 O  pz        
   608     -0.243257  35 N  pz              578      0.235649  34 O  px        
   603     -0.227464  35 N  px              583      0.215132  34 O  pz        
   606     -0.202113  35 N  px              581      0.185695  34 O  px        

 Vector   74  Occ=2.000000D+00  E=-4.148379D-01
              MO Center= -2.0D+00,  3.1D+00,  3.6D-02, r^2= 2.8D+00
   Bfn.  Coefficient  Atom+Function         Bfn.  Coefficient  Atom+Function  
  ----- ------------  ---------------      ----- ------------  ---------------
    84      0.400652   6 O  pz               87      0.310098   6 O  pz        
    82     -0.294640   6 O  px               85     -0.239935   6 O  px        
    13      0.237358   2 C  s               105      0.236924   7 N  s         
    19      0.225342   2 C  pz               16      0.219519   2 C  pz        
    83      0.216552   6 O  py              106     -0.197738   7 N  s         

 Vector   75  Occ=2.000000D+00  E=-4.035802D-01
              MO Center=  5.0D-02, -7.0D-01, -9.9D-01, r^2= 3.9D+00
   Bfn.  Coefficient  Atom+Function         Bfn.  Coefficient  Atom+Function  
  ----- ------------  ---------------      ----- ------------  ---------------
   403      0.364128  24 N  s               404     -0.341670  24 N  px        
   407     -0.334993  24 N  px              379      0.271586  23 O  px        
   406     -0.258339  24 N  pz              409     -0.222115  24 N  pz        
   382      0.220689  23 O  px              139      0.197145   9 C  s         
   310      0.195172  19 N  s               381      0.191528  23 O  pz        

 Vector   76  Occ=2.000000D+00  E=-3.902549D-01
              MO Center= -8.7D-01,  2.1D+00, -3.3D-01, r^2= 4.2D+00
   Bfn.  Coefficient  Atom+Function         Bfn.  Coefficient  Atom+Function  
  ----- ------------  ---------------      ----- ------------  ---------------
   108      0.308847   7 N  py              111      0.292063   7 N  py        
   107      0.263092   7 N  px              110      0.244251   7 N  px        
    82     -0.234753   6 O  px               83     -0.218977   6 O  py        
   380     -0.191334  23 O  py               85     -0.183023   6 O  px        
   216     -0.179004  14 C  s                86     -0.170355   6 O  py        

 Vector   77  Occ=2.000000D+00  E=-3.553621D-01
              MO Center=  1.0D+00, -2.4D+00,  1.1D+00, r^2= 2.4D+00
   Bfn.  Coefficient  Atom+Function         Bfn.  Coefficient  Atom+Function  
  ----- ------------  ---------------      ----- ------------  ---------------
   519      0.505433  31 S  px              522      0.498317  31 S  px        
   552      0.196287  33 C  s               471     -0.183732  28 C  s         
   470     -0.179092  28 C  s         

 Vector   78  Occ=0.000000D+00  E= 2.345405D-02
              MO Center=  1.0D+00, -3.7D+00, -1.4D+00, r^2= 3.0D+01
   Bfn.  Coefficient  Atom+Function         Bfn.  Coefficient  Atom+Function  
  ----- ------------  ---------------      ----- ------------  ---------------
   552      5.375642  33 C  s               602     -4.232734  35 N  s         
   260      2.848304  17 C  s               560     -2.616638  33 C  py        
   310     -2.444530  19 N  s               471     -2.454290  28 C  s         
   361     -2.286831  22 C  py              495     -2.109262  29 H  s         
   427      2.024474  25 H  s               437      1.732549  26 C  s         

 Vector   79  Occ=0.000000D+00  E= 2.716406D-02
              MO Center=  2.8D+00,  4.9D-02, -7.4D-01, r^2= 3.8D+01
   Bfn.  Coefficient  Atom+Function         Bfn.  Coefficient  Atom+Function  
  ----- ------------  ---------------      ----- ------------  ---------------
   310      3.144637  19 N  s               260     -2.765719  17 C  s         
   130     -2.697646   8 H  s               241      2.592577  15 H  s         
   268      2.374119  17 C  py              602     -2.169817  35 N  s         
   552      2.107735  33 C  s               471     -1.958810  28 C  s         
   560     -1.806829  33 C  py              427      1.791393  25 H  s         

 Vector   80  Occ=0.000000D+00  E= 3.859325D-02
              MO Center=  1.0D+00,  7.5D-01,  6.4D-01, r^2= 4.4D+01
   Bfn.  Coefficient  Atom+Function         Bfn.  Coefficient  Atom+Function  
  ----- ------------  ---------------      ----- ------------  ---------------
   130      3.658257   8 H  s               471      2.957810  28 C  s         
   542     -2.952046  32 H  s               361      2.775367  22 C  py        
   260     -2.663103  17 C  s               495      2.621166  29 H  s         
   310      2.409815  19 N  s               353     -1.914659  22 C  s         
   250     -1.858797  16 H  s               552      1.575492  33 C  s         

 Vector   81  Occ=0.000000D+00  E= 4.490778D-02
              MO Center=  5.8D-01,  1.4D+00,  9.6D-01, r^2= 4.3D+01
   Bfn.  Coefficient  Atom+Function         Bfn.  Coefficient  Atom+Function  
  ----- ------------  ---------------      ----- ------------  ---------------
   552      4.054846  33 C  s               130      3.652460   8 H  s         
   495     -3.103116  29 H  s                65      3.029905   5 C  pz        
   471     -3.032661  28 C  s               268     -2.940443  17 C  py        
   444      2.930558  26 C  px              542     -2.858335  32 H  s         
   241      2.607949  15 H  s                63     -2.373643   5 C  px        

 Vector   82  Occ=0.000000D+00  E= 4.781010D-02
              MO Center= -2.9D-01, -1.5D+00, -1.2D+00, r^2= 4.4D+01
   Bfn.  Coefficient  Atom+Function         Bfn.  Coefficient  Atom+Function  
  ----- ------------  ---------------      ----- ------------  ---------------
   461      2.687828  27 H  s               626     -2.414129  36 H  s         
   147      2.292284   9 C  px              310     -2.049369  19 N  s         
   217     -2.030031  14 C  s               504      2.030493  30 H  s         
   183      2.019142  11 C  pz              268     -2.012914  17 C  py        
   411     -1.959495  24 N  py              198      1.934912  12 H  s         

 Vector   83  Occ=0.000000D+00  E= 5.089848D-02
              MO Center=  1.0D-01,  1.1D-01, -4.6D-01, r^2= 4.6D+01
   Bfn.  Coefficient  Atom+Function         Bfn.  Coefficient  Atom+Function  
  ----- ------------  ---------------      ----- ------------  ---------------
   217     -5.136806  14 C  s               147      4.739276   9 C  px        
   471     -3.598328  28 C  s               495     -3.503829  29 H  s         
   241     -3.154944  15 H  s               461      3.167454  27 H  s         
   183      2.822811  11 C  pz              353      2.834817  22 C  s         
   198      2.762777  12 H  s               362      2.521919  22 C  pz        

 Vector   84  Occ=0.000000D+00  E= 5.623462D-02
              MO Center=  2.1D-01, -5.2D-01, -1.5D+00, r^2= 4.1D+01
   Bfn.  Coefficient  Atom+Function         Bfn.  Coefficient  Atom+Function  
  ----- ------------  ---------------      ----- ------------  ---------------
   461      5.151170  27 H  s               495     -3.963860  29 H  s         
   446      3.093365  26 C  pz              207     -2.936554  13 H  s         
   361      2.663655  22 C  py              403      2.585001  24 N  s         
   149      2.400567   9 C  pz              250      2.402819  16 H  s         
   479     -2.265602  28 C  py              183     -1.962925  11 C  pz        

 Vector   85  Occ=0.000000D+00  E= 6.128274D-02
              MO Center=  7.1D-01,  9.0D-01, -4.8D-02, r^2= 4.4D+01
   Bfn.  Coefficient  Atom+Function         Bfn.  Coefficient  Atom+Function  
  ----- ------------  ---------------      ----- ------------  ---------------
   260      5.139789  17 C  s               149     -3.796875   9 C  pz        
    65     -3.516519   5 C  pz              334     -3.174850  20 H  s         
   164     -3.065640  10 H  s               174     -2.982632  11 C  s         
    63      2.779527   5 C  px               13      2.728244   2 C  s         
   310     -2.615177  19 N  s                56      2.455330   5 C  s         

 Vector   86  Occ=0.000000D+00  E= 6.681665D-02
              MO Center=  1.6D-01,  6.8D-01,  1.5D+00, r^2= 3.9D+01
   Bfn.  Coefficient  Atom+Function         Bfn.  Coefficient  Atom+Function  
  ----- ------------  ---------------      ----- ------------  ---------------
   427      7.212166  25 H  s               471     -5.727006  28 C  s         
   552      5.114415  33 C  s                 3     -4.501337   1 H  s         
   241     -4.401399  15 H  s               444      3.670743  26 C  px        
   542     -3.651577  32 H  s               495     -2.934974  29 H  s         
   504      2.731004  30 H  s               250      2.714343  16 H  s         

 Vector   87  Occ=0.000000D+00  E= 6.818430D-02
              MO Center= -3.6D-01,  2.8D+00,  1.0D+00, r^2= 3.7D+01
   Bfn.  Coefficient  Atom+Function         Bfn.  Coefficient  Atom+Function  
  ----- ------------  ---------------      ----- ------------  ---------------
   198      5.139337  12 H  s                46     -4.615067   4 H  s         
    37      3.083778   3 H  s                13     -2.938884   2 C  s         
   241     -2.641801  15 H  s               427     -2.606751  25 H  s         
   260     -2.547547  17 C  s               334     -2.524183  20 H  s         
   224      2.229871  14 C  px              130      2.105252   8 H  s         

 Vector   88  Occ=0.000000D+00  E= 7.056178D-02
              MO Center=  2.7D-01, -1.9D+00, -4.5D-01, r^2= 4.3D+01
   Bfn.  Coefficient  Atom+Function         Bfn.  Coefficient  Atom+Function  
  ----- ------------  ---------------      ----- ------------  ---------------
   635      4.490933  37 H  s               552      4.258200  33 C  s         
   504     -4.029713  30 H  s               260     -3.205753  17 C  s         
   495     -3.118533  29 H  s               310      2.901986  19 N  s         
   361     -2.890254  22 C  py              174      2.821367  11 C  s         
   403     -2.770758  24 N  s               542      2.593947  32 H  s         

 Vector   89  Occ=0.000000D+00  E= 7.825622D-02
              MO Center= -6.8D-02,  1.4D+00, -1.4D+00, r^2= 3.8D+01
   Bfn.  Coefficient  Atom+Function         Bfn.  Coefficient  Atom+Function  
  ----- ------------  ---------------      ----- ------------  ---------------
   164      6.548288  10 H  s               207     -5.886440  13 H  s         
   552      5.284785  33 C  s               427      4.258542  25 H  s         
   495      4.000332  29 H  s               149      3.876935   9 C  pz        
[...]
   260    -11.116884  17 C  s               268    -11.156608  17 C  py        
   148     11.048717   9 C  py              181      9.924289  11 C  px        
   360     -9.597329  22 C  px               12     -9.238455   2 C  s         

 Vector  187  Occ=0.000000D+00  E= 4.408108D-01
              MO Center= -1.2D-01,  9.3D-01, -6.0D-01, r^2= 2.0D+01
   Bfn.  Coefficient  Atom+Function         Bfn.  Coefficient  Atom+Function  
  ----- ------------  ---------------      ----- ------------  ---------------
   147     20.595052   9 C  px              217    -13.659145  14 C  s         
   360    -12.788222  22 C  px               13      9.467329   2 C  s         
   181      8.503792  11 C  px               56      7.965038   5 C  s         
   226      7.230074  14 C  pz              445     -6.028637  26 C  py        
   353      5.866020  22 C  s               148      5.580451   9 C  py        

 Vector  188  Occ=0.000000D+00  E= 4.441859D-01
              MO Center= -5.5D-01,  5.1D-01,  7.0D-01, r^2= 2.2D+01
   Bfn.  Coefficient  Atom+Function         Bfn.  Coefficient  Atom+Function  
  ----- ------------  ---------------      ----- ------------  ---------------
   471     16.771041  28 C  s               217     16.368323  14 C  s         
   552    -16.021761  33 C  s               310    -11.247797  19 N  s         
   602      9.469033  35 N  s               147     -9.267089   9 C  px        
   427     -8.749128  25 H  s               260      8.594377  17 C  s         
   444     -8.410700  26 C  px              114      6.742630   7 N  py        

 Vector  189  Occ=0.000000D+00  E= 4.489831D-01
              MO Center= -7.3D-01,  3.5D-01,  1.5D-01, r^2= 2.1D+01
   Bfn.  Coefficient  Atom+Function         Bfn.  Coefficient  Atom+Function  
  ----- ------------  ---------------      ----- ------------  ---------------
   552     25.736411  33 C  s               602    -13.684965  35 N  s         
   217     11.656667  14 C  s               353    -10.736254  22 C  s         
    13     -9.923748   2 C  s               445      9.791255  26 C  py        
   410      8.722186  24 N  px              444      8.298090  26 C  px        
   437      8.072437  26 C  s                56      7.822413   5 C  s         

 Vector  190  Occ=0.000000D+00  E= 4.498629D-01
              MO Center= -2.0D-01, -5.2D-01, -4.8D-01, r^2= 2.1D+01
   Bfn.  Coefficient  Atom+Function         Bfn.  Coefficient  Atom+Function  
  ----- ------------  ---------------      ----- ------------  ---------------
   552     26.037085  33 C  s               444     15.235241  26 C  px        
   471    -14.315961  28 C  s               360    -10.744753  22 C  px        
   445     10.099003  26 C  py              147      9.010081   9 C  px        
   353     -8.597872  22 C  s               260      8.369389  17 C  s         
   403     -7.954095  24 N  s               602     -6.741700  35 N  s         

 Vector  191  Occ=0.000000D+00  E= 4.559483D-01
              MO Center=  3.7D-01, -2.0D-02,  7.1D-02, r^2= 1.9D+01
   Bfn.  Coefficient  Atom+Function         Bfn.  Coefficient  Atom+Function  
  ----- ------------  ---------------      ----- ------------  ---------------
   260     16.983419  17 C  s               310    -13.076202  19 N  s         
   361    -10.771317  22 C  py              403    -10.608003  24 N  s         
   411     -9.827602  24 N  py              181     -7.620495  11 C  px        
   148     -6.847022   9 C  py              471     -6.255025  28 C  s         
   140      6.027581   9 C  s               226     -6.038054  14 C  pz        

 Vector  192  Occ=0.000000D+00  E= 4.644523D-01
              MO Center=  9.2D-02, -1.0D+00, -2.4D-01, r^2= 2.2D+01
   Bfn.  Coefficient  Atom+Function         Bfn.  Coefficient  Atom+Function  
  ----- ------------  ---------------      ----- ------------  ---------------
   260     15.103517  17 C  s               552    -14.662797  33 C  s         
   310    -13.767282  19 N  s               471    -13.399573  28 C  s         
   403     13.056311  24 N  s               445    -12.392479  26 C  py        
   217     10.643166  14 C  s               602     10.597027  35 N  s         
   411     -8.753808  24 N  py              181     -6.472894  11 C  px        

 Vector  193  Occ=0.000000D+00  E= 4.695853D-01
              MO Center= -6.7D-01,  1.3D+00,  6.7D-01, r^2= 2.1D+01
   Bfn.  Coefficient  Atom+Function         Bfn.  Coefficient  Atom+Function  
  ----- ------------  ---------------      ----- ------------  ---------------
   310    -11.602464  19 N  s               260     11.214247  17 C  s         
   268     -8.372853  17 C  py              602      7.981276  35 N  s         
   403      7.148883  24 N  s               206      6.149194  13 H  s         
   174     -5.809455  11 C  s               181      5.427877  11 C  px        
   226      5.300676  14 C  pz              173     -4.895156  11 C  s         

 Vector  194  Occ=0.000000D+00  E= 4.741472D-01
              MO Center=  9.5D-02,  4.4D-01, -9.3D-02, r^2= 2.2D+01
   Bfn.  Coefficient  Atom+Function         Bfn.  Coefficient  Atom+Function  
  ----- ------------  ---------------      ----- ------------  ---------------
   353     12.925729  22 C  s               471    -11.875923  28 C  s         
   361    -10.121430  22 C  py              148     -9.082899   9 C  py        
   149     -9.004822   9 C  pz              362      7.414804  22 C  pz        
   217     -7.259387  14 C  s               470     -6.358785  28 C  s         
   310     -5.986885  19 N  s               378     -5.942770  23 O  s         

 Vector  195  Occ=0.000000D+00  E= 4.751924D-01
              MO Center=  1.9D-01, -2.2D-02, -4.9D-02, r^2= 2.2D+01
   Bfn.  Coefficient  Atom+Function         Bfn.  Coefficient  Atom+Function  
  ----- ------------  ---------------      ----- ------------  ---------------
   552     21.652058  33 C  s               471    -15.193131  28 C  s         
   217    -14.169296  14 C  s               260    -11.195376  17 C  s         
   444     10.445073  26 C  px              310      7.074687  19 N  s         
   149     -6.523597   9 C  pz              285      6.052360  18 O  s         
   173     -5.647254  11 C  s               249      5.404558  16 H  s         

 Vector  196  Occ=0.000000D+00  E= 4.780511D-01
              MO Center=  2.2D-01,  5.5D-01,  2.8D-01, r^2= 2.3D+01
   Bfn.  Coefficient  Atom+Function         Bfn.  Coefficient  Atom+Function  
  ----- ------------  ---------------      ----- ------------  ---------------
   217    -28.190802  14 C  s                13     27.845898   2 C  s         
   552    -26.776600  33 C  s               353     17.661172  22 C  s         
   361    -14.792169  22 C  py              403    -14.221166  24 N  s         
   140     13.077660   9 C  s                65    -12.747823   5 C  pz        
   411    -12.585163  24 N  py              471     10.256063  28 C  s         

 Vector  197  Occ=0.000000D+00  E= 4.811996D-01
              MO Center= -3.9D-01,  1.1D+00,  6.7D-01, r^2= 1.9D+01
   Bfn.  Coefficient  Atom+Function         Bfn.  Coefficient  Atom+Function  
  ----- ------------  ---------------      ----- ------------  ---------------
   471     16.075754  28 C  s               147    -13.339078   9 C  px        
    13    -10.368585   2 C  s               174      9.452616  11 C  s         
   260     -9.002422  17 C  s               216      8.526194  14 C  s         
   149      7.919027   9 C  pz              444     -7.767722  26 C  px        
   130      7.181576   8 H  s               115      6.942915   7 N  pz        

 Vector  198  Occ=0.000000D+00  E= 4.858071D-01
              MO Center= -1.3D-01,  8.5D-01, -2.1D-01, r^2= 2.2D+01
   Bfn.  Coefficient  Atom+Function         Bfn.  Coefficient  Atom+Function  
  ----- ------------  ---------------      ----- ------------  ---------------
   471     31.276199  28 C  s               149    -14.252101   9 C  pz        
   552    -14.204521  33 C  s               217     12.824603  14 C  s         
   260     -9.871086  17 C  s               503     -9.067598  30 H  s         
   148     -8.731300   9 C  py              444     -8.585441  26 C  px        
    13     -8.007339   2 C  s               173     -7.963872  11 C  s         

 Vector  199  Occ=0.000000D+00  E= 4.894879D-01
              MO Center= -2.8D-01, -1.3D-01,  3.0D-01, r^2= 2.1D+01
   Bfn.  Coefficient  Atom+Function         Bfn.  Coefficient  Atom+Function  
  ----- ------------  ---------------      ----- ------------  ---------------
   260     23.535698  17 C  s                13     13.251795   2 C  s         
   427    -11.069177  25 H  s               577     -7.783379  34 O  s         
    65     -7.670859   5 C  pz              411     -7.194433  24 N  py        
   174     -7.126995  11 C  s               310     -7.036124  19 N  s         
   552      6.373588  33 C  s               403     -6.307088  24 N  s         

 Vector  200  Occ=0.000000D+00  E= 4.901233D-01
              MO Center=  1.2D-01, -4.2D-01, -6.0D-01, r^2= 1.8D+01
   Bfn.  Coefficient  Atom+Function         Bfn.  Coefficient  Atom+Function  
  ----- ------------  ---------------      ----- ------------  ---------------
   552     14.623804  33 C  s               602    -12.044541  35 N  s         
   147      8.265042   9 C  px              217     -7.696885  14 C  s         
   437      7.065532  26 C  s               173     -6.751849  11 C  s         
   361      6.645357  22 C  py              183      5.373449  11 C  pz        
    56      5.250092   5 C  s               410      5.189614  24 N  px        

 Vector  201  Occ=0.000000D+00  E= 4.938796D-01
              MO Center=  6.3D-01,  1.7D-01,  1.9D-02, r^2= 1.9D+01
   Bfn.  Coefficient  Atom+Function         Bfn.  Coefficient  Atom+Function  
  ----- ------------  ---------------      ----- ------------  ---------------
   552     16.768022  33 C  s                12    -10.113986   2 C  s         
   217    -10.012379  14 C  s               471     -9.569744  28 C  s         
   602     -9.480182  35 N  s               427      9.368523  25 H  s         
   353     -9.300717  22 C  s               260      8.396781  17 C  s         
   444      8.009855  26 C  px              445      7.903824  26 C  py        

 Vector  202  Occ=0.000000D+00  E= 4.980325D-01
              MO Center=  2.2D-01, -4.9D-02, -2.8D-01, r^2= 2.1D+01
   Bfn.  Coefficient  Atom+Function         Bfn.  Coefficient  Atom+Function  
  ----- ------------  ---------------      ----- ------------  ---------------
   552     23.197431  33 C  s               361    -15.752163  22 C  py        
   471    -14.168956  28 C  s               403    -11.470741  24 N  s         
   602    -10.576122  35 N  s               260      9.574095  17 C  s         
   444      8.811810  26 C  px              310     -8.427932  19 N  s         
   130      5.913707   8 H  s               411      5.886181  24 N  py        

 Vector  203  Occ=0.000000D+00  E= 5.030131D-01
              MO Center=  6.2D-01,  2.8D-01, -3.7D-01, r^2= 1.7D+01
   Bfn.  Coefficient  Atom+Function         Bfn.  Coefficient  Atom+Function  
  ----- ------------  ---------------      ----- ------------  ---------------
   217     13.685450  14 C  s               471     13.320995  28 C  s         
   216      9.156863  14 C  s               503     -7.230300  30 H  s         
   552     -7.250149  33 C  s               173      6.780591  11 C  s         
   240     -6.612740  15 H  s               403     -6.620123  24 N  s         
   197     -5.800474  12 H  s               260      5.648362  17 C  s         


 center of mass
 --------------
 x =  -0.02432399 y =  -0.03520545 z =  -0.00262071

 moments of inertia (a.u.)
 ------------------
        6832.296115430016          -0.000000000001           0.000000000003
          -0.000000000001        4166.748714203407          -0.000000000000
           0.000000000003          -0.000000000000        8464.186392698175

  Mulliken analysis of the total density
  --------------------------------------

    Atom       Charge   Shell Charges
 -----------   ------   -------------------------------------------------------
    1 H    1     0.82   0.76  0.09  0.01  0.03 -0.07
    2 C    6     6.32   2.01  0.66  0.28  0.15  2.07  1.01 -0.02  0.06  0.10
    3 H    1     0.87   0.76  0.13  0.00  0.03 -0.06
    4 H    1     1.02   0.77  0.26  0.01  0.03 -0.06
    5 C    6     5.12   2.01  0.68  0.13 -0.06  1.90  0.28 -0.08  0.24  0.02
    6 O    8     8.74   2.01  0.82  1.00  0.16  2.79  1.83  0.14  0.01 -0.01
    7 N    7     7.42   2.01  0.72  0.80 -0.06  2.46  1.44  0.01  0.05  0.01
    8 H    1     0.97   0.75  0.21  0.01  0.06 -0.05
    9 C    6     6.33   2.01  0.66 -0.06  0.00  1.99  1.49  0.06  0.14  0.05
   10 H    1     1.06   0.77  0.28 -0.00  0.03 -0.02
   11 C    6     5.82   2.01  0.66  0.31  0.04  2.03  0.60 -0.01  0.09  0.09
   12 H    1     0.91   0.78  0.17 -0.01  0.03 -0.06
   13 H    1     0.98   0.78  0.25  0.01  0.03 -0.09
   14 C    6     6.59   2.01  0.66  0.74 -0.02  2.05  0.91 -0.01  0.09  0.17
   15 H    1     0.90   0.78  0.17  0.00  0.03 -0.09
   16 H    1     0.80   0.78  0.06 -0.02  0.03 -0.04
   17 C    6     4.65   2.01  0.68  0.02  0.11  1.90 -0.24 -0.01  0.24 -0.07
   18 O    8     8.95   2.01  0.81  1.03  0.22  2.81  1.90  0.15  0.02  0.00
   19 N    7     7.27   2.01  0.72  0.80 -0.12  2.47  1.27  0.09  0.04 -0.02
   20 H    1     0.94   0.75  0.20 -0.02  0.06 -0.04
   21 H    1     0.99   0.76  0.22 -0.00  0.05 -0.04
   22 C    6     4.89   2.01  0.68  0.14  0.00  1.89  0.18  0.03  0.24 -0.27
   23 O    8     8.93   2.01  0.82  1.05  0.20  2.79  1.88  0.17  0.01  0.00
   24 N    7     7.26   2.01  0.72  0.82 -0.19  2.45  1.43 -0.07  0.05  0.03
   25 H    1     0.96   0.75  0.25 -0.06  0.06 -0.04
   26 C    6     6.28   2.01  0.66  0.30 -0.05  2.00  1.21 -0.11  0.14  0.12
   27 H    1     1.14   0.78  0.34  0.00  0.03 -0.00
   28 C    6     5.49   2.01  0.66 -0.07 -0.14  1.99  1.00 -0.01  0.10 -0.04
   29 H    1     1.22   0.78  0.42 -0.00  0.03 -0.00
   30 H    1     1.15   0.77  0.37 -0.00  0.03 -0.01
   31 S   16    15.66   2.00  2.03  0.86  0.70  0.06  6.00  2.33  1.67  0.07  0.10 -0.16
   32 H    1     0.97   0.67  0.23  0.03  0.04  0.01
   33 C    6     4.66   2.01  0.68  0.04  0.16  1.89 -0.18 -0.01  0.23 -0.16
   34 O    8     8.79   2.01  0.82  1.03  0.16  2.79  1.84  0.13  0.01 -0.00
   35 N    7     7.22   2.01  0.72  0.83 -0.18  2.47  1.27  0.09  0.04 -0.02
   36 H    1     0.97   0.75  0.19 -0.01  0.06 -0.02
   37 H    1     0.98   0.76  0.22 -0.02  0.05 -0.04

       Multipole analysis of the density wrt the origin
       ------------------------------------------------

     L   x y z        total         open         nuclear
     -   - - -        -----         ----         -------
     0   0 0 0      0.000000      0.000000    154.000000

     1   1 0 0      1.861994      0.000000      0.000000
     1   0 1 0     -1.134963      0.000000     -0.000000
     1   0 0 1     -0.263673      0.000000      0.000000

     2   2 0 0    -88.652323      0.000000   1582.597332
     2   1 1 0     13.724423      0.000000     14.000808
     2   1 0 1     -3.495247      0.000000    -30.115806
     2   0 2 0    -79.913261      0.000000   3027.406429
     2   0 1 1     12.421463      0.000000     38.495093
     2   0 0 2    -98.219564      0.000000    696.273822


 Task  times  cpu:    13736.1s     wall:    13776.7s


                                NWChem Input Module
                                -------------------


 Summary of allocated global arrays
-----------------------------------
  No active global arrays


MA_summarize_allocated_blocks: starting scan ...
MA_summarize_allocated_blocks: scan completed: 0 heap blocks, 0 stack blocks
MA usage statistics:

	allocation statistics:
					      heap	     stack
					      ----	     -----
	current number of blocks	         0	         0
	maximum number of blocks	        16	        14
	current total bytes		         0	         0
	maximum total bytes		    146648	  35431480
	maximum total K-bytes		       147	     35432
	maximum total M-bytes		         1	        36


                                     CITATION
                                     --------
                Please cite the following reference when publishing
                           results obtained with NWChem:

          E. Apra, E. J. Bylaska, W. A. de Jong, N. Govind, K. Kowalski,
       T. P. Straatsma, M. Valiev, H. J. J. van Dam, Y. Alexeev, J. Anchell,
       V. Anisimov, F. W. Aquino, R. Atta-Fynn, J. Autschbach, N. P. Bauman,
     J. C. Becca, D. E. Bernholdt, K. Bhaskaran-Nair, S. Bogatko, P. Borowski,
         J. Boschen, J. Brabec, A. Bruner, E. Cauet, Y. Chen, G. N. Chuev,
      C. J. Cramer, J. Daily, M. J. O. Deegan, T. H. Dunning Jr., M. Dupuis,
   K. G. Dyall, G. I. Fann, S. A. Fischer, A. Fonari, H. Fruchtl, L. Gagliardi,
      J. Garza, N. Gawande, S. Ghosh, K. Glaesemann, A. W. Gotz, J. Hammond,
       V. Helms, E. D. Hermes, K. Hirao, S. Hirata, M. Jacquelin, L. Jensen,
   B. G. Johnson, H. Jonsson, R. A. Kendall, M. Klemm, R. Kobayashi, V. Konkov,
      S. Krishnamoorthy, M. Krishnan, Z. Lin, R. D. Lins, R. J. Littlefield,
      A. J. Logsdail, K. Lopata, W. Ma, A. V. Marenich, J. Martin del Campo,
   D. Mejia-Rodriguez, J. E. Moore, J. M. Mullin, T. Nakajima, D. R. Nascimento,
    J. A. Nichols, P. J. Nichols, J. Nieplocha, A. Otero-de-la-Roza, B. Palmer,
    A. Panyala, T. Pirojsirikul, B. Peng, R. Peverati, J. Pittner, L. Pollack,
   R. M. Richard, P. Sadayappan, G. C. Schatz, W. A. Shelton, D. W. Silverstein,
   D. M. A. Smith, T. A. Soares, D. Song, M. Swart, H. L. Taylor, G. S. Thomas,
            V. Tipparaju, D. G. Truhlar, K. Tsemekhman, T. Van Voorhis,
      A. Vazquez-Mayagoitia, P. Verma, O. Villa, A. Vishnu, K. D. Vogiatzis,
        D. Wang, J. H. Weare, M. J. Williamson, T. L. Windus, K. Wolinski,
        A. T. Wong, Q. Wu, C. Yang, Q. Yu, M. Zacharias, Z. Zhang, Y. Zhao,
                                and R. J. Harrison
                        "NWChem: Past, present, and future
                         J. Chem. Phys. 152, 184102 (2020)
                               doi:10.1063/5.0004997

                                      AUTHORS
                                      -------
  E. Apra, E. J. Bylaska, N. Govind, K. Kowalski, M. Valiev, D. Mejia-Rodriguez,
       A. Kunitsa, N. P. Bauman, A. Panyala, W. A. de Jong, T. P. Straatsma,
   H. J. J. van Dam, D. Wang, T. L. Windus, J. Hammond, J. Autschbach, A. Woods,
    K. Bhaskaran-Nair, J. Brabec, K. Lopata, S. A. Fischer, S. Krishnamoorthy,
     M. Jacquelin, W. Ma, M. Klemm, O. Villa, Y. Chen, V. Anisimov, F. Aquino,
     S. Hirata, M. T. Hackler, E. Hermes, L. Jensen, J. E. Moore, J. C. Becca,
      V. Konjkov, T. Risthaus, M. Malagoli, A. Marenich, A. Otero-de-la-Roza,
        J. Mullin, P. Nichols, R. Peverati, J. Pittner, Y. Zhao, P.-D. Fan,
        A. Fonari, M. J. Williamson, R. J. Harrison, J. R. Rehr, M. Dupuis,
     D. Silverstein, D. M. A. Smith, J. Nieplocha, V. Tipparaju, M. Krishnan,
     B. E. Van Kuiken, A. Vazquez-Mayagoitia, M. Swart, Q. Wu, T. Van Voorhis,
     A. A. Auer, M. Nooijen, L. D. Crosby, E. Brown, G. Cisneros, G. I. Fann,
   H. Fruchtl, J. Garza, K. Hirao, R. A. Kendall, J. A. Nichols, K. Tsemekhman,
    K. Wolinski, J. Anchell, D. E. Bernholdt, P. Borowski, T. Clark, D. Clerc,
   H. Dachsel, M. J. O. Deegan, K. Dyall, D. Elwood, E. Glendening, M. Gutowski,
   A. C. Hess, J. Jaffe, B. G. Johnson, J. Ju, R. Kobayashi, R. Kutteh, Z. Lin,
   R. Littlefield, X. Long, B. Meng, T. Nakajima, S. Niu, L. Pollack, M. Rosing,
   K. Glaesemann, G. Sandrone, M. Stave, H. Taylor, G. Thomas, J. H. van Lenthe,
                               A. T. Wong, Z. Zhang.

 Total times  cpu:    13736.1s     wall:    13777.7s
