export TMOUT=5400
export TMPDIR=/tmp
export PTMPDIR=/tmp/ptmp
 argument  1 = ALA_PHE_1.nw
                                         
                                         


             Northwest Computational Chemistry Package (NWChem) 7.2.0
             --------------------------------------------------------


                    Environmental Molecular Sciences Laboratory
                       Pacific Northwest National Laboratory
                                Richland, WA 99352

                              Copyright (c) 1994-2022
                       Pacific Northwest National Laboratory
                            Battelle Memorial Institute

             NWChem is an open-source computational chemistry package
                        distributed under the terms of the
                      Educational Community License (ECL) 2.0
             A copy of the license is included with this distribution
                              in the LICENSE.TXT file

                                  ACKNOWLEDGMENT
                                  --------------

            This software and its documentation were developed at the
            EMSL at Pacific Northwest National Laboratory, a multiprogram
            national laboratory, operated for the U.S. Department of Energy
            by Battelle under Contract Number DE-AC05-76RL01830. Support
            for this work was provided by the Department of Energy Office
            of Biological and Environmental Research, Office of Basic
            Energy Sciences, and the Office of Advanced Scientific Computing.


           Job information
           ---------------

    hostname        = nova18-45
    program         = /opt/rit/el9/20230413/app/linux-rhel9-x86_64_v3/gcc-11.2.1/nwchem-7.2.0-oxtctbuhfuzyfaoziquq6bki22grib3g/bin/nwchem
    date            = Fri Jun 27 16:17:55 2025

    compiled        = Wed_May_17_23:46:39_2023
    source          = /tmp/root/spack-stage/spack-stage-nwchem-7.2.0-oxtctbuhfuzyfaoziquq6bki22grib3g/spack-src
    nwchem branch   = 7.2.0
    nwchem revision = d0d141fd
    ga revision     = 5.8.0
    use scalapack   = T
    input           = ALA_PHE_1.nw
    prefix          = ALA_PHE_1.
    data base       = ./ALA_PHE_1.db
    status          = startup
    nproc           =        8
    time left       =     -1s



           Memory information
           ------------------

    heap     =   26214394 doubles =    200.0 Mbytes
    stack    =   26214399 doubles =    200.0 Mbytes
    global   =   52428800 doubles =    400.0 Mbytes (distinct from heap & stack)
    total    =  104857593 doubles =    800.0 Mbytes
    verify   = yes
    hardfail = no 


           Directory information
           ---------------------

  0 permanent = .
  0 scratch   = .




                                NWChem Input Module
                                -------------------



 Scaling coordinates for geometry "geometry" by  1.889725989
 (inverse scale =  0.529177249)

 C1  symmetry detected

          ------
          auto-z
          ------
  no constraints, skipping    0.0000000000000000     
  no constraints, skipping    0.0000000000000000     


                             Geometry "geometry" -> ""
                             -------------------------

 Output coordinates in angstroms (scale by  1.889725989 to convert to a.u.)

  No.       Tag          Charge          X              Y              Z
 ---- ---------------- ---------- -------------- -------------- --------------
    1 H                    1.0000     2.10139176    -6.72334504    -0.71839457
    2 C                    6.0000     2.05951588    -5.84110264    -0.08219905
    3 H                    1.0000     2.94319464    -5.22798843    -0.24765844
    4 H                    1.0000     2.00663515    -6.14399722     0.96143140
    5 C                    6.0000     0.82441056    -5.04372140    -0.43309224
    6 O                    8.0000     0.06960535    -5.43594652    -1.31235416
    7 N                    7.0000     0.62672893    -3.92174474     0.25384834
    8 H                    1.0000     1.31466448    -3.64512358     0.93926969
    9 C                    6.0000    -0.49207480    -3.00181889     0.04573387
   10 H                    1.0000    -0.76210805    -3.00696531    -1.01172798
   11 C                    6.0000    -1.69950545    -3.49453839     0.85852457
   12 H                    1.0000    -2.55337721    -2.83762021     0.69074640
   13 H                    1.0000    -1.96720312    -4.50390426     0.54542476
   14 H                    1.0000    -1.45563987    -3.50073348     1.92195496
   15 C                    6.0000    -0.10222961    -1.56278827     0.42892782
   16 O                    8.0000     0.86158493    -1.34677339     1.16373194
   17 N                    7.0000    -0.86350575    -0.57669858    -0.05261008
   18 H                    1.0000    -1.66851625    -0.81233956    -0.61652801
   19 C                    6.0000    -0.65915031     0.84820088     0.22786160
   20 H                    1.0000    -0.26510894     0.95319859     1.23982943
   21 C                    6.0000     0.37804497     1.41439674    -0.75738821
   22 H                    1.0000     1.28386714     0.80725003    -0.70573479
   23 H                    1.0000    -0.01399593     1.32981411    -1.77222353
   24 C                    6.0000     0.76514761     2.85500292    -0.48659976
   25 C                    6.0000     1.62835885     3.15856833     0.58302653
   26 H                    1.0000     2.03641939     2.36224636     1.19029410
   27 C                    6.0000     1.96494996     4.49494603     0.86187786
   28 H                    1.0000     2.63174316     4.72494434     1.68082940
   29 C                    6.0000     1.43875924     5.53183665     0.07219048
   30 H                    1.0000     1.70088114     6.55935054     0.28357716
   31 C                    6.0000     0.57766274     5.23282187    -0.99878477
   32 H                    1.0000     0.17659951     6.03048815    -1.60833935
   33 C                    6.0000     0.24118105     3.89592272    -1.27848234
   34 H                    1.0000    -0.42409681     3.67095238    -2.10033617
   35 C                    6.0000    -1.99309360     1.61172537     0.16156949
   36 O                    8.0000    -2.94754558     1.15899120    -0.46160880
   37 N                    7.0000    -2.09074357     2.77330077     0.79568389
   38 H                    1.0000    -1.28900512     3.16315313     1.26533547
   39 H                    1.0000    -2.96472246     3.26973545     0.74664808

      Atomic Mass 
      ----------- 

      H                  1.007825
      C                 12.000000
      O                 15.994910
      N                 14.003070


 Effective nuclear repulsion energy (a.u.)    1511.2009864453

            Nuclear Dipole moment (a.u.) 
            ----------------------------
        X                 Y               Z
 ---------------- ---------------- ----------------
     0.0000000000     0.0000000000    -0.0000000000



                                Z-matrix (autoz)
                                -------- 

 Units are Angstrom for bonds and degrees for angles

      Type          Name      I     J     K     L     M      Value
      ----------- --------  ----- ----- ----- ----- ----- ----------
    1 Stretch                  1     2                       1.08851
    2 Stretch                  2     3                       1.08820
    3 Stretch                  2     4                       1.08798
    4 Stretch                  2     5                       1.51143
    5 Stretch                  5     6                       1.22339
    6 Stretch                  5     7                       1.33034
    7 Stretch                  7     8                       1.00974
    8 Stretch                  7     9                       1.46332
    9 Stretch                  9    10                       1.09141
   10 Stretch                  9    11                       1.53665
   11 Stretch                  9    15                       1.53936
   12 Stretch                 11    12                       1.09032
   13 Stretch                 11    13                       1.09019
   14 Stretch                 11    14                       1.09105
   15 Stretch                 15    16                       1.23107
   16 Stretch                 15    17                       1.33559
   17 Stretch                 17    18                       1.01073
   18 Stretch                 17    19                       1.46655
   19 Stretch                 19    20                       1.09104
   20 Stretch                 19    21                       1.53853
   21 Stretch                 19    35                       1.53843
   22 Stretch                 21    22                       1.09170
   23 Stretch                 21    23                       1.09121
   24 Stretch                 21    24                       1.51609
   25 Stretch                 24    25                       1.40762
   26 Stretch                 24    33                       1.40895
   27 Stretch                 25    26                       1.08140
   28 Stretch                 25    27                       1.40604
   29 Stretch                 27    28                       1.08083
   30 Stretch                 27    29                       1.40557
   31 Stretch                 29    30                       1.08128
   32 Stretch                 29    31                       1.40637
   33 Stretch                 31    32                       1.08106
   34 Stretch                 31    33                       1.40668
   35 Stretch                 33    34                       1.08104
   36 Stretch                 35    36                       1.22650
   37 Stretch                 35    37                       1.32699
   38 Stretch                 37    38                       1.00764
   39 Stretch                 37    39                       1.00633
   40 Bend                     1     2     3               109.66674
   41 Bend                     1     2     4               109.68595
   42 Bend                     1     2     5               108.86529
   43 Bend                     2     5     6               120.12550
   44 Bend                     2     5     7               116.51852
   45 Bend                     3     2     4               110.00956
   46 Bend                     3     2     5               109.33258
   47 Bend                     4     2     5               109.25977
   48 Bend                     5     7     8               118.70640
   49 Bend                     5     7     9               124.77595
   50 Bend                     6     5     7               123.35535
   51 Bend                     7     9    10               108.90503
   52 Bend                     7     9    11               108.90261
   53 Bend                     7     9    15               111.01755
   54 Bend                     8     7     9               116.43723
   55 Bend                     9    11    12               109.92412
   56 Bend                     9    11    13               109.74945
   57 Bend                     9    11    14               109.98290
   58 Bend                     9    15    16               120.72295
   59 Bend                     9    15    17               117.13552
   60 Bend                    10     9    11               108.45527
   61 Bend                    10     9    15               107.95413
   62 Bend                    11     9    15               111.53518
   63 Bend                    12    11    13               108.74393
   64 Bend                    12    11    14               109.17468
   65 Bend                    13    11    14               109.24171
   66 Bend                    15    17    18               118.88204
   67 Bend                    15    17    19               124.67867
   68 Bend                    16    15    17               122.13404
   69 Bend                    17    19    20               108.73638
   70 Bend                    17    19    21               109.20978
   71 Bend                    17    19    35               110.67964
   72 Bend                    18    17    19               116.37244
   73 Bend                    19    21    22               108.92898
   74 Bend                    19    21    23               108.95561
   75 Bend                    19    21    24               114.04414
   76 Bend                    19    35    36               120.89402
   77 Bend                    19    35    37               118.53211
   78 Bend                    20    19    21               108.36569
   79 Bend                    20    19    35               107.77988
   80 Bend                    21    19    35               111.98114
   81 Bend                    21    24    25               119.81654
   82 Bend                    21    24    33               120.44235
   83 Bend                    22    21    23               107.39724
   84 Bend                    22    21    24               107.94789
   85 Bend                    23    21    24               109.35955
   86 Bend                    24    25    26               119.95484
   87 Bend                    24    25    27               120.16423
   88 Bend                    24    33    31               120.09493
   89 Bend                    24    33    34               120.15884
   90 Bend                    25    24    33               119.72336
   91 Bend                    25    27    28               120.01394
   92 Bend                    25    27    29               120.00722
   93 Bend                    26    25    27               119.88066
   94 Bend                    27    29    30               120.02846
   95 Bend                    27    29    31               120.01385
   96 Bend                    28    27    29               119.97832
   97 Bend                    29    31    32               119.97714
   98 Bend                    29    31    33               119.99620
   99 Bend                    30    29    31               119.95646
  100 Bend                    31    33    34               119.74569
  101 Bend                    32    31    33               120.02648
  102 Bend                    35    37    38               120.18831
  103 Bend                    35    37    39               118.19323
  104 Bend                    36    35    37               120.57383
  105 Bend                    38    37    39               121.52481
  106 Torsion                  1     2     5     6           0.06243
  107 Torsion                  1     2     5     7        -179.65911
  108 Torsion                  2     5     7     8           2.14910
  109 Torsion                  2     5     7     9         178.76488
  110 Torsion                  3     2     5     6         119.85005
  111 Torsion                  3     2     5     7         -59.87149
  112 Torsion                  4     2     5     6        -119.70526
  113 Torsion                  4     2     5     7          60.57319
  114 Torsion                  5     7     9    10         -32.91834
  115 Torsion                  5     7     9    11          85.17837
  116 Torsion                  5     7     9    15        -151.64543
  117 Torsion                  6     5     7     8        -177.56256
  118 Torsion                  6     5     7     9          -0.94678
  119 Torsion                  7     9    11    12        -178.23162
  120 Torsion                  7     9    11    13         -58.67422
  121 Torsion                  7     9    11    14          61.53341
  122 Torsion                  7     9    15    16         -19.50700
  123 Torsion                  7     9    15    17         161.46733
  124 Torsion                  8     7     9    10         143.76681
  125 Torsion                  8     7     9    11         -98.13649
  126 Torsion                  8     7     9    15          25.03971
  127 Torsion                  9    15    17    18           1.83902
  128 Torsion                  9    15    17    19         178.75165
  129 Torsion                 10     9    11    12         -59.85178
  130 Torsion                 10     9    11    13          59.70563
  131 Torsion                 10     9    11    14         179.91326
  132 Torsion                 10     9    15    16        -138.80544
  133 Torsion                 10     9    15    17          42.16889
  134 Torsion                 11     9    15    16         102.14195
  135 Torsion                 11     9    15    17         -76.88372
  136 Torsion                 12    11     9    15          58.90232
  137 Torsion                 13    11     9    15         178.45972
  138 Torsion                 14    11     9    15         -61.33265
  139 Torsion                 15    17    19    20         -33.15567
  140 Torsion                 15    17    19    21          84.91193
  141 Torsion                 15    17    19    35        -151.36447
  142 Torsion                 16    15    17    18        -177.17187
  143 Torsion                 16    15    17    19          -0.25924
  144 Torsion                 17    19    21    22         -54.20742
  145 Torsion                 17    19    21    23          62.66464
  146 Torsion                 17    19    21    24        -174.85294
  147 Torsion                 17    19    35    36         -21.76954
  148 Torsion                 17    19    35    37         158.15898
  149 Torsion                 18    17    19    20         143.82701
  150 Torsion                 18    17    19    21         -98.10538
  151 Torsion                 18    17    19    35          25.61821
  152 Torsion                 19    21    24    25          75.64634
  153 Torsion                 19    21    24    33        -102.81706
  154 Torsion                 19    35    37    38           3.28443
  155 Torsion                 19    35    37    39         179.81950
  156 Torsion                 20    19    21    22          64.09235
  157 Torsion                 20    19    21    23        -179.03559
  158 Torsion                 20    19    21    24         -56.55317
  159 Torsion                 20    19    35    36        -140.55955
  160 Torsion                 20    19    35    37          39.36898
  161 Torsion                 21    19    35    36         100.34521
  162 Torsion                 21    19    35    37         -79.72626
  163 Torsion                 21    24    25    26           1.81741
  164 Torsion                 21    24    25    27        -178.37148
  165 Torsion                 21    24    33    31         178.33163
  166 Torsion                 21    24    33    34          -1.40138
  167 Torsion                 22    21    19    35        -177.15839
  168 Torsion                 22    21    24    25         -45.54533
  169 Torsion                 22    21    24    33         135.99127
  170 Torsion                 23    21    19    35         -60.28632
  171 Torsion                 23    21    24    25        -162.09261
  172 Torsion                 23    21    24    33          19.44399
  173 Torsion                 24    21    19    35          62.19609
  174 Torsion                 24    25    27    28        -179.70666
  175 Torsion                 24    25    27    29           0.02896
  176 Torsion                 24    33    31    29           0.03146
  177 Torsion                 24    33    31    32         179.87565
  178 Torsion                 25    24    33    31          -0.13320
  179 Torsion                 25    24    33    34        -179.86620
  180 Torsion                 25    27    29    30        -179.72668
  181 Torsion                 25    27    29    31          -0.13123
  182 Torsion                 26    25    24    33        -179.70806
  183 Torsion                 26    25    27    28           0.10458
  184 Torsion                 26    25    27    29         179.84020
  185 Torsion                 27    25    24    33           0.10305
  186 Torsion                 27    29    31    32        -179.74326
  187 Torsion                 27    29    31    33           0.10102
  188 Torsion                 28    27    29    30           0.00903
  189 Torsion                 28    27    29    31         179.60449
  190 Torsion                 29    31    33    34         179.76557
  191 Torsion                 30    29    31    32          -0.14751
  192 Torsion                 30    29    31    33         179.69676
  193 Torsion                 32    31    33    34          -0.39023
  194 Torsion                 36    35    37    38        -176.78680
  195 Torsion                 36    35    37    39          -0.25174


            XYZ format geometry
            -------------------
    39
 geometry
 H                     2.10139176    -6.72334504    -0.71839457
 C                     2.05951588    -5.84110264    -0.08219905
 H                     2.94319464    -5.22798843    -0.24765844
 H                     2.00663515    -6.14399722     0.96143140
 C                     0.82441056    -5.04372140    -0.43309224
 O                     0.06960535    -5.43594652    -1.31235416
 N                     0.62672893    -3.92174474     0.25384834
 H                     1.31466448    -3.64512358     0.93926969
 C                    -0.49207480    -3.00181889     0.04573387
 H                    -0.76210805    -3.00696531    -1.01172798
 C                    -1.69950545    -3.49453839     0.85852457
 H                    -2.55337721    -2.83762021     0.69074640
 H                    -1.96720312    -4.50390426     0.54542476
 H                    -1.45563987    -3.50073348     1.92195496
 C                    -0.10222961    -1.56278827     0.42892782
 O                     0.86158493    -1.34677339     1.16373194
 N                    -0.86350575    -0.57669858    -0.05261008
 H                    -1.66851625    -0.81233956    -0.61652801
 C                    -0.65915031     0.84820088     0.22786160
 H                    -0.26510894     0.95319859     1.23982943
 C                     0.37804497     1.41439674    -0.75738821
 H                     1.28386714     0.80725003    -0.70573479
 H                    -0.01399593     1.32981411    -1.77222353
 C                     0.76514761     2.85500292    -0.48659976
 C                     1.62835885     3.15856833     0.58302653
 H                     2.03641939     2.36224636     1.19029410
 C                     1.96494996     4.49494603     0.86187786
 H                     2.63174316     4.72494434     1.68082940
 C                     1.43875924     5.53183665     0.07219048
 H                     1.70088114     6.55935054     0.28357716
 C                     0.57766274     5.23282187    -0.99878477
 H                     0.17659951     6.03048815    -1.60833935
 C                     0.24118105     3.89592272    -1.27848234
 H                    -0.42409681     3.67095238    -2.10033617
 C                    -1.99309360     1.61172537     0.16156949
 O                    -2.94754558     1.15899120    -0.46160880
 N                    -2.09074357     2.77330077     0.79568389
 H                    -1.28900512     3.16315313     1.26533547
 H                    -2.96472246     3.26973545     0.74664808

 ==============================================================================
                                internuclear distances
 ------------------------------------------------------------------------------
       center one      |      center two      | atomic units |  angstroms
 ------------------------------------------------------------------------------
    2 C                |   1 H                |     2.05698  |     1.08851
    3 H                |   2 C                |     2.05640  |     1.08820
    4 H                |   2 C                |     2.05599  |     1.08798
    5 C                |   2 C                |     2.85619  |     1.51143
    6 O                |   5 C                |     2.31186  |     1.22339
    7 N                |   5 C                |     2.51397  |     1.33034
    8 H                |   7 N                |     1.90813  |     1.00974
    9 C                |   7 N                |     2.76527  |     1.46332
   10 H                |   9 C                |     2.06246  |     1.09141
   11 C                |   9 C                |     2.90385  |     1.53665
   12 H                |  11 C                |     2.06040  |     1.09032
   13 H                |  11 C                |     2.06016  |     1.09019
   14 H                |  11 C                |     2.06179  |     1.09105
   15 C                |   9 C                |     2.90897  |     1.53936
   16 O                |  15 C                |     2.32639  |     1.23107
   17 N                |  15 C                |     2.52389  |     1.33559
   18 H                |  17 N                |     1.91000  |     1.01073
   19 C                |  17 N                |     2.77137  |     1.46655
   20 H                |  19 C                |     2.06177  |     1.09104
   21 C                |  19 C                |     2.90740  |     1.53853
   22 H                |  21 C                |     2.06301  |     1.09170
   23 H                |  21 C                |     2.06209  |     1.09121
   24 C                |  21 C                |     2.86499  |     1.51609
   25 C                |  24 C                |     2.66001  |     1.40762
   26 H                |  25 C                |     2.04354  |     1.08140
   27 C                |  25 C                |     2.65704  |     1.40604
   28 H                |  27 C                |     2.04247  |     1.08083
   29 C                |  27 C                |     2.65614  |     1.40557
   30 H                |  29 C                |     2.04333  |     1.08128
   31 C                |  29 C                |     2.65766  |     1.40637
   32 H                |  31 C                |     2.04290  |     1.08106
   33 C                |  24 C                |     2.66252  |     1.40895
   33 C                |  31 C                |     2.65824  |     1.40668
   34 H                |  33 C                |     2.04287  |     1.08104
   35 C                |  19 C                |     2.90721  |     1.53843
   36 O                |  35 C                |     2.31775  |     1.22650
   37 N                |  35 C                |     2.50764  |     1.32699
   38 H                |  37 N                |     1.90417  |     1.00764
   39 H                |  37 N                |     1.90168  |     1.00633
 ------------------------------------------------------------------------------
                         number of included internuclear distances:         39
 ==============================================================================



 ==============================================================================
                                 internuclear angles
 ------------------------------------------------------------------------------
        center 1       |       center 2       |       center 3       |  degrees
 ------------------------------------------------------------------------------
    1 H                |   2 C                |   3 H                |   109.67
    1 H                |   2 C                |   4 H                |   109.69
    1 H                |   2 C                |   5 C                |   108.87
    3 H                |   2 C                |   4 H                |   110.01
    3 H                |   2 C                |   5 C                |   109.33
    4 H                |   2 C                |   5 C                |   109.26
    2 C                |   5 C                |   6 O                |   120.13
    2 C                |   5 C                |   7 N                |   116.52
    6 O                |   5 C                |   7 N                |   123.36
    5 C                |   7 N                |   8 H                |   118.71
    5 C                |   7 N                |   9 C                |   124.78
    8 H                |   7 N                |   9 C                |   116.44
    7 N                |   9 C                |  10 H                |   108.91
    7 N                |   9 C                |  11 C                |   108.90
    7 N                |   9 C                |  15 C                |   111.02
   10 H                |   9 C                |  11 C                |   108.46
   10 H                |   9 C                |  15 C                |   107.95
   11 C                |   9 C                |  15 C                |   111.54
    9 C                |  11 C                |  12 H                |   109.92
    9 C                |  11 C                |  13 H                |   109.75
    9 C                |  11 C                |  14 H                |   109.98
   12 H                |  11 C                |  13 H                |   108.74
   12 H                |  11 C                |  14 H                |   109.17
   13 H                |  11 C                |  14 H                |   109.24
    9 C                |  15 C                |  16 O                |   120.72
    9 C                |  15 C                |  17 N                |   117.14
   16 O                |  15 C                |  17 N                |   122.13
   15 C                |  17 N                |  18 H                |   118.88
   15 C                |  17 N                |  19 C                |   124.68
   18 H                |  17 N                |  19 C                |   116.37
   17 N                |  19 C                |  20 H                |   108.74
   17 N                |  19 C                |  21 C                |   109.21
   17 N                |  19 C                |  35 C                |   110.68
   20 H                |  19 C                |  21 C                |   108.37
   20 H                |  19 C                |  35 C                |   107.78
   21 C                |  19 C                |  35 C                |   111.98
   19 C                |  21 C                |  22 H                |   108.93
   19 C                |  21 C                |  23 H                |   108.96
   19 C                |  21 C                |  24 C                |   114.04
   22 H                |  21 C                |  23 H                |   107.40
   22 H                |  21 C                |  24 C                |   107.95
   23 H                |  21 C                |  24 C                |   109.36
   21 C                |  24 C                |  25 C                |   119.82
   21 C                |  24 C                |  33 C                |   120.44
   25 C                |  24 C                |  33 C                |   119.72
   24 C                |  25 C                |  26 H                |   119.95
   24 C                |  25 C                |  27 C                |   120.16
   26 H                |  25 C                |  27 C                |   119.88
   25 C                |  27 C                |  28 H                |   120.01
   25 C                |  27 C                |  29 C                |   120.01
   28 H                |  27 C                |  29 C                |   119.98
   27 C                |  29 C                |  30 H                |   120.03
   27 C                |  29 C                |  31 C                |   120.01
   30 H                |  29 C                |  31 C                |   119.96
   29 C                |  31 C                |  32 H                |   119.98
   29 C                |  31 C                |  33 C                |   120.00
   32 H                |  31 C                |  33 C                |   120.03
   24 C                |  33 C                |  31 C                |   120.09
   24 C                |  33 C                |  34 H                |   120.16
   31 C                |  33 C                |  34 H                |   119.75
   19 C                |  35 C                |  36 O                |   120.89
   19 C                |  35 C                |  37 N                |   118.53
   36 O                |  35 C                |  37 N                |   120.57
   35 C                |  37 N                |  38 H                |   120.19
   35 C                |  37 N                |  39 H                |   118.19
   38 H                |  37 N                |  39 H                |   121.52
 ------------------------------------------------------------------------------
                            number of included internuclear angles:         66
 ==============================================================================



  library name resolved from: environment
  library file name is: </opt/rit/el9/20230413/app/linux-rhel9-x86_64_v3/gcc-11.2.1/nwchem-7.2.0-oxtctbuhfuzyfaoziquq6bki22grib3g/share/nwchem/libraries/>
  


 Summary of "ao basis" -> "" (cartesian)
 ------------------------------------------------------------------------------
       Tag                 Description            Shells   Functions and Types
 ---------------- ------------------------------  ------  ---------------------
 *                        aug-cc-pvdz                 on all atoms 


                      Basis "ao basis" -> "ao basis" (cartesian)
                      -----
  H (Hydrogen)
  ------------
            Exponent  Coefficients 
       -------------- ---------------------------------------------------------
  1 S  1.30100000E+01  0.019685
  1 S  1.96200000E+00  0.137977
  1 S  4.44600000E-01  0.478148

  2 S  1.22000000E-01  1.000000

  3 S  2.97400000E-02  1.000000

  4 P  7.27000000E-01  1.000000

  5 P  1.41000000E-01  1.000000

  C (Carbon)
  ----------
            Exponent  Coefficients 
       -------------- ---------------------------------------------------------
  1 S  6.66500000E+03  0.000692
  1 S  1.00000000E+03  0.005329
  1 S  2.28000000E+02  0.027077
  1 S  6.47100000E+01  0.101718
  1 S  2.10600000E+01  0.274740
  1 S  7.49500000E+00  0.448564
  1 S  2.79700000E+00  0.285074
  1 S  5.21500000E-01  0.015204

  2 S  6.66500000E+03 -0.000146
  2 S  1.00000000E+03 -0.001154
  2 S  2.28000000E+02 -0.005725
  2 S  6.47100000E+01 -0.023312
  2 S  2.10600000E+01 -0.063955
  2 S  7.49500000E+00 -0.149981
  2 S  2.79700000E+00 -0.127262
  2 S  5.21500000E-01  0.544529

  3 S  1.59600000E-01  1.000000

  4 S  4.69000000E-02  1.000000

  5 P  9.43900000E+00  0.038109
  5 P  2.00200000E+00  0.209480
  5 P  5.45600000E-01  0.508557

  6 P  1.51700000E-01  1.000000

  7 P  4.04100000E-02  1.000000

  8 D  5.50000000E-01  1.000000

  9 D  1.51000000E-01  1.000000

  O (Oxygen)
  ----------
            Exponent  Coefficients 
       -------------- ---------------------------------------------------------
  1 S  1.17200000E+04  0.000710
  1 S  1.75900000E+03  0.005470
  1 S  4.00800000E+02  0.027837
  1 S  1.13700000E+02  0.104800
  1 S  3.70300000E+01  0.283062
  1 S  1.32700000E+01  0.448719
  1 S  5.02500000E+00  0.270952
  1 S  1.01300000E+00  0.015458

  2 S  1.17200000E+04 -0.000160
  2 S  1.75900000E+03 -0.001263
  2 S  4.00800000E+02 -0.006267
  2 S  1.13700000E+02 -0.025716
  2 S  3.70300000E+01 -0.070924
  2 S  1.32700000E+01 -0.165411
  2 S  5.02500000E+00 -0.116955
  2 S  1.01300000E+00  0.557368

  3 S  3.02300000E-01  1.000000

  4 S  7.89600000E-02  1.000000

  5 P  1.77000000E+01  0.043018
  5 P  3.85400000E+00  0.228913
  5 P  1.04600000E+00  0.508728

  6 P  2.75300000E-01  1.000000

  7 P  6.85600000E-02  1.000000

  8 D  1.18500000E+00  1.000000

  9 D  3.32000000E-01  1.000000

  N (Nitrogen)
  ------------
            Exponent  Coefficients 
       -------------- ---------------------------------------------------------
  1 S  9.04600000E+03  0.000700
  1 S  1.35700000E+03  0.005389
  1 S  3.09300000E+02  0.027406
  1 S  8.77300000E+01  0.103207
  1 S  2.85600000E+01  0.278723
  1 S  1.02100000E+01  0.448540
  1 S  3.83800000E+00  0.278238
  1 S  7.46600000E-01  0.015440

  2 S  9.04600000E+03 -0.000153
  2 S  1.35700000E+03 -0.001208
  2 S  3.09300000E+02 -0.005992
  2 S  8.77300000E+01 -0.024544
  2 S  2.85600000E+01 -0.067459
  2 S  1.02100000E+01 -0.158078
  2 S  3.83800000E+00 -0.121831
  2 S  7.46600000E-01  0.549003

  3 S  2.24800000E-01  1.000000

  4 S  6.12400000E-02  1.000000

  5 P  1.35500000E+01  0.039919
  5 P  2.91700000E+00  0.217169
  5 P  7.97300000E-01  0.510319

  6 P  2.18500000E-01  1.000000

  7 P  5.61100000E-02  1.000000

  8 D  8.17000000E-01  1.000000

  9 D  2.30000000E-01  1.000000



 Summary of "ao basis" -> "ao basis" (cartesian)
 ------------------------------------------------------------------------------
       Tag                 Description            Shells   Functions and Types
 ---------------- ------------------------------  ------  ---------------------
 H                        aug-cc-pvdz                5        9   3s2p
 C                        aug-cc-pvdz                9       25   4s3p2d
 O                        aug-cc-pvdz                9       25   4s3p2d
 N                        aug-cc-pvdz                9       25   4s3p2d


                                 NWChem SCF Module
                                 -----------------



  ao basis        = "ao basis"
  functions       =   671
  atoms           =    39
  closed shells   =    74
  open shells     =     0
  charge          =   0.00
  wavefunction    = RHF 
  input vectors   = atomic
  output vectors  = ./ALA_PHE_1.movecs
  use symmetry    = F
  symmetry adapt  = F


 Summary of "ao basis" -> "ao basis" (cartesian)
 ------------------------------------------------------------------------------
       Tag                 Description            Shells   Functions and Types
 ---------------- ------------------------------  ------  ---------------------
 H                        aug-cc-pvdz                5        9   3s2p
 C                        aug-cc-pvdz                9       25   4s3p2d
 O                        aug-cc-pvdz                9       25   4s3p2d
 N                        aug-cc-pvdz                9       25   4s3p2d



 Forming initial guess at       1.2s


 !! The overlap matrix has  12 vectors deemed linearly dependent with
    eigenvalues:
 1.38D-06 1.74D-06 2.19D-06 2.46D-06 2.61D-06 3.77D-06 4.60D-06 5.58D-06
 6.49D-06 7.19D-06 8.49D-06 9.46D-06


      Superposition of Atomic Density Guess
      -------------------------------------

 Sum of atomic energies:        -924.03424378

      Non-variational initial energy
      ------------------------------

 Total energy =    -937.460832
 1-e energy   =   -4255.073274
 2-e energy   =    1806.411456
 HOMO         =      -0.288540
 LUMO         =      -0.023432


 Starting SCF solution at     301.3s



 ----------------------------------------------
         Quadratically convergent ROHF

 Convergence threshold     :          1.000E-04
 Maximum no. of iterations :           30
 Final Fock-matrix accuracy:          1.000E-10
 ----------------------------------------------


              iter       energy          gnorm     gmax       time
             ----- ------------------- --------- --------- --------
                 1     -928.9357051190  2.50D+00  1.35D-01    566.0
                 2     -929.2813011364  9.03D-01  5.13D-02   1178.8
                 3     -929.3515314147  6.14D-02  3.73D-03   2047.7
                 4     -929.3521055016  3.62D-03  2.58D-04   3169.3
                 5     -929.3521079367  1.07D-05  2.13D-06   5070.2


       Final RHF  results 
       ------------------ 

         Total SCF energy =   -929.352107936693
      One-electron energy =  -4269.154199315057
      Two-electron energy =   1828.601104933101
 Nuclear repulsion energy =   1511.200986445263

        Time for solution =   4776.4s


             Final eigenvalues
             -----------------

              1      
    1  -20.5412
    2  -20.5395
    3  -20.5150
    4  -15.6095
    5  -15.6084
    6  -15.5904
    7  -11.3749
    8  -11.3708
    9  -11.3474
   10  -11.3119
   11  -11.2978
   12  -11.2675
   13  -11.2620
   14  -11.2612
   15  -11.2585
   16  -11.2582
   17  -11.2581
   18  -11.2578
   19  -11.2364
   20  -11.2351
   21   -1.4049
   22   -1.3963
   23   -1.3770
   24   -1.2543
   25   -1.2390
   26   -1.2372
   27   -1.1681
   28   -1.0900
   29   -1.0564
   30   -1.0290
   31   -1.0129
   32   -0.9857
   33   -0.9236
   34   -0.8920
   35   -0.8451
   36   -0.8310
   37   -0.8156
   38   -0.7958
   39   -0.7862
   40   -0.7617
   41   -0.7228
   42   -0.7099
   43   -0.6872
   44   -0.6723
   45   -0.6624
   46   -0.6528
   47   -0.6466
   48   -0.6427
   49   -0.6370
   50   -0.6236
   51   -0.6078
   52   -0.6040
   53   -0.5979
   54   -0.5895
   55   -0.5798
   56   -0.5698
   57   -0.5618
   58   -0.5556
   59   -0.5469
   60   -0.5438
   61   -0.5255
   62   -0.5227
   63   -0.5061
   64   -0.5035
   65   -0.5001
   66   -0.4939
   67   -0.4410
   68   -0.4349
   69   -0.4287
   70   -0.4134
   71   -0.4088
   72   -0.3883
   73   -0.3501
   74   -0.3412
   75    0.0260
   76    0.0355
   77    0.0372
   78    0.0395
   79    0.0439
   80    0.0496
   81    0.0516
   82    0.0566
   83    0.0625
   84    0.0643

                       ROHF Final Molecular Orbital Analysis
                       -------------------------------------

 Vector   21  Occ=2.000000D+00  E=-1.404923D+00
              MO Center= -1.8D+00,  7.3D-01,  6.7D-02, r^2= 4.1D+00
   Bfn.  Coefficient  Atom+Function         Bfn.  Coefficient  Atom+Function  
  ----- ------------  ---------------      ----- ------------  ---------------
   606      0.327551  36 O  s               605      0.300816  36 O  s         
   580      0.214561  35 C  s               250      0.172335  16 O  s         
   249      0.163029  16 O  s         

 Vector   22  Occ=2.000000D+00  E=-1.396294D+00
              MO Center= -3.4D-01, -7.7D-01,  5.4D-01, r^2= 4.9D+00
   Bfn.  Coefficient  Atom+Function         Bfn.  Coefficient  Atom+Function  
  ----- ------------  ---------------      ----- ------------  ---------------
   250      0.315961  16 O  s               249      0.301011  16 O  s         
   224      0.207325  15 C  s               606     -0.196934  36 O  s         
   605     -0.180571  36 O  s         

 Vector   23  Occ=2.000000D+00  E=-1.377045D+00
              MO Center=  3.5D-01, -5.0D+00, -8.2D-01, r^2= 1.6D+00
   Bfn.  Coefficient  Atom+Function         Bfn.  Coefficient  Atom+Function  
  ----- ------------  ---------------      ----- ------------  ---------------
    79      0.343836   6 O  s                80      0.345239   6 O  s         
    54      0.242791   5 C  s                12      0.157392   2 C  s         

 Vector   24  Occ=2.000000D+00  E=-1.254293D+00
              MO Center= -6.0D-01, -5.4D-01,  1.5D-01, r^2= 1.8D+00
   Bfn.  Coefficient  Atom+Function         Bfn.  Coefficient  Atom+Function  
  ----- ------------  ---------------      ----- ------------  ---------------
   275      0.422986  17 N  s               274      0.340059  17 N  s         
   250     -0.218647  16 O  s               249     -0.181532  16 O  s         
   298      0.150294  18 H  s               308      0.150569  19 C  s         

 Vector   25  Occ=2.000000D+00  E=-1.238994D+00
              MO Center=  3.8D-01, -3.9D+00,  6.9D-03, r^2= 3.0D+00
   Bfn.  Coefficient  Atom+Function         Bfn.  Coefficient  Atom+Function  
  ----- ------------  ---------------      ----- ------------  ---------------
   105      0.436245   7 N  s               104      0.337836   7 N  s         
    80     -0.210873   6 O  s                79     -0.183762   6 O  s         
   128      0.150213   8 H  s         

 Vector   26  Occ=2.000000D+00  E=-1.237216D+00
              MO Center= -2.0D+00,  2.2D+00,  5.4D-01, r^2= 2.8D+00
   Bfn.  Coefficient  Atom+Function         Bfn.  Coefficient  Atom+Function  
  ----- ------------  ---------------      ----- ------------  ---------------
   631      0.390167  37 N  s               630      0.363447  37 N  s         
   606     -0.211072  36 O  s               605     -0.176897  36 O  s         
   654      0.165988  38 H  s               584      0.160850  35 C  py        
   663      0.153575  39 H  s         

 Vector   27  Occ=2.000000D+00  E=-1.168105D+00
              MO Center=  9.8D-01,  3.8D+00, -2.5D-01, r^2= 2.9D+00
   Bfn.  Coefficient  Atom+Function         Bfn.  Coefficient  Atom+Function  
  ----- ------------  ---------------      ----- ------------  ---------------
   385      0.204176  24 C  s               410      0.175239  25 C  s         
   546      0.172819  33 C  s               444      0.157042  27 C  s         
   512      0.155212  31 C  s               478      0.151622  29 C  s         

 Vector   28  Occ=2.000000D+00  E=-1.089978D+00
              MO Center=  1.8D-01,  1.5D+00, -1.4D-01, r^2= 9.0D+00
   Bfn.  Coefficient  Atom+Function         Bfn.  Coefficient  Atom+Function  
  ----- ------------  ---------------      ----- ------------  ---------------
   309      0.249787  19 C  s               342      0.211298  21 C  s         
   308      0.180118  19 C  s         

 Vector   29  Occ=2.000000D+00  E=-1.056380D+00
              MO Center=  7.1D-03, -2.1D+00,  1.2D-01, r^2= 1.3D+01
   Bfn.  Coefficient  Atom+Function         Bfn.  Coefficient  Atom+Function  
  ----- ------------  ---------------      ----- ------------  ---------------
   138      0.219538   9 C  s               172      0.186449  11 C  s         
    12     -0.169995   2 C  s         

 Vector   30  Occ=2.000000D+00  E=-1.028982D+00
              MO Center=  1.1D+00,  4.2D+00, -2.2D-01, r^2= 2.9D+00
   Bfn.  Coefficient  Atom+Function         Bfn.  Coefficient  Atom+Function  
  ----- ------------  ---------------      ----- ------------  ---------------
   412      0.364713  25 C  s               548     -0.362427  33 C  s         
   546      0.218955  33 C  s               444     -0.214433  27 C  s         
   410     -0.211761  25 C  s               512      0.209500  31 C  s         
   571      0.163908  34 H  s               396     -0.157384  24 C  pz        

 Vector   31  Occ=2.000000D+00  E=-1.012912D+00
              MO Center=  3.5D-01,  1.4D+00, -1.5D-02, r^2= 1.4D+01
   Bfn.  Coefficient  Atom+Function         Bfn.  Coefficient  Atom+Function  
  ----- ------------  ---------------      ----- ------------  ---------------
   308      0.196954  19 C  s               480     -0.186745  29 C  s         
   478      0.170277  29 C  s               385     -0.158245  24 C  s         

 Vector   32  Occ=2.000000D+00  E=-9.857071D-01
              MO Center=  9.7D-01, -4.6D+00,  8.2D-02, r^2= 7.8D+00
   Bfn.  Coefficient  Atom+Function         Bfn.  Coefficient  Atom+Function  
  ----- ------------  ---------------      ----- ------------  ---------------
    11      0.305370   2 C  s                56     -0.241127   5 C  s         
    13      0.189619   2 C  s               144     -0.187564   9 C  px        
   172      0.172935  11 C  s               225      0.159974  15 C  s         

 Vector   33  Occ=2.000000D+00  E=-9.235804D-01
              MO Center= -1.4D-02,  1.4D+00, -1.6D-01, r^2= 9.1D+00
   Bfn.  Coefficient  Atom+Function         Bfn.  Coefficient  Atom+Function  
  ----- ------------  ---------------      ----- ------------  ---------------
   314      0.257356  19 C  px              225     -0.244423  15 C  s         
   145      0.239013   9 C  py              342      0.233406  21 C  s         
   480     -0.231564  29 C  s               139      0.225458   9 C  s         
   349      0.206266  21 C  py              231      0.163345  15 C  py        
   548      0.152872  33 C  s         

 Vector   34  Occ=2.000000D+00  E=-8.920387D-01
              MO Center= -8.2D-01, -2.1D+00,  4.0D-01, r^2= 8.8D+00
   Bfn.  Coefficient  Atom+Function         Bfn.  Coefficient  Atom+Function  
  ----- ------------  ---------------      ----- ------------  ---------------
   145      0.239929   9 C  py              172     -0.228421  11 C  s         
   144      0.205936   9 C  px              309      0.183791  19 C  s         
   314     -0.180784  19 C  px              138      0.163611   9 C  s         
   225     -0.151600  15 C  s         

 Vector   35  Occ=2.000000D+00  E=-8.451132D-01
              MO Center=  1.0D+00,  4.0D+00, -2.2D-01, r^2= 4.1D+00
   Bfn.  Coefficient  Atom+Function         Bfn.  Coefficient  Atom+Function  
  ----- ------------  ---------------      ----- ------------  ---------------
   514      0.448601  31 C  s               548     -0.438495  33 C  s         
   412      0.430442  25 C  s               446     -0.427464  27 C  s         
   435     -0.222637  26 H  s               571      0.220385  34 H  s         
   537     -0.196296  32 H  s               469      0.187898  28 H  s         
   343     -0.175983  21 C  s               512     -0.176152  31 C  s         

 Vector   36  Occ=2.000000D+00  E=-8.309536D-01
              MO Center= -7.8D-01,  1.1D+00,  2.5D-01, r^2= 1.2D+01
   Bfn.  Coefficient  Atom+Function         Bfn.  Coefficient  Atom+Function  
  ----- ------------  ---------------      ----- ------------  ---------------
   309      0.270659  19 C  s               480     -0.231571  29 C  s         
   634     -0.227665  37 N  py              580      0.182073  35 C  s         
   587      0.167844  35 C  py              663     -0.162137  39 H  s         
   225      0.159624  15 C  s               314     -0.156626  19 C  px        
   278     -0.155243  17 N  py        

 Vector   37  Occ=2.000000D+00  E=-8.155577D-01
              MO Center=  4.0D-01,  1.8D+00, -9.4D-02, r^2= 1.2D+01
   Bfn.  Coefficient  Atom+Function         Bfn.  Coefficient  Atom+Function  
  ----- ------------  ---------------      ----- ------------  ---------------
   480      0.379770  29 C  s               387      0.291016  24 C  s         
   514     -0.251934  31 C  s               412     -0.244938  25 C  s         
   277      0.177259  17 N  px              446     -0.177042  27 C  s         
   298     -0.173527  18 H  s               275     -0.168240  17 N  s         
   503     -0.168361  30 H  s               385     -0.150436  24 C  s         

 Vector   38  Occ=2.000000D+00  E=-7.957881D-01
              MO Center= -6.3D-01,  1.1D+00,  1.2D-01, r^2= 7.7D+00
   Bfn.  Coefficient  Atom+Function         Bfn.  Coefficient  Atom+Function  
  ----- ------------  ---------------      ----- ------------  ---------------
   275      0.271631  17 N  s               333     -0.237438  20 H  s         
   298      0.214945  18 H  s               225     -0.192527  15 C  s         
   315      0.191336  19 C  py              277     -0.173349  17 N  px        
   634     -0.166234  37 N  py              480      0.156488  29 C  s         
   332     -0.155383  20 H  s               279     -0.154556  17 N  pz        

 Vector   39  Occ=2.000000D+00  E=-7.861974D-01
              MO Center=  2.4D-01, -3.4D+00,  1.0D-01, r^2= 4.3D+00
   Bfn.  Coefficient  Atom+Function         Bfn.  Coefficient  Atom+Function  
  ----- ------------  ---------------      ----- ------------  ---------------
   128      0.286177   8 H  s               225      0.282924  15 C  s         
   139     -0.260952   9 C  s               105      0.249112   7 N  s         
   109      0.247780   7 N  pz               55     -0.210036   5 C  s         
   144     -0.188513   9 C  px              108      0.185432   7 N  py        
   163     -0.176843  10 H  s                54     -0.165630   5 C  s         

 Vector   40  Occ=2.000000D+00  E=-7.617364D-01
              MO Center= -1.3D+00,  9.7D-01,  4.4D-01, r^2= 9.2D+00
   Bfn.  Coefficient  Atom+Function         Bfn.  Coefficient  Atom+Function  
  ----- ------------  ---------------      ----- ------------  ---------------
   633      0.275276  37 N  px              654      0.270498  38 H  s         
   315      0.177252  19 C  py              663     -0.155293  39 H  s         

 Vector   41  Occ=2.000000D+00  E=-7.228441D-01
              MO Center= -5.6D-01, -6.9D-01,  3.5D-01, r^2= 1.5D+01
   Bfn.  Coefficient  Atom+Function         Bfn.  Coefficient  Atom+Function  
  ----- ------------  ---------------      ----- ------------  ---------------
   633      0.246597  37 N  px              663     -0.229948  39 H  s         
   145     -0.214660   9 C  py              228      0.195272  15 C  py        
   142     -0.193496   9 C  py        

 Vector   42  Occ=2.000000D+00  E=-7.099330D-01
              MO Center=  8.7D-01,  4.0D+00, -9.9D-02, r^2= 6.3D+00
   Bfn.  Coefficient  Atom+Function         Bfn.  Coefficient  Atom+Function  
  ----- ------------  ---------------      ----- ------------  ---------------
   482      0.208988  29 C  py              479      0.207909  29 C  s         
   411     -0.206288  25 C  s               502      0.202713  30 H  s         
   309      0.191153  19 C  s               435      0.182380  26 H  s         
   514     -0.171301  31 C  s               349      0.169447  21 C  py        
   570      0.168514  34 H  s               414     -0.166221  25 C  py        

 Vector   43  Occ=2.000000D+00  E=-6.871795D-01
              MO Center= -6.1D-01,  1.9D-01,  1.8D-01, r^2= 9.1D+00
   Bfn.  Coefficient  Atom+Function         Bfn.  Coefficient  Atom+Function  
  ----- ------------  ---------------      ----- ------------  ---------------
   608      0.208062  36 O  px              332     -0.172086  20 H  s         
   225      0.161448  15 C  s               252     -0.155789  16 O  px        
   311     -0.154452  19 C  px              584     -0.154399  35 C  py        
   250     -0.150357  16 O  s         

 Vector   44  Occ=2.000000D+00  E=-6.722709D-01
              MO Center= -2.5D-01, -2.0D+00, -1.5D-01, r^2= 1.4D+01
   Bfn.  Coefficient  Atom+Function         Bfn.  Coefficient  Atom+Function  
  ----- ------------  ---------------      ----- ------------  ---------------
    80      0.191434   6 O  s                82     -0.177974   6 O  px        
    12     -0.165284   2 C  s               278     -0.157298  17 N  py        

 Vector   45  Occ=2.000000D+00  E=-6.623512D-01
              MO Center=  4.2D-01,  1.3D+00, -6.1D-02, r^2= 1.6D+01
   Bfn.  Coefficient  Atom+Function         Bfn.  Coefficient  Atom+Function  
  ----- ------------  ---------------      ----- ------------  ---------------
   387      0.208113  24 C  s               469      0.173437  28 H  s         
   480      0.156275  29 C  s               446     -0.154693  27 C  s         
   537      0.154042  32 H  s               392     -0.152080  24 C  py        

 Vector   46  Occ=2.000000D+00  E=-6.528012D-01
              MO Center=  2.8D-01, -2.6D+00, -2.5D-03, r^2= 1.2D+01
   Bfn.  Coefficient  Atom+Function         Bfn.  Coefficient  Atom+Function  
  ----- ------------  ---------------      ----- ------------  ---------------
    58      0.200630   5 C  py               13      0.181326   2 C  s         
    82     -0.174596   6 O  px              252     -0.155279  16 O  px        
    14      0.153580   2 C  px              250     -0.153786  16 O  s         

 Vector   47  Occ=2.000000D+00  E=-6.466480D-01
              MO Center= -9.1D-03,  3.0D+00, -3.6D-01, r^2= 7.2D+00
   Bfn.  Coefficient  Atom+Function         Bfn.  Coefficient  Atom+Function  
  ----- ------------  ---------------      ----- ------------  ---------------
   548     -0.223542  33 C  s               412      0.220095  25 C  s         
   550      0.196646  33 C  py              608      0.194688  36 O  px        
   448      0.191153  27 C  py              516     -0.181425  31 C  py        
   514      0.169089  31 C  s               366      0.159166  22 H  s         
   345      0.156327  21 C  px              606     -0.150833  36 O  s         

 Vector   48  Occ=2.000000D+00  E=-6.426802D-01
              MO Center=  2.1D-01,  4.0D-01,  2.3D-02, r^2= 1.7D+01
   Bfn.  Coefficient  Atom+Function         Bfn.  Coefficient  Atom+Function  
  ----- ------------  ---------------      ----- ------------  ---------------
   278      0.199500  17 N  py              312     -0.172381  19 C  py        
   537      0.150141  32 H  s         

 Vector   49  Occ=2.000000D+00  E=-6.370074D-01
              MO Center= -2.6D-01,  5.2D-01, -5.7D-02, r^2= 1.1D+01
   Bfn.  Coefficient  Atom+Function         Bfn.  Coefficient  Atom+Function  
  ----- ------------  ---------------      ----- ------------  ---------------
   412      0.186788  25 C  s               139     -0.153444   9 C  s         
   279     -0.152556  17 N  pz              347      0.152730  21 C  pz        

 Vector   50  Occ=2.000000D+00  E=-6.235941D-01
              MO Center=  4.9D-01, -3.4D+00, -4.8D-02, r^2= 1.3D+01
   Bfn.  Coefficient  Atom+Function         Bfn.  Coefficient  Atom+Function  
  ----- ------------  ---------------      ----- ------------  ---------------
   139      0.495629   9 C  s               173     -0.359966  11 C  s         
   225     -0.237942  15 C  s                59      0.203930   5 C  pz        
    16      0.175951   2 C  pz              108     -0.155752   7 N  py        
    44      0.153478   4 H  s                82     -0.151254   6 O  px        

 Vector   51  Occ=2.000000D+00  E=-6.077900D-01
              MO Center= -4.7D-01, -1.3D+00,  3.3D-01, r^2= 1.2D+01
   Bfn.  Coefficient  Atom+Function         Bfn.  Coefficient  Atom+Function  
  ----- ------------  ---------------      ----- ------------  ---------------
   254     -0.177068  16 O  pz               56      0.167447   5 C  s         
   333     -0.163156  20 H  s               252     -0.161236  16 O  px        

 Vector   52  Occ=2.000000D+00  E=-6.040346D-01
              MO Center=  7.1D-01,  2.5D+00, -1.2D-01, r^2= 1.4D+01
   Bfn.  Coefficient  Atom+Function         Bfn.  Coefficient  Atom+Function  
  ----- ------------  ---------------      ----- ------------  ---------------
   412      0.283122  25 C  s               548     -0.275566  33 C  s         
   435     -0.186143  26 H  s               445      0.175186  27 C  s         
   571      0.170004  34 H  s               449     -0.168231  27 C  pz        
   468     -0.165658  28 H  s               536      0.161915  32 H  s         
   551     -0.157600  33 C  pz              513     -0.154753  31 C  s         

 Vector   53  Occ=2.000000D+00  E=-5.979240D-01
              MO Center=  2.8D-01,  4.6D-01,  4.2D-03, r^2= 1.8D+01
   Bfn.  Coefficient  Atom+Function         Bfn.  Coefficient  Atom+Function  
  ----- ------------  ---------------      ----- ------------  ---------------
   445      0.229854  27 C  s               513     -0.213492  31 C  s         
   414      0.177383  25 C  py              516      0.166280  31 C  py        
   412      0.163405  25 C  s               435     -0.163040  26 H  s         
   548     -0.150012  33 C  s         

 Vector   54  Occ=2.000000D+00  E=-5.894844D-01
              MO Center= -5.0D-01,  1.2D+00, -9.4D-02, r^2= 1.2D+01
   Bfn.  Coefficient  Atom+Function         Bfn.  Coefficient  Atom+Function  
  ----- ------------  ---------------      ----- ------------  ---------------
   609      0.193572  36 O  py              480      0.173258  29 C  s         
   583     -0.166163  35 C  px              252     -0.152804  16 O  px        

 Vector   55  Occ=2.000000D+00  E=-5.797897D-01
              MO Center= -2.1D-01, -3.4D+00,  7.0D-02, r^2= 1.2D+01
   Bfn.  Coefficient  Atom+Function         Bfn.  Coefficient  Atom+Function  
  ----- ------------  ---------------      ----- ------------  ---------------
   196      0.213549  12 H  s                57     -0.198690   5 C  px        
    15     -0.193788   2 C  py               84      0.187715   6 O  pz        
   197      0.177188  12 H  s               175     -0.167049  11 C  px        
   309     -0.154537  19 C  s               176      0.150403  11 C  py        

 Vector   56  Occ=2.000000D+00  E=-5.698209D-01
              MO Center=  5.8D-01,  9.8D-01,  1.7D-01, r^2= 1.7D+01
   Bfn.  Coefficient  Atom+Function         Bfn.  Coefficient  Atom+Function  
  ----- ------------  ---------------      ----- ------------  ---------------
   480      0.241090  29 C  s               503     -0.237362  30 H  s         
   482     -0.225957  29 C  py              502     -0.199132  30 H  s         
   346      0.174711  21 C  py              389     -0.172680  24 C  py        
   252      0.170855  16 O  px              479      0.159239  29 C  s         
   349      0.154526  21 C  py               13      0.151029   2 C  s         

 Vector   57  Occ=2.000000D+00  E=-5.618226D-01
              MO Center=  9.7D-01, -5.2D+00, -3.0D-01, r^2= 5.4D+00
   Bfn.  Coefficient  Atom+Function         Bfn.  Coefficient  Atom+Function  
  ----- ------------  ---------------      ----- ------------  ---------------
     2      0.271450   1 H  s                 1      0.235053   1 H  s         
    35     -0.219648   3 H  s                15     -0.210219   2 C  py        
    84     -0.210143   6 O  pz               14     -0.172710   2 C  px        
    83     -0.157648   6 O  py        

 Vector   58  Occ=2.000000D+00  E=-5.555695D-01
              MO Center= -6.5D-01,  1.2D+00, -2.0D-01, r^2= 9.3D+00
   Bfn.  Coefficient  Atom+Function         Bfn.  Coefficient  Atom+Function  
  ----- ------------  ---------------      ----- ------------  ---------------
   345      0.250392  21 C  px              610     -0.249623  36 O  pz        
   366      0.222091  22 H  s               367      0.204571  22 H  s         
   635     -0.188472  37 N  pz              613     -0.172948  36 O  pz        
   583      0.162188  35 C  px              276     -0.157658  17 N  s         
   234      0.156631  15 C  py        

 Vector   59  Occ=2.000000D+00  E=-5.469149D-01
              MO Center= -2.2D-01, -1.1D+00, -1.8D-03, r^2= 1.5D+01
   Bfn.  Coefficient  Atom+Function         Bfn.  Coefficient  Atom+Function  
  ----- ------------  ---------------      ----- ------------  ---------------
   333      0.266286  20 H  s               376      0.243522  23 H  s         
   309     -0.204041  19 C  s               367     -0.197428  22 H  s         
   176     -0.196017  11 C  py              205      0.181159  13 H  s         
   375      0.176409  23 H  s               347     -0.151985  21 C  pz        

 Vector   60  Occ=2.000000D+00  E=-5.438285D-01
              MO Center=  7.5D-03, -3.8D+00,  3.6D-01, r^2= 9.2D+00
   Bfn.  Coefficient  Atom+Function         Bfn.  Coefficient  Atom+Function  
  ----- ------------  ---------------      ----- ------------  ---------------
   206      0.256847  13 H  s               176     -0.227786  11 C  py        
   205      0.226195  13 H  s                 1      0.204200   1 H  s         
    16     -0.194778   2 C  pz              163     -0.190214  10 H  s         
   253     -0.163939  16 O  py        

 Vector   61  Occ=2.000000D+00  E=-5.255491D-01
              MO Center= -4.6D-01, -1.6D+00,  3.1D-01, r^2= 1.2D+01
   Bfn.  Coefficient  Atom+Function         Bfn.  Coefficient  Atom+Function  
  ----- ------------  ---------------      ----- ------------  ---------------
   215      0.213233  14 H  s               214      0.206296  14 H  s         
   163      0.179772  10 H  s               177      0.174075  11 C  pz        
   175      0.173193  11 C  px              309      0.163082  19 C  s         
   196     -0.155141  12 H  s         

 Vector   62  Occ=2.000000D+00  E=-5.226751D-01
              MO Center= -2.4D-02, -1.2D+00,  1.7D-01, r^2= 1.5D+01
   Bfn.  Coefficient  Atom+Function         Bfn.  Coefficient  Atom+Function  
  ----- ------------  ---------------      ----- ------------  ---------------
   163      0.233721  10 H  s               234     -0.201518  15 C  py        
   215      0.186236  14 H  s               197     -0.180413  12 H  s         
   412      0.181293  25 C  s               309     -0.172395  19 C  s         
   196     -0.166969  12 H  s               514      0.156942  31 C  s         
   107      0.150345   7 N  px        

 Vector   63  Occ=2.000000D+00  E=-5.061261D-01
              MO Center=  8.7D-01,  3.1D+00, -1.5D-01, r^2= 9.9D+00
   Bfn.  Coefficient  Atom+Function         Bfn.  Coefficient  Atom+Function  
  ----- ------------  ---------------      ----- ------------  ---------------
   234      0.230162  15 C  py              395      0.223600  24 C  py        
   446     -0.220608  27 C  s               515      0.192063  31 C  px        
   548     -0.188674  33 C  s               447      0.185483  27 C  px        
   352      0.174109  21 C  py              388      0.171509  24 C  px        
   483     -0.170642  29 C  pz              415     -0.168009  25 C  pz        

 Vector   64  Occ=2.000000D+00  E=-5.034739D-01
              MO Center=  8.0D-01,  2.4D+00, -2.7D-01, r^2= 1.3D+01
   Bfn.  Coefficient  Atom+Function         Bfn.  Coefficient  Atom+Function  
  ----- ------------  ---------------      ----- ------------  ---------------
   514      0.299498  31 C  s               435     -0.254089  26 H  s         
   537     -0.251382  32 H  s               571      0.250184  34 H  s         
   469      0.230766  28 H  s               412      0.206115  25 C  s         
   446     -0.202374  27 C  s               390      0.194877  24 C  pz        
   548     -0.190161  33 C  s               376      0.188200  23 H  s         

 Vector   65  Occ=2.000000D+00  E=-5.001303D-01
              MO Center=  8.8D-01,  3.1D+00, -2.8D-01, r^2= 8.7D+00
   Bfn.  Coefficient  Atom+Function         Bfn.  Coefficient  Atom+Function  
  ----- ------------  ---------------      ----- ------------  ---------------
   389     -0.227907  24 C  py              503      0.229013  30 H  s         
   346      0.224967  21 C  py              448     -0.188807  27 C  py        
   516     -0.188478  31 C  py              550      0.185601  33 C  py        
   414      0.165312  25 C  py              352      0.159936  21 C  py        
   502      0.154983  30 H  s         

 Vector   66  Occ=2.000000D+00  E=-4.939161D-01
              MO Center=  1.5D-01, -3.0D+00, -9.3D-02, r^2= 1.1D+01
   Bfn.  Coefficient  Atom+Function         Bfn.  Coefficient  Atom+Function  
  ----- ------------  ---------------      ----- ------------  ---------------
   143     -0.198331   9 C  pz               84      0.189969   6 O  pz        
   163      0.168026  10 H  s               177      0.162977  11 C  pz        
    83     -0.151934   6 O  py              162      0.151684  10 H  s         

 Vector   67  Occ=2.000000D+00  E=-4.410407D-01
              MO Center= -2.0D+00,  9.4D-01, -1.4D-01, r^2= 4.1D+00
   Bfn.  Coefficient  Atom+Function         Bfn.  Coefficient  Atom+Function  
  ----- ------------  ---------------      ----- ------------  ---------------
   309      0.378931  19 C  s               609     -0.358254  36 O  py        
   608      0.316507  36 O  px              612     -0.293304  36 O  py        
   139     -0.250701   9 C  s               611      0.240934  36 O  px        
   581     -0.213957  35 C  s               599      0.194172  35 C  dxy       
   333     -0.190926  20 H  s               311      0.181486  19 C  px        

 Vector   68  Occ=2.000000D+00  E=-4.349351D-01
              MO Center=  2.4D-02, -1.4D+00,  6.8D-01, r^2= 4.9D+00
   Bfn.  Coefficient  Atom+Function         Bfn.  Coefficient  Atom+Function  
  ----- ------------  ---------------      ----- ------------  ---------------
   253      0.489009  16 O  py              256      0.398368  16 O  py        
   309     -0.311714  19 C  s               145      0.202614   9 C  py        
   275     -0.190295  17 N  s               315     -0.184090  19 C  py        
   581      0.182003  35 C  s               142      0.179068   9 C  py        
    12      0.155277   2 C  s         

 Vector   69  Occ=2.000000D+00  E=-4.286689D-01
              MO Center= -2.0D+00,  1.8D+00,  2.4D-01, r^2= 4.6D+00
   Bfn.  Coefficient  Atom+Function         Bfn.  Coefficient  Atom+Function  
  ----- ------------  ---------------      ----- ------------  ---------------
   635      0.348423  37 N  pz              638      0.308881  37 N  pz        
   610     -0.275543  36 O  pz              609      0.268905  36 O  py        
   612      0.217464  36 O  py              613     -0.214999  36 O  pz        
   634     -0.156824  37 N  py              276     -0.152932  17 N  s         

 Vector   70  Occ=2.000000D+00  E=-4.134269D-01
              MO Center=  4.0D-01, -5.1D+00, -8.7D-01, r^2= 3.5D+00
   Bfn.  Coefficient  Atom+Function         Bfn.  Coefficient  Atom+Function  
  ----- ------------  ---------------      ----- ------------  ---------------
    13      0.414446   2 C  s                83     -0.399340   6 O  py        
    82      0.357759   6 O  px               86     -0.320540   6 O  py        
    85      0.277530   6 O  px              105      0.238223   7 N  s         
    17      0.219667   2 C  px               56     -0.217699   5 C  s         
    14      0.187614   2 C  px               64      0.184227   5 C  py        

 Vector   71  Occ=2.000000D+00  E=-4.087571D-01
              MO Center= -3.6D-01, -7.4D-01,  2.2D-01, r^2= 6.4D+00
   Bfn.  Coefficient  Atom+Function         Bfn.  Coefficient  Atom+Function  
  ----- ------------  ---------------      ----- ------------  ---------------
   279      0.326748  17 N  pz              282      0.301120  17 N  pz        
   254     -0.247066  16 O  pz              277     -0.220960  17 N  px        
   309     -0.209934  19 C  s               280     -0.201099  17 N  px        
   257     -0.192551  16 O  pz              252      0.186998  16 O  px        
    13      0.158331   2 C  s         

 Vector   72  Occ=2.000000D+00  E=-3.882914D-01
              MO Center=  1.8D-01, -4.0D+00, -1.9D-01, r^2= 3.9D+00
   Bfn.  Coefficient  Atom+Function         Bfn.  Coefficient  Atom+Function  
  ----- ------------  ---------------      ----- ------------  ---------------
   109      0.300417   7 N  pz              139      0.274474   9 C  s         
   112      0.270413   7 N  pz              107     -0.231782   7 N  px        
    84     -0.226023   6 O  pz              110     -0.223114   7 N  px        
   108     -0.207704   7 N  py              111     -0.192259   7 N  py        
    82      0.175497   6 O  px               83      0.173604   6 O  py        

 Vector   73  Occ=2.000000D+00  E=-3.501179D-01
              MO Center=  1.1D+00,  4.2D+00, -2.1D-01, r^2= 3.3D+00
   Bfn.  Coefficient  Atom+Function         Bfn.  Coefficient  Atom+Function  
  ----- ------------  ---------------      ----- ------------  ---------------
   515     -0.229614  31 C  px              413      0.228326  25 C  px        
   549     -0.205387  33 C  px              447      0.198367  27 C  px        
   415     -0.181485  25 C  pz              517      0.177664  31 C  pz        
   518     -0.173831  31 C  px              416      0.170953  25 C  px        
   551      0.158740  33 C  pz              552     -0.156942  33 C  px        

 Vector   74  Occ=2.000000D+00  E=-3.411975D-01
              MO Center=  9.9D-01,  4.0D+00, -2.0D-01, r^2= 4.2D+00
   Bfn.  Coefficient  Atom+Function         Bfn.  Coefficient  Atom+Function  
  ----- ------------  ---------------      ----- ------------  ---------------
   388      0.241133  24 C  px              481     -0.241988  29 C  px        
   391      0.200829  24 C  px              483      0.188873  29 C  pz        
   309      0.187754  19 C  s               390     -0.187166  24 C  pz        
   484     -0.187406  29 C  px              315      0.163586  19 C  py        
   393     -0.156372  24 C  pz              549      0.152789  33 C  px        

 Vector   75  Occ=0.000000D+00  E= 2.602718D-02
              MO Center=  2.2D-01,  5.7D+00,  8.8D-01, r^2= 2.6D+01
   Bfn.  Coefficient  Atom+Function         Bfn.  Coefficient  Atom+Function  
  ----- ------------  ---------------      ----- ------------  ---------------
   234      3.874214  15 C  py              582      3.468629  35 C  s         
   318      3.272970  19 C  py              632     -3.159626  37 N  s         
   395      3.098482  24 C  py              226      2.939390  15 C  s         
   310      2.327834  19 C  s                56      1.985955   5 C  s         
   174      1.973423  11 C  s               387      1.926996  24 C  s         

 Vector   76  Occ=0.000000D+00  E= 3.551302D-02
              MO Center=  1.6D+00,  1.0D+00,  7.8D-01, r^2= 5.0D+01
   Bfn.  Coefficient  Atom+Function         Bfn.  Coefficient  Atom+Function  
  ----- ------------  ---------------      ----- ------------  ---------------
   412      3.943006  25 C  s               548     -3.220337  33 C  s         
   148      2.743221   9 C  py              174     -2.669133  11 C  s         
   396     -2.652937  24 C  pz              538     -2.598667  32 H  s         
   470      2.429596  28 H  s               226     -2.298996  15 C  s         
   106      2.252523   7 N  s               394     -2.052497  24 C  px        

 Vector   77  Occ=0.000000D+00  E= 3.722637D-02
              MO Center=  1.2D+00,  1.8D+00,  3.9D-01, r^2= 5.4D+01
   Bfn.  Coefficient  Atom+Function         Bfn.  Coefficient  Atom+Function  
  ----- ------------  ---------------      ----- ------------  ---------------
   480      3.404505  29 C  s               446      3.083519  27 C  s         
   470      2.830134  28 H  s               420     -2.530671  25 C  py        
   504      2.499474  30 H  s               523     -2.149442  31 C  pz        
   538     -2.103139  32 H  s               174      2.075675  11 C  s         
   556     -1.822567  33 C  py              521     -1.656763  31 C  px        

 Vector   78  Occ=0.000000D+00  E= 3.947039D-02
              MO Center= -6.9D-01,  2.8D+00,  5.2D-01, r^2= 4.0D+01
   Bfn.  Coefficient  Atom+Function         Bfn.  Coefficient  Atom+Function  
  ----- ------------  ---------------      ----- ------------  ---------------
   319     -2.202704  19 C  pz              395      2.199557  24 C  py        
   590     -2.183881  35 C  py              317      2.104358  19 C  px        
   632      2.082675  37 N  s               665      2.078848  39 H  s         
   334      1.959297  20 H  s               504     -1.472487  30 H  s         
   538     -1.464451  32 H  s               149     -1.380998   9 C  pz        

 Vector   79  Occ=0.000000D+00  E= 4.394721D-02
              MO Center=  1.3D+00,  1.3D-02, -2.4D-02, r^2= 5.5D+01
   Bfn.  Coefficient  Atom+Function         Bfn.  Coefficient  Atom+Function  
  ----- ------------  ---------------      ----- ------------  ---------------
   480      6.189827  29 C  s               504      3.917831  30 H  s         
   488     -3.524683  29 C  py              420     -3.053936  25 C  py        
   412     -2.829202  25 C  s               470     -2.434678  28 H  s         
   394      2.310755  24 C  px              556     -2.294206  33 C  py        
   455      2.265594  27 C  pz              572     -2.180582  34 H  s         

 Vector   80  Occ=0.000000D+00  E= 4.961193D-02
              MO Center= -1.0D+00, -2.4D+00,  8.2D-01, r^2= 4.2D+01
   Bfn.  Coefficient  Atom+Function         Bfn.  Coefficient  Atom+Function  
  ----- ------------  ---------------      ----- ------------  ---------------
    64     -2.972933   5 C  py               63      2.784381   5 C  px        
   147      2.682834   9 C  px              387     -2.316774  24 C  s         
   173     -2.235987  11 C  s               632     -2.165388  37 N  s         
   446      2.126147  27 C  s                13     -2.037978   2 C  s         
    37     -1.978497   3 H  s               590      1.953770  35 C  py        

 Vector   81  Occ=0.000000D+00  E= 5.156555D-02
              MO Center=  3.9D-02,  1.4D+00, -6.3D-01, r^2= 5.0D+01
   Bfn.  Coefficient  Atom+Function         Bfn.  Coefficient  Atom+Function  
  ----- ------------  ---------------      ----- ------------  ---------------
   514      6.592315  31 C  s               480     -6.125955  29 C  s         
   387     -5.982078  24 C  s               538      4.486091  32 H  s         
   504     -4.432847  30 H  s               395     -4.368725  24 C  py        
   412      4.043836  25 C  s               488      3.980779  29 C  py        
   436      3.742791  26 H  s               522     -3.073854  31 C  py        

 Vector   82  Occ=0.000000D+00  E= 5.655194D-02
              MO Center=  1.7D+00, -5.3D-01,  3.8D-01, r^2= 5.8D+01
   Bfn.  Coefficient  Atom+Function         Bfn.  Coefficient  Atom+Function  
  ----- ------------  ---------------      ----- ------------  ---------------
   446      7.353226  27 C  s               548      6.506364  33 C  s         
   470      5.167949  28 H  s               572      4.287265  34 H  s         
   480     -4.178117  29 C  s               387     -3.959714  24 C  s         
   395     -3.765976  24 C  py              455     -3.465819  27 C  pz        
   504     -3.236855  30 H  s               557      3.167383  33 C  pz        

 Vector   83  Occ=0.000000D+00  E= 6.245729D-02
              MO Center=  1.3D-01, -1.8D+00, -1.9D-01, r^2= 5.7D+01
   Bfn.  Coefficient  Atom+Function         Bfn.  Coefficient  Atom+Function  
  ----- ------------  ---------------      ----- ------------  ---------------
   514      5.552070  31 C  s               538      4.585252  32 H  s         
   387     -3.266694  24 C  s               412      3.208191  25 C  s         
    46     -3.065011   4 H  s               395     -3.053335  24 C  py        
   480     -2.998288  29 C  s               174     -2.915158  11 C  s         
   504     -2.894925  30 H  s               522     -2.809031  31 C  py        

 Vector   84  Occ=0.000000D+00  E= 6.427124D-02
              MO Center= -5.2D-01, -9.0D-02,  1.1D+00, r^2= 4.5D+01
   Bfn.  Coefficient  Atom+Function         Bfn.  Coefficient  Atom+Function  
  ----- ------------  ---------------      ----- ------------  ---------------
   334      5.352014  20 H  s               319     -3.330961  19 C  pz        
     3      3.002077   1 H  s               548     -2.994543  33 C  s         
    56      2.955033   5 C  s               656      2.721201  38 H  s         
   446     -2.643468  27 C  s               377      2.622930  23 H  s         
   665     -2.547687  39 H  s               148      2.514004   9 C  py        

 Vector   85  Occ=0.000000D+00  E= 7.005767D-02
              MO Center= -1.4D-01, -1.0D+00,  2.3D-01, r^2= 4.9D+01
   Bfn.  Coefficient  Atom+Function         Bfn.  Coefficient  Atom+Function  
  ----- ------------  ---------------      ----- ------------  ---------------
   412      5.938588  25 C  s               548     -5.058379  33 C  s         
   572     -4.899768  34 H  s               436      4.503536  26 H  s         
   446     -4.271696  27 C  s               514      3.744416  31 C  s         
   420      3.242296  25 C  py              164      3.028296  10 H  s         
   334     -3.007656  20 H  s               538      2.923329  32 H  s         

 Vector   86  Occ=0.000000D+00  E= 7.106464D-02
              MO Center=  4.3D-01, -1.3D+00, -5.2D-01, r^2= 3.6D+01
   Bfn.  Coefficient  Atom+Function         Bfn.  Coefficient  Atom+Function  
  ----- ------------  ---------------      ----- ------------  ---------------
   368      6.212410  22 H  s               334     -3.198825  20 H  s         
   352      3.187609  21 C  py               56      2.769618   5 C  s         
[...]
   226      6.918450  15 C  s               353     -6.714003  21 C  pz        

 Vector  193  Occ=0.000000D+00  E= 4.432432D-01
              MO Center=  7.3D-01, -1.6D+00, -2.0D-01, r^2= 3.1D+01
   Bfn.  Coefficient  Atom+Function         Bfn.  Coefficient  Atom+Function  
  ----- ------------  ---------------      ----- ------------  ---------------
   548      7.278580  33 C  s               276     -6.360910  17 N  s         
   317     -5.981306  19 C  px              149      5.696170   9 C  pz        
   387      5.278781  24 C  s               234      5.155233  15 C  py        
   412     -5.130454  25 C  s               148      5.093074   9 C  py        
   106      5.028976   7 N  s               395     -4.604255  24 C  py        

 Vector  194  Occ=0.000000D+00  E= 4.477960D-01
              MO Center=  1.5D-01,  8.0D-01,  2.3D-01, r^2= 2.6D+01
   Bfn.  Coefficient  Atom+Function         Bfn.  Coefficient  Atom+Function  
  ----- ------------  ---------------      ----- ------------  ---------------
   276      9.538684  17 N  s               173     -8.455853  11 C  s         
   174     -8.438313  11 C  s               215      7.481811  14 H  s         
   557      6.156448  33 C  pz              226     -6.002477  15 C  s         
   514      6.008799  31 C  s               206      5.605394  13 H  s         
   632      5.218479  37 N  s               333      5.156798  20 H  s         

 Vector  195  Occ=0.000000D+00  E= 4.513373D-01
              MO Center= -7.9D-02, -4.1D-01,  2.5D-01, r^2= 3.3D+01
   Bfn.  Coefficient  Atom+Function         Bfn.  Coefficient  Atom+Function  
  ----- ------------  ---------------      ----- ------------  ---------------
   148     16.448304   9 C  py               56     15.285287   5 C  s         
   284      9.684954  17 N  py              387     -6.336583  24 C  s         
    13     -6.216469   2 C  s               276     -6.148258  17 N  s         
   582      5.863603  35 C  s               174     -5.712322  11 C  s         
   147     -5.525678   9 C  px              351      5.539976  21 C  px        

 Vector  196  Occ=0.000000D+00  E= 4.527296D-01
              MO Center=  1.7D-01, -6.7D-01,  9.3D-02, r^2= 3.1D+01
   Bfn.  Coefficient  Atom+Function         Bfn.  Coefficient  Atom+Function  
  ----- ------------  ---------------      ----- ------------  ---------------
   446      8.142882  27 C  s               114     -7.307589   7 N  py        
   480      6.912673  29 C  s               420     -6.530768  25 C  py        
   174      6.311001  11 C  s               113      6.235634   7 N  px        
    56     -6.159261   5 C  s               412     -5.555771  25 C  s         
   283      5.202530  17 N  px              317     -4.933998  19 C  px        

 Vector  197  Occ=0.000000D+00  E= 4.567544D-01
              MO Center=  5.0D-01, -2.6D+00, -3.7D-01, r^2= 2.6D+01
   Bfn.  Coefficient  Atom+Function         Bfn.  Coefficient  Atom+Function  
  ----- ------------  ---------------      ----- ------------  ---------------
   148     14.821198   9 C  py              284     12.032751  17 N  py        
   149      9.971545   9 C  pz              318     -8.757828  19 C  py        
   106      7.493709   7 N  s               514      7.216532  31 C  s         
   234     -6.828269  15 C  py              235     -6.661603  15 C  pz        
   582     -6.656735  35 C  s               387     -6.182493  24 C  s         

 Vector  198  Occ=0.000000D+00  E= 4.603240D-01
              MO Center=  3.1D-02,  4.3D-01, -4.0D-01, r^2= 2.6D+01
   Bfn.  Coefficient  Atom+Function         Bfn.  Coefficient  Atom+Function  
  ----- ------------  ---------------      ----- ------------  ---------------
   548     16.936030  33 C  s               395    -12.655797  24 C  py        
   174    -11.847191  11 C  s               446     11.841742  27 C  s         
   480    -11.852117  29 C  s                56      8.215455   5 C  s         
   556      6.996474  33 C  py              234     -5.874909  15 C  py        
   319      5.811480  19 C  pz              206      5.708844  13 H  s         

 Vector  199  Occ=0.000000D+00  E= 4.658137D-01
              MO Center= -1.6D-01, -5.6D-01,  3.3D-01, r^2= 2.9D+01
   Bfn.  Coefficient  Atom+Function         Bfn.  Coefficient  Atom+Function  
  ----- ------------  ---------------      ----- ------------  ---------------
   174     18.070696  11 C  s                56    -14.376527   5 C  s         
   173     12.299431  11 C  s               387    -11.021463  24 C  s         
   206     -9.945965  13 H  s               147      8.728097   9 C  px        
   234      8.214394  15 C  py              215     -8.133338  14 H  s         
   197     -7.811252  12 H  s                13      6.793662   2 C  s         

 Vector  200  Occ=0.000000D+00  E= 4.684125D-01
              MO Center=  5.3D-01,  2.9D-01,  1.9D-01, r^2= 2.5D+01
   Bfn.  Coefficient  Atom+Function         Bfn.  Coefficient  Atom+Function  
  ----- ------------  ---------------      ----- ------------  ---------------
    13     21.694857   2 C  s                56    -18.243891   5 C  s         
   276     13.913410  17 N  s               352    -13.525827  21 C  py        
   318     11.049743  19 C  py              387     10.679248  24 C  s         
   412     10.127833  25 C  s                12      9.791433   2 C  s         
   284     -9.528149  17 N  py              582     -9.334108  35 C  s         

 Vector  201  Occ=0.000000D+00  E= 4.705810D-01
              MO Center=  3.1D-01, -8.3D-01,  2.8D-01, r^2= 2.8D+01
   Bfn.  Coefficient  Atom+Function         Bfn.  Coefficient  Atom+Function  
  ----- ------------  ---------------      ----- ------------  ---------------
   446     14.184087  27 C  s               548     11.457003  33 C  s         
   234    -11.186846  15 C  py               13      8.129651   2 C  s         
    56     -8.000856   5 C  s               582     -7.458806  35 C  s         
   114     -6.714914   7 N  py               45     -6.407372   4 H  s         
   412     -6.283621  25 C  s               276      5.851749  17 N  s         

 Vector  202  Occ=0.000000D+00  E= 4.768440D-01
              MO Center= -3.4D-01, -1.2D+00, -6.3D-02, r^2= 2.7D+01
   Bfn.  Coefficient  Atom+Function         Bfn.  Coefficient  Atom+Function  
  ----- ------------  ---------------      ----- ------------  ---------------
   514     11.210468  31 C  s               148     10.811762   9 C  py        
   387    -10.632563  24 C  s               395    -10.683403  24 C  py        
   106     10.311470   7 N  s               276    -10.063168  17 N  s         
   396    -10.061865  24 C  pz              412      9.232190  25 C  s         
   446      8.347802  27 C  s               318     -7.902360  19 C  py        

 Vector  203  Occ=0.000000D+00  E= 4.771366D-01
              MO Center= -6.4D-01,  1.0D+00,  1.4D-01, r^2= 2.1D+01
   Bfn.  Coefficient  Atom+Function         Bfn.  Coefficient  Atom+Function  
  ----- ------------  ---------------      ----- ------------  ---------------
   395     14.661308  24 C  py              234      9.813781  15 C  py        
   446     -8.812986  27 C  s               514     -7.724184  31 C  s         
   387      6.538988  24 C  s               317      6.173788  19 C  px        
   352      6.042402  21 C  py              548     -5.375066  33 C  s         
   367      5.053806  22 H  s               174      4.849970  11 C  s         

 Vector  204  Occ=0.000000D+00  E= 4.794900D-01
              MO Center=  3.2D-02, -4.7D-01,  8.8D-02, r^2= 2.5D+01
   Bfn.  Coefficient  Atom+Function         Bfn.  Coefficient  Atom+Function  
  ----- ------------  ---------------      ----- ------------  ---------------
    13     18.829233   2 C  s               548    -18.696441  33 C  s         
   318     16.643760  19 C  py              446    -16.495319  27 C  s         
   395     15.642203  24 C  py              412     15.482680  25 C  s         
    56    -12.573074   5 C  s               276      8.801901  17 N  s         
   632     -8.560297  37 N  s               319     -6.777576  19 C  pz        

 Vector  205  Occ=0.000000D+00  E= 4.831061D-01
              MO Center= -2.0D-01, -1.0D+00,  3.5D-01, r^2= 2.5D+01
   Bfn.  Coefficient  Atom+Function         Bfn.  Coefficient  Atom+Function  
  ----- ------------  ---------------      ----- ------------  ---------------
   480     -9.083598  29 C  s               412      8.529336  25 C  s         
   318     -5.943697  19 C  py              106     -5.367896   7 N  s         
   395     -5.226567  24 C  py              446      5.025518  27 C  s         
   234     -4.790742  15 C  py              310     -4.607985  19 C  s         
   197     -4.563600  12 H  s               226     -4.201703  15 C  s         

 Vector  206  Occ=0.000000D+00  E= 4.849350D-01
              MO Center= -1.7D-01,  8.0D-01,  1.1D-01, r^2= 2.5D+01
   Bfn.  Coefficient  Atom+Function         Bfn.  Coefficient  Atom+Function  
  ----- ------------  ---------------      ----- ------------  ---------------
   548    -10.734300  33 C  s               148     10.586748   9 C  py        
   446     -9.829118  27 C  s               276     -8.514817  17 N  s         
   174      8.124405  11 C  s               420      8.142463  25 C  py        
   412      7.964264  25 C  s               367     -6.919856  22 H  s         
   394     -6.672028  24 C  px              317      6.060504  19 C  px        

 Vector  207  Occ=0.000000D+00  E= 4.934860D-01
              MO Center= -1.2D-01,  6.1D-01, -6.0D-02, r^2= 2.4D+01
   Bfn.  Coefficient  Atom+Function         Bfn.  Coefficient  Atom+Function  
  ----- ------------  ---------------      ----- ------------  ---------------
    56     18.626659   5 C  s               446    -12.972604  27 C  s         
   387      9.266157  24 C  s               276     -8.698072  17 N  s         
   548     -8.266217  33 C  s               395      8.188808  24 C  py        
   114      7.711441   7 N  py              174     -7.721649  11 C  s         
    13     -7.395760   2 C  s               318     -7.324088  19 C  py        

 Vector  208  Occ=0.000000D+00  E= 4.972693D-01
              MO Center=  6.4D-01, -9.2D-01,  9.2D-02, r^2= 2.8D+01
   Bfn.  Coefficient  Atom+Function         Bfn.  Coefficient  Atom+Function  
  ----- ------------  ---------------      ----- ------------  ---------------
    13     35.782657   2 C  s                56    -23.628538   5 C  s         
    63    -15.039721   5 C  px              148     12.399965   9 C  py        
    64     12.118052   5 C  py              582    -11.733319  35 C  s         
   140     -9.702605   9 C  s               395     -8.830798  24 C  py        
   514      8.813687  31 C  s                36     -8.620091   3 H  s         

 Vector  209  Occ=0.000000D+00  E= 5.008574D-01
              MO Center=  5.5D-02,  1.3D+00, -2.0D-01, r^2= 2.1D+01
   Bfn.  Coefficient  Atom+Function         Bfn.  Coefficient  Atom+Function  
  ----- ------------  ---------------      ----- ------------  ---------------
   174      9.586846  11 C  s               148      9.353845   9 C  py        
   284      8.904851  17 N  py              446      8.134165  27 C  s         
   548      7.623981  33 C  s               395     -7.241346  24 C  py        
   114     -7.096452   7 N  py              352      6.355481  21 C  py        
    56     -6.109420   5 C  s               234     -5.967264  15 C  py        


 center of mass
 --------------
 x =  -0.01913537 y =   0.02404638 z =  -0.01811857

 moments of inertia (a.u.)
 ------------------
       13322.281847960370           0.000000000003          -0.000000000002
           0.000000000003        2549.256315316138          -0.000000000002
          -0.000000000002          -0.000000000002       14741.425739805683

  Mulliken analysis of the total density
  --------------------------------------

    Atom       Charge   Shell Charges
 -----------   ------   -------------------------------------------------------
    1 H    1     0.98   0.76  0.23  0.01  0.03 -0.06
    2 C    6     6.45   2.01  0.66  0.28  0.27  2.06  1.04 -0.03  0.06  0.11
    3 H    1     0.83   0.76  0.09  0.00  0.03 -0.06
    4 H    1     0.84   0.76  0.11  0.00  0.03 -0.06
    5 C    6     5.05   2.01  0.68  0.10 -0.09  1.90  0.30 -0.11  0.24  0.02
    6 O    8     8.71   2.01  0.82  0.99  0.15  2.79  1.82  0.14  0.01 -0.02
    7 N    7     7.55   2.01  0.72  0.86 -0.08  2.46  1.45  0.04  0.05  0.05
    8 H    1     1.01   0.75  0.23 -0.00  0.06 -0.03
    9 C    6     6.47   2.01  0.66  0.18  0.04  2.00  1.44 -0.12  0.14  0.13
   10 H    1     1.12   0.78  0.32 -0.00  0.03 -0.00
   11 C    6     5.61   2.01  0.66  0.18  0.20  2.04  0.45  0.00  0.07 -0.00
   12 H    1     0.89   0.77  0.14  0.01  0.03 -0.07
   13 H    1     1.02   0.77  0.29  0.00  0.03 -0.06
   14 H    1     0.90   0.77  0.16  0.00  0.03 -0.07
   15 C    6     4.64   2.01  0.68 -0.01  0.05  1.88  0.08  0.04  0.23 -0.32
   16 O    8     8.84   2.01  0.82  1.02  0.17  2.79  1.87  0.16  0.01 -0.01
   17 N    7     7.53   2.01  0.72  0.87 -0.09  2.45  1.47  0.02  0.05  0.04
   18 H    1     1.00   0.75  0.23 -0.00  0.06 -0.03
   19 C    6     6.37   2.01  0.66  0.25 -0.02  2.00  1.18  0.06  0.14  0.09
   20 H    1     1.16   0.78  0.36 -0.04  0.03  0.02
   21 C    6     5.55   2.01  0.66  0.10 -0.03  2.04  0.78 -0.04  0.09 -0.06
   22 H    1     1.12   0.78  0.39 -0.02  0.03 -0.06
   23 H    1     1.10   0.78  0.37 -0.03  0.03 -0.06
   24 C    6     6.10   2.01  0.66  0.20 -0.20  1.99  0.82  0.15  0.12  0.35
   25 C    6     5.19   2.01  0.66  0.12 -0.56  2.01  0.80  0.28  0.09 -0.22
   26 H    1     1.67   0.78  0.86 -0.00  0.03  0.00
   27 C    6     5.40   2.01  0.66  0.20 -0.32  1.99  0.74  0.27  0.09 -0.24
   28 H    1     1.54   0.78  0.72  0.00  0.03  0.01
   29 C    6     5.38   2.01  0.66  0.15 -0.43  2.00  0.79  0.31  0.09 -0.19
   30 H    1     1.53   0.78  0.72 -0.00  0.03  0.01
   31 C    6     5.40   2.01  0.66  0.14 -0.27  1.99  0.76  0.26  0.09 -0.25
   32 H    1     1.53   0.78  0.71 -0.00  0.03  0.01
   33 C    6     5.36   2.01  0.66  0.20 -0.36  2.00  0.77  0.20  0.09 -0.22
   34 H    1     1.68   0.78  0.84  0.02  0.03  0.01
   35 C    6     4.51   2.01  0.68  0.04  0.09  1.89 -0.24 -0.00  0.23 -0.19
   36 O    8     8.83   2.01  0.82  1.04  0.17  2.79  1.85  0.14  0.01  0.00
   37 N    7     7.28   2.01  0.72  0.86 -0.11  2.47  1.25  0.06  0.04 -0.01
   38 H    1     0.90   0.75  0.16 -0.01  0.06 -0.06
   39 H    1     0.97   0.75  0.20 -0.01  0.05 -0.02

       Multipole analysis of the density wrt the origin
       ------------------------------------------------

     L   x y z        total         open         nuclear
     -   - - -        -----         ----         -------
     0   0 0 0     -0.000000      0.000000    148.000000

     1   1 0 0      0.597453      0.000000      0.000000
     1   0 1 0      2.019647      0.000000      0.000000
     1   0 0 1      1.067506      0.000000     -0.000000

     2   2 0 0    -92.839589      0.000000   1100.366231
     2   1 1 0     -6.272758      0.000000    -12.261161
     2   1 0 1     -1.978170      0.000000      0.028508
     2   0 2 0    -85.805671      0.000000   6943.393336
     2   0 1 1     -6.785776      0.000000    -19.339060
     2   0 0 2    -91.366307      0.000000    330.274783


 Task  times  cpu:     5079.0s     wall:     5158.2s


                                NWChem Input Module
                                -------------------


 Summary of allocated global arrays
-----------------------------------
  No active global arrays


MA_summarize_allocated_blocks: starting scan ...
MA_summarize_allocated_blocks: scan completed: 0 heap blocks, 0 stack blocks
MA usage statistics:

	allocation statistics:
					      heap	     stack
					      ----	     -----
	current number of blocks	         0	         0
	maximum number of blocks	        16	        14
	current total bytes		         0	         0
	maximum total bytes		    142992	  30457944
	maximum total K-bytes		       143	     30458
	maximum total M-bytes		         1	        31


                                     CITATION
                                     --------
                Please cite the following reference when publishing
                           results obtained with NWChem:

          E. Apra, E. J. Bylaska, W. A. de Jong, N. Govind, K. Kowalski,
       T. P. Straatsma, M. Valiev, H. J. J. van Dam, Y. Alexeev, J. Anchell,
       V. Anisimov, F. W. Aquino, R. Atta-Fynn, J. Autschbach, N. P. Bauman,
     J. C. Becca, D. E. Bernholdt, K. Bhaskaran-Nair, S. Bogatko, P. Borowski,
         J. Boschen, J. Brabec, A. Bruner, E. Cauet, Y. Chen, G. N. Chuev,
      C. J. Cramer, J. Daily, M. J. O. Deegan, T. H. Dunning Jr., M. Dupuis,
   K. G. Dyall, G. I. Fann, S. A. Fischer, A. Fonari, H. Fruchtl, L. Gagliardi,
      J. Garza, N. Gawande, S. Ghosh, K. Glaesemann, A. W. Gotz, J. Hammond,
       V. Helms, E. D. Hermes, K. Hirao, S. Hirata, M. Jacquelin, L. Jensen,
   B. G. Johnson, H. Jonsson, R. A. Kendall, M. Klemm, R. Kobayashi, V. Konkov,
      S. Krishnamoorthy, M. Krishnan, Z. Lin, R. D. Lins, R. J. Littlefield,
      A. J. Logsdail, K. Lopata, W. Ma, A. V. Marenich, J. Martin del Campo,
   D. Mejia-Rodriguez, J. E. Moore, J. M. Mullin, T. Nakajima, D. R. Nascimento,
    J. A. Nichols, P. J. Nichols, J. Nieplocha, A. Otero-de-la-Roza, B. Palmer,
    A. Panyala, T. Pirojsirikul, B. Peng, R. Peverati, J. Pittner, L. Pollack,
   R. M. Richard, P. Sadayappan, G. C. Schatz, W. A. Shelton, D. W. Silverstein,
   D. M. A. Smith, T. A. Soares, D. Song, M. Swart, H. L. Taylor, G. S. Thomas,
            V. Tipparaju, D. G. Truhlar, K. Tsemekhman, T. Van Voorhis,
      A. Vazquez-Mayagoitia, P. Verma, O. Villa, A. Vishnu, K. D. Vogiatzis,
        D. Wang, J. H. Weare, M. J. Williamson, T. L. Windus, K. Wolinski,
        A. T. Wong, Q. Wu, C. Yang, Q. Yu, M. Zacharias, Z. Zhang, Y. Zhao,
                                and R. J. Harrison
                        "NWChem: Past, present, and future
                         J. Chem. Phys. 152, 184102 (2020)
                               doi:10.1063/5.0004997

                                      AUTHORS
                                      -------
  E. Apra, E. J. Bylaska, N. Govind, K. Kowalski, M. Valiev, D. Mejia-Rodriguez,
       A. Kunitsa, N. P. Bauman, A. Panyala, W. A. de Jong, T. P. Straatsma,
   H. J. J. van Dam, D. Wang, T. L. Windus, J. Hammond, J. Autschbach, A. Woods,
    K. Bhaskaran-Nair, J. Brabec, K. Lopata, S. A. Fischer, S. Krishnamoorthy,
     M. Jacquelin, W. Ma, M. Klemm, O. Villa, Y. Chen, V. Anisimov, F. Aquino,
     S. Hirata, M. T. Hackler, E. Hermes, L. Jensen, J. E. Moore, J. C. Becca,
      V. Konjkov, T. Risthaus, M. Malagoli, A. Marenich, A. Otero-de-la-Roza,
        J. Mullin, P. Nichols, R. Peverati, J. Pittner, Y. Zhao, P.-D. Fan,
        A. Fonari, M. J. Williamson, R. J. Harrison, J. R. Rehr, M. Dupuis,
     D. Silverstein, D. M. A. Smith, J. Nieplocha, V. Tipparaju, M. Krishnan,
     B. E. Van Kuiken, A. Vazquez-Mayagoitia, M. Swart, Q. Wu, T. Van Voorhis,
     A. A. Auer, M. Nooijen, L. D. Crosby, E. Brown, G. Cisneros, G. I. Fann,
   H. Fruchtl, J. Garza, K. Hirao, R. A. Kendall, J. A. Nichols, K. Tsemekhman,
    K. Wolinski, J. Anchell, D. E. Bernholdt, P. Borowski, T. Clark, D. Clerc,
   H. Dachsel, M. J. O. Deegan, K. Dyall, D. Elwood, E. Glendening, M. Gutowski,
   A. C. Hess, J. Jaffe, B. G. Johnson, J. Ju, R. Kobayashi, R. Kutteh, Z. Lin,
   R. Littlefield, X. Long, B. Meng, T. Nakajima, S. Niu, L. Pollack, M. Rosing,
   K. Glaesemann, G. Sandrone, M. Stave, H. Taylor, G. Thomas, J. H. van Lenthe,
                               A. T. Wong, Z. Zhang.

 Total times  cpu:     5079.0s     wall:     5158.7s
