export TMOUT=5400
export TMPDIR=/tmp
export PTMPDIR=/tmp/ptmp
 argument  1 = ALA_GLN_0.nw
                                         
                                         


             Northwest Computational Chemistry Package (NWChem) 7.2.0
             --------------------------------------------------------


                    Environmental Molecular Sciences Laboratory
                       Pacific Northwest National Laboratory
                                Richland, WA 99352

                              Copyright (c) 1994-2022
                       Pacific Northwest National Laboratory
                            Battelle Memorial Institute

             NWChem is an open-source computational chemistry package
                        distributed under the terms of the
                      Educational Community License (ECL) 2.0
             A copy of the license is included with this distribution
                              in the LICENSE.TXT file

                                  ACKNOWLEDGMENT
                                  --------------

            This software and its documentation were developed at the
            EMSL at Pacific Northwest National Laboratory, a multiprogram
            national laboratory, operated for the U.S. Department of Energy
            by Battelle under Contract Number DE-AC05-76RL01830. Support
            for this work was provided by the Department of Energy Office
            of Biological and Environmental Research, Office of Basic
            Energy Sciences, and the Office of Advanced Scientific Computing.


           Job information
           ---------------

    hostname        = nova18-18
    program         = /opt/rit/el9/20230413/app/linux-rhel9-x86_64_v3/gcc-11.2.1/nwchem-7.2.0-oxtctbuhfuzyfaoziquq6bki22grib3g/bin/nwchem
    date            = Thu Jun 26 11:37:59 2025

    compiled        = Wed_May_17_23:46:39_2023
    source          = /tmp/root/spack-stage/spack-stage-nwchem-7.2.0-oxtctbuhfuzyfaoziquq6bki22grib3g/spack-src
    nwchem branch   = 7.2.0
    nwchem revision = d0d141fd
    ga revision     = 5.8.0
    use scalapack   = T
    input           = ALA_GLN_0.nw
    prefix          = ALA_GLN_0.
    data base       = ./ALA_GLN_0.db
    status          = startup
    nproc           =        8
    time left       =     -1s



           Memory information
           ------------------

    heap     =   26214396 doubles =    200.0 Mbytes
    stack    =   26214401 doubles =    200.0 Mbytes
    global   =   52428800 doubles =    400.0 Mbytes (distinct from heap & stack)
    total    =  104857597 doubles =    800.0 Mbytes
    verify   = yes
    hardfail = no 


           Directory information
           ---------------------

  0 permanent = .
  0 scratch   = .




                                NWChem Input Module
                                -------------------



 Scaling coordinates for geometry "geometry" by  1.889725989
 (inverse scale =  0.529177249)

 C1  symmetry detected

          ------
          auto-z
          ------
  no constraints, skipping    0.0000000000000000     
  no constraints, skipping    0.0000000000000000     


                             Geometry "geometry" -> ""
                             -------------------------

 Output coordinates in angstroms (scale by  1.889725989 to convert to a.u.)

  No.       Tag          Charge          X              Y              Z
 ---- ---------------- ---------- -------------- -------------- --------------
    1 H                    1.0000     3.21465137     1.84995037     1.43716533
    2 C                    6.0000     2.66458666     2.30401155     0.61436143
    3 H                    1.0000     3.02608891     1.91139895    -0.33477211
    4 H                    1.0000     2.79935149     3.38354112     0.64080648
    5 C                    6.0000     1.19613338     1.97979151     0.76274381
    6 O                    8.0000     0.81306006     1.27258462     1.68755095
    7 N                    7.0000     0.37445954     2.49579499    -0.15150206
    8 H                    1.0000     0.78233745     3.02819603    -0.90144455
    9 C                    6.0000    -1.08984615     2.41487951    -0.08848181
   10 H                    1.0000    -1.41311830     2.83948218     0.86427036
   11 C                    6.0000    -1.65600188     3.28591914    -1.21720571
   12 H                    1.0000    -2.74543332     3.29295923    -1.15976379
   13 H                    1.0000    -1.29462494     4.31027465    -1.11597580
   14 H                    1.0000    -1.35513605     2.88629350    -2.18693150
   15 C                    6.0000    -1.66953413     0.98360617    -0.14953493
   16 O                    8.0000    -2.81872196     0.77679888     0.22749964
   17 N                    7.0000    -0.88815533    -0.00569776    -0.59232259
   18 H                    1.0000     0.05119053     0.23370989    -0.88993700
   19 C                    6.0000    -1.24783749    -1.43026138    -0.56093427
   20 H                    1.0000    -2.28831147    -1.51107014    -0.87831864
   21 C                    6.0000    -0.39029638    -2.19916246    -1.59189953
   22 H                    1.0000    -0.90294750    -3.13329561    -1.82439273
   23 H                    1.0000    -0.34271689    -1.62057082    -2.51660322
   24 C                    6.0000     1.04276551    -2.55660509    -1.14877159
   25 H                    1.0000     0.99097618    -3.29746878    -0.35007212
   26 H                    1.0000     1.56556925    -3.02029797    -1.98535104
   27 C                    6.0000     1.86463358    -1.36124734    -0.67612930
   28 O                    8.0000     1.87634498    -0.29782064    -1.27548019
   29 N                    7.0000     2.55167918    -1.46916820     0.43826355
   30 H                    1.0000     3.00995644    -0.63690630     0.76460093
   31 H                    1.0000     2.52172111    -2.31423516     0.97715718
   32 C                    6.0000    -1.17269480    -2.06567048     0.84652508
   33 O                    8.0000    -1.45088910    -3.24689064     1.00700519
   34 N                    7.0000    -0.75437277    -1.33930045     1.87809682
   35 H                    1.0000    -0.48040088    -0.37412982     1.74797741
   36 H                    1.0000    -0.73422943    -1.76817582     2.78719096

      Atomic Mass 
      ----------- 

      H                  1.007825
      C                 12.000000
      O                 15.994910
      N                 14.003070


 Effective nuclear repulsion energy (a.u.)    1509.6467456841

            Nuclear Dipole moment (a.u.) 
            ----------------------------
        X                 Y               Z
 ---------------- ---------------- ----------------
    -0.0000000000     0.0000000000     0.0000000000



                                Z-matrix (autoz)
                                -------- 

 Units are Angstrom for bonds and degrees for angles

      Type          Name      I     J     K     L     M      Value
      ----------- --------  ----- ----- ----- ----- ----- ----------
    1 Stretch                  1     2                       1.08892
    2 Stretch                  2     3                       1.08889
    3 Stretch                  2     4                       1.08823
    4 Stretch                  2     5                       1.51112
    5 Stretch                  5     6                       1.22562
    6 Stretch                  5     7                       1.33314
    7 Stretch                  7     8                       1.00610
    8 Stretch                  7     9                       1.46789
    9 Stretch                  9    10                       1.09203
   10 Stretch                  9    11                       1.53403
   11 Stretch                  9    15                       1.54542
   12 Stretch                 11    12                       1.09097
   13 Stretch                 11    13                       1.09094
   14 Stretch                 11    14                       1.09114
   15 Stretch                 15    16                       1.22701
   16 Stretch                 15    17                       1.33616
   17 Stretch                 17    18                       1.01403
   18 Stretch                 17    19                       1.46960
   19 Stretch                 19    20                       1.09080
   20 Stretch                 19    21                       1.54579
   21 Stretch                 19    32                       1.54607
   22 Stretch                 21    22                       1.09063
   23 Stretch                 21    23                       1.09184
   24 Stretch                 21    24                       1.54201
   25 Stretch                 24    25                       1.09063
   26 Stretch                 24    26                       1.09005
   27 Stretch                 24    27                       1.52569
   28 Stretch                 27    28                       1.22075
   29 Stretch                 27    29                       1.31360
   30 Stretch                 29    30                       1.00458
   31 Stretch                 29    31                       1.00272
   32 Stretch                 32    33                       1.22410
   33 Stretch                 32    34                       1.32919
   34 Stretch                 34    35                       1.01170
   35 Stretch                 34    36                       1.00538
   36 Bend                     1     2     3               109.91221
   37 Bend                     1     2     4               109.43456
   38 Bend                     1     2     5               109.10016
   39 Bend                     2     5     6               120.10747
   40 Bend                     2     5     7               116.65115
   41 Bend                     3     2     4               109.73972
   42 Bend                     3     2     5               109.32018
   43 Bend                     4     2     5               109.31709
   44 Bend                     5     7     8               117.78372
   45 Bend                     5     7     9               124.33715
   46 Bend                     6     5     7               123.24125
   47 Bend                     7     9    10               108.13934
   48 Bend                     7     9    11               107.77456
   49 Bend                     7     9    15               115.05836
   50 Bend                     8     7     9               117.74826
   51 Bend                     9    11    12               109.47934
   52 Bend                     9    11    13               110.03699
   53 Bend                     9    11    14               110.13252
   54 Bend                     9    15    16               119.68745
   55 Bend                     9    15    17               118.64985
   56 Bend                    10     9    11               108.17477
   57 Bend                    10     9    15               106.47091
   58 Bend                    11     9    15               111.00000
   59 Bend                    12    11    13               108.65338
   60 Bend                    12    11    14               108.93551
   61 Bend                    13    11    14               109.57382
   62 Bend                    15    17    18               117.65689
   63 Bend                    15    17    19               124.57671
   64 Bend                    16    15    17               121.65059
   65 Bend                    17    19    20               107.40069
   66 Bend                    17    19    21               109.39931
   67 Bend                    17    19    32               113.94977
   68 Bend                    18    17    19               117.50646
   69 Bend                    19    21    22               107.90576
   70 Bend                    19    21    23               108.99210
   71 Bend                    19    21    24               116.05309
   72 Bend                    19    32    33               120.32385
   73 Bend                    19    32    34               119.81590
   74 Bend                    20    19    21               107.35280
   75 Bend                    20    19    32               106.30746
   76 Bend                    21    19    32               112.07147
   77 Bend                    21    24    25               108.89176
   78 Bend                    21    24    26               108.89214
   79 Bend                    21    24    27               114.08147
   80 Bend                    22    21    23               107.08723
   81 Bend                    22    21    24               107.43112
   82 Bend                    23    21    24               109.00924
   83 Bend                    24    27    28               122.38356
   84 Bend                    24    27    29               118.69755
   85 Bend                    25    24    26               107.20849
   86 Bend                    25    24    27               109.32537
   87 Bend                    26    24    27               108.22066
   88 Bend                    27    29    30               116.49506
   89 Bend                    27    29    31               120.63347
   90 Bend                    28    27    29               118.88568
   91 Bend                    30    29    31               122.49728
   92 Bend                    32    34    35               120.44764
   93 Bend                    32    34    36               118.35627
   94 Bend                    33    32    34               119.80901
   95 Bend                    35    34    36               121.18679
   96 Torsion                  1     2     5     6          -1.88601
   97 Torsion                  1     2     5     7         178.24385
   98 Torsion                  2     5     7     8           2.79100
   99 Torsion                  2     5     7     9        -172.94681
  100 Torsion                  3     2     5     6         118.33483
  101 Torsion                  3     2     5     7         -61.53531
  102 Torsion                  4     2     5     6        -121.52302
  103 Torsion                  4     2     5     7          58.60684
  104 Torsion                  5     7     9    10          55.80776
  105 Torsion                  5     7     9    11         172.53259
  106 Torsion                  5     7     9    15         -63.04300
  107 Torsion                  6     5     7     8        -177.07469
  108 Torsion                  6     5     7     9           7.18751
  109 Torsion                  7     9    11    12        -176.68634
  110 Torsion                  7     9    11    13         -57.33797
  111 Torsion                  7     9    11    14          63.55990
  112 Torsion                  7     9    15    16         161.66098
  113 Torsion                  7     9    15    17         -17.09462
  114 Torsion                  8     7     9    10        -119.93144
  115 Torsion                  8     7     9    11          -3.20661
  116 Torsion                  8     7     9    15         121.21780
  117 Torsion                  9    15    17    18          -1.33143
  118 Torsion                  9    15    17    19         172.65045
  119 Torsion                 10     9    11    12         -59.98461
  120 Torsion                 10     9    11    13          59.36376
  121 Torsion                 10     9    11    14        -179.73837
  122 Torsion                 10     9    15    16          41.88438
  123 Torsion                 10     9    15    17        -136.87122
  124 Torsion                 11     9    15    16         -75.62533
  125 Torsion                 11     9    15    17         105.61907
  126 Torsion                 12    11     9    15          56.48150
  127 Torsion                 13    11     9    15         175.82987
  128 Torsion                 14    11     9    15         -63.27226
  129 Torsion                 15    17    19    20          42.82457
  130 Torsion                 15    17    19    21         159.03892
  131 Torsion                 15    17    19    32         -74.63889
  132 Torsion                 16    15    17    18         179.93853
  133 Torsion                 16    15    17    19          -6.07960
  134 Torsion                 17    19    21    22        -159.12572
  135 Torsion                 17    19    21    23         -43.16444
  136 Torsion                 17    19    21    24          80.31884
  137 Torsion                 17    19    32    33         179.86090
  138 Torsion                 17    19    32    34          -2.74738
  139 Torsion                 18    17    19    20        -143.18528
  140 Torsion                 18    17    19    21         -26.97093
  141 Torsion                 18    17    19    32          99.35126
  142 Torsion                 19    21    24    25          67.95145
  143 Torsion                 19    21    24    26        -175.45798
  144 Torsion                 19    21    24    27         -54.46477
  145 Torsion                 19    32    34    35          -0.29147
  146 Torsion                 19    32    34    36         178.61241
  147 Torsion                 20    19    21    22         -42.88095
  148 Torsion                 20    19    21    23          73.08032
  149 Torsion                 20    19    21    24        -163.43639
  150 Torsion                 20    19    32    33          61.76869
  151 Torsion                 20    19    32    34        -120.83960
  152 Torsion                 21    19    32    33         -55.22925
  153 Torsion                 21    19    32    34         122.16246
  154 Torsion                 21    24    27    28         -44.20909
  155 Torsion                 21    24    27    29         133.67009
  156 Torsion                 22    21    19    32          73.48782
  157 Torsion                 22    21    24    25         -52.85879
  158 Torsion                 22    21    24    26          63.73178
  159 Torsion                 22    21    24    27        -175.27502
  160 Torsion                 23    21    19    32        -170.55091
  161 Torsion                 23    21    24    25        -168.57419
  162 Torsion                 23    21    24    26         -51.98362
  163 Torsion                 23    21    24    27          69.00959
  164 Torsion                 24    21    19    32         -47.06762
  165 Torsion                 24    27    29    30        -174.36823
  166 Torsion                 24    27    29    31          -1.21799
  167 Torsion                 25    24    27    28        -166.38765
  168 Torsion                 25    24    27    29          11.49153
  169 Torsion                 26    24    27    28          77.15662
  170 Torsion                 26    24    27    29        -104.96420
  171 Torsion                 28    27    29    30           3.58632
  172 Torsion                 28    27    29    31         176.73656
  173 Torsion                 33    32    34    35         177.11379
  174 Torsion                 33    32    34    36          -3.98233


            XYZ format geometry
            -------------------
    36
 geometry
 H                     3.21465137     1.84995037     1.43716533
 C                     2.66458666     2.30401155     0.61436143
 H                     3.02608891     1.91139895    -0.33477211
 H                     2.79935149     3.38354112     0.64080648
 C                     1.19613338     1.97979151     0.76274381
 O                     0.81306006     1.27258462     1.68755095
 N                     0.37445954     2.49579499    -0.15150206
 H                     0.78233745     3.02819603    -0.90144455
 C                    -1.08984615     2.41487951    -0.08848181
 H                    -1.41311830     2.83948218     0.86427036
 C                    -1.65600188     3.28591914    -1.21720571
 H                    -2.74543332     3.29295923    -1.15976379
 H                    -1.29462494     4.31027465    -1.11597580
 H                    -1.35513605     2.88629350    -2.18693150
 C                    -1.66953413     0.98360617    -0.14953493
 O                    -2.81872196     0.77679888     0.22749964
 N                    -0.88815533    -0.00569776    -0.59232259
 H                     0.05119053     0.23370989    -0.88993700
 C                    -1.24783749    -1.43026138    -0.56093427
 H                    -2.28831147    -1.51107014    -0.87831864
 C                    -0.39029638    -2.19916246    -1.59189953
 H                    -0.90294750    -3.13329561    -1.82439273
 H                    -0.34271689    -1.62057082    -2.51660322
 C                     1.04276551    -2.55660509    -1.14877159
 H                     0.99097618    -3.29746878    -0.35007212
 H                     1.56556925    -3.02029797    -1.98535104
 C                     1.86463358    -1.36124734    -0.67612930
 O                     1.87634498    -0.29782064    -1.27548019
 N                     2.55167918    -1.46916820     0.43826355
 H                     3.00995644    -0.63690630     0.76460093
 H                     2.52172111    -2.31423516     0.97715718
 C                    -1.17269480    -2.06567048     0.84652508
 O                    -1.45088910    -3.24689064     1.00700519
 N                    -0.75437277    -1.33930045     1.87809682
 H                    -0.48040088    -0.37412982     1.74797741
 H                    -0.73422943    -1.76817582     2.78719096

 ==============================================================================
                                internuclear distances
 ------------------------------------------------------------------------------
       center one      |      center two      | atomic units |  angstroms
 ------------------------------------------------------------------------------
    2 C                |   1 H                |     2.05776  |     1.08892
    3 H                |   2 C                |     2.05771  |     1.08889
    4 H                |   2 C                |     2.05646  |     1.08823
    5 C                |   2 C                |     2.85561  |     1.51112
    6 O                |   5 C                |     2.31609  |     1.22562
    7 N                |   5 C                |     2.51926  |     1.33314
    8 H                |   7 N                |     1.90125  |     1.00610
    9 C                |   7 N                |     2.77392  |     1.46789
   10 H                |   9 C                |     2.06364  |     1.09203
   11 C                |   9 C                |     2.89890  |     1.53403
   12 H                |  11 C                |     2.06163  |     1.09097
   13 H                |  11 C                |     2.06157  |     1.09094
   14 H                |  11 C                |     2.06196  |     1.09114
   15 C                |   9 C                |     2.92041  |     1.54542
   16 O                |  15 C                |     2.31872  |     1.22701
   17 N                |  15 C                |     2.52499  |     1.33616
   18 H                |  17 N                |     1.91624  |     1.01403
   19 C                |  17 N                |     2.77715  |     1.46960
   20 H                |  19 C                |     2.06132  |     1.09080
   21 C                |  19 C                |     2.92112  |     1.54579
   22 H                |  21 C                |     2.06099  |     1.09063
   23 H                |  21 C                |     2.06327  |     1.09184
   24 C                |  21 C                |     2.91398  |     1.54201
   25 H                |  24 C                |     2.06100  |     1.09063
   26 H                |  24 C                |     2.05989  |     1.09005
   27 C                |  24 C                |     2.88314  |     1.52569
   28 O                |  27 C                |     2.30689  |     1.22075
   29 N                |  27 C                |     2.48235  |     1.31360
   30 H                |  29 N                |     1.89837  |     1.00458
   31 H                |  29 N                |     1.89486  |     1.00272
   32 C                |  19 C                |     2.92165  |     1.54607
   33 O                |  32 C                |     2.31322  |     1.22410
   34 N                |  32 C                |     2.51181  |     1.32919
   35 H                |  34 N                |     1.91184  |     1.01170
   36 H                |  34 N                |     1.89990  |     1.00538
 ------------------------------------------------------------------------------
                         number of included internuclear distances:         35
 ==============================================================================



 ==============================================================================
                                 internuclear angles
 ------------------------------------------------------------------------------
        center 1       |       center 2       |       center 3       |  degrees
 ------------------------------------------------------------------------------
    1 H                |   2 C                |   3 H                |   109.91
    1 H                |   2 C                |   4 H                |   109.43
    1 H                |   2 C                |   5 C                |   109.10
    3 H                |   2 C                |   4 H                |   109.74
    3 H                |   2 C                |   5 C                |   109.32
    4 H                |   2 C                |   5 C                |   109.32
    2 C                |   5 C                |   6 O                |   120.11
    2 C                |   5 C                |   7 N                |   116.65
    6 O                |   5 C                |   7 N                |   123.24
    5 C                |   7 N                |   8 H                |   117.78
    5 C                |   7 N                |   9 C                |   124.34
    8 H                |   7 N                |   9 C                |   117.75
    7 N                |   9 C                |  10 H                |   108.14
    7 N                |   9 C                |  11 C                |   107.77
    7 N                |   9 C                |  15 C                |   115.06
   10 H                |   9 C                |  11 C                |   108.17
   10 H                |   9 C                |  15 C                |   106.47
   11 C                |   9 C                |  15 C                |   111.00
    9 C                |  11 C                |  12 H                |   109.48
    9 C                |  11 C                |  13 H                |   110.04
    9 C                |  11 C                |  14 H                |   110.13
   12 H                |  11 C                |  13 H                |   108.65
   12 H                |  11 C                |  14 H                |   108.94
   13 H                |  11 C                |  14 H                |   109.57
    9 C                |  15 C                |  16 O                |   119.69
    9 C                |  15 C                |  17 N                |   118.65
   16 O                |  15 C                |  17 N                |   121.65
   15 C                |  17 N                |  18 H                |   117.66
   15 C                |  17 N                |  19 C                |   124.58
   18 H                |  17 N                |  19 C                |   117.51
   17 N                |  19 C                |  20 H                |   107.40
   17 N                |  19 C                |  21 C                |   109.40
   17 N                |  19 C                |  32 C                |   113.95
   20 H                |  19 C                |  21 C                |   107.35
   20 H                |  19 C                |  32 C                |   106.31
   21 C                |  19 C                |  32 C                |   112.07
   19 C                |  21 C                |  22 H                |   107.91
   19 C                |  21 C                |  23 H                |   108.99
   19 C                |  21 C                |  24 C                |   116.05
   22 H                |  21 C                |  23 H                |   107.09
   22 H                |  21 C                |  24 C                |   107.43
   23 H                |  21 C                |  24 C                |   109.01
   21 C                |  24 C                |  25 H                |   108.89
   21 C                |  24 C                |  26 H                |   108.89
   21 C                |  24 C                |  27 C                |   114.08
   25 H                |  24 C                |  26 H                |   107.21
   25 H                |  24 C                |  27 C                |   109.33
   26 H                |  24 C                |  27 C                |   108.22
   24 C                |  27 C                |  28 O                |   122.38
   24 C                |  27 C                |  29 N                |   118.70
   28 O                |  27 C                |  29 N                |   118.89
   27 C                |  29 N                |  30 H                |   116.50
   27 C                |  29 N                |  31 H                |   120.63
   30 H                |  29 N                |  31 H                |   122.50
   19 C                |  32 C                |  33 O                |   120.32
   19 C                |  32 C                |  34 N                |   119.82
   33 O                |  32 C                |  34 N                |   119.81
   32 C                |  34 N                |  35 H                |   120.45
   32 C                |  34 N                |  36 H                |   118.36
   35 H                |  34 N                |  36 H                |   121.19
 ------------------------------------------------------------------------------
                            number of included internuclear angles:         60
 ==============================================================================



  library name resolved from: environment
  library file name is: </opt/rit/el9/20230413/app/linux-rhel9-x86_64_v3/gcc-11.2.1/nwchem-7.2.0-oxtctbuhfuzyfaoziquq6bki22grib3g/share/nwchem/libraries/>
  


 Summary of "ao basis" -> "" (cartesian)
 ------------------------------------------------------------------------------
       Tag                 Description            Shells   Functions and Types
 ---------------- ------------------------------  ------  ---------------------
 *                        aug-cc-pvdz                 on all atoms 


                      Basis "ao basis" -> "ao basis" (cartesian)
                      -----
  H (Hydrogen)
  ------------
            Exponent  Coefficients 
       -------------- ---------------------------------------------------------
  1 S  1.30100000E+01  0.019685
  1 S  1.96200000E+00  0.137977
  1 S  4.44600000E-01  0.478148

  2 S  1.22000000E-01  1.000000

  3 S  2.97400000E-02  1.000000

  4 P  7.27000000E-01  1.000000

  5 P  1.41000000E-01  1.000000

  C (Carbon)
  ----------
            Exponent  Coefficients 
       -------------- ---------------------------------------------------------
  1 S  6.66500000E+03  0.000692
  1 S  1.00000000E+03  0.005329
  1 S  2.28000000E+02  0.027077
  1 S  6.47100000E+01  0.101718
  1 S  2.10600000E+01  0.274740
  1 S  7.49500000E+00  0.448564
  1 S  2.79700000E+00  0.285074
  1 S  5.21500000E-01  0.015204

  2 S  6.66500000E+03 -0.000146
  2 S  1.00000000E+03 -0.001154
  2 S  2.28000000E+02 -0.005725
  2 S  6.47100000E+01 -0.023312
  2 S  2.10600000E+01 -0.063955
  2 S  7.49500000E+00 -0.149981
  2 S  2.79700000E+00 -0.127262
  2 S  5.21500000E-01  0.544529

  3 S  1.59600000E-01  1.000000

  4 S  4.69000000E-02  1.000000

  5 P  9.43900000E+00  0.038109
  5 P  2.00200000E+00  0.209480
  5 P  5.45600000E-01  0.508557

  6 P  1.51700000E-01  1.000000

  7 P  4.04100000E-02  1.000000

  8 D  5.50000000E-01  1.000000

  9 D  1.51000000E-01  1.000000

  O (Oxygen)
  ----------
            Exponent  Coefficients 
       -------------- ---------------------------------------------------------
  1 S  1.17200000E+04  0.000710
  1 S  1.75900000E+03  0.005470
  1 S  4.00800000E+02  0.027837
  1 S  1.13700000E+02  0.104800
  1 S  3.70300000E+01  0.283062
  1 S  1.32700000E+01  0.448719
  1 S  5.02500000E+00  0.270952
  1 S  1.01300000E+00  0.015458

  2 S  1.17200000E+04 -0.000160
  2 S  1.75900000E+03 -0.001263
  2 S  4.00800000E+02 -0.006267
  2 S  1.13700000E+02 -0.025716
  2 S  3.70300000E+01 -0.070924
  2 S  1.32700000E+01 -0.165411
  2 S  5.02500000E+00 -0.116955
  2 S  1.01300000E+00  0.557368

  3 S  3.02300000E-01  1.000000

  4 S  7.89600000E-02  1.000000

  5 P  1.77000000E+01  0.043018
  5 P  3.85400000E+00  0.228913
  5 P  1.04600000E+00  0.508728

  6 P  2.75300000E-01  1.000000

  7 P  6.85600000E-02  1.000000

  8 D  1.18500000E+00  1.000000

  9 D  3.32000000E-01  1.000000

  N (Nitrogen)
  ------------
            Exponent  Coefficients 
       -------------- ---------------------------------------------------------
  1 S  9.04600000E+03  0.000700
  1 S  1.35700000E+03  0.005389
  1 S  3.09300000E+02  0.027406
  1 S  8.77300000E+01  0.103207
  1 S  2.85600000E+01  0.278723
  1 S  1.02100000E+01  0.448540
  1 S  3.83800000E+00  0.278238
  1 S  7.46600000E-01  0.015440

  2 S  9.04600000E+03 -0.000153
  2 S  1.35700000E+03 -0.001208
  2 S  3.09300000E+02 -0.005992
  2 S  8.77300000E+01 -0.024544
  2 S  2.85600000E+01 -0.067459
  2 S  1.02100000E+01 -0.158078
  2 S  3.83800000E+00 -0.121831
  2 S  7.46600000E-01  0.549003

  3 S  2.24800000E-01  1.000000

  4 S  6.12400000E-02  1.000000

  5 P  1.35500000E+01  0.039919
  5 P  2.91700000E+00  0.217169
  5 P  7.97300000E-01  0.510319

  6 P  2.18500000E-01  1.000000

  7 P  5.61100000E-02  1.000000

  8 D  8.17000000E-01  1.000000

  9 D  2.30000000E-01  1.000000



 Summary of "ao basis" -> "ao basis" (cartesian)
 ------------------------------------------------------------------------------
       Tag                 Description            Shells   Functions and Types
 ---------------- ------------------------------  ------  ---------------------
 H                        aug-cc-pvdz                5        9   3s2p
 C                        aug-cc-pvdz                9       25   4s3p2d
 O                        aug-cc-pvdz                9       25   4s3p2d
 N                        aug-cc-pvdz                9       25   4s3p2d


                                 NWChem SCF Module
                                 -----------------



  ao basis        = "ao basis"
  functions       =   612
  atoms           =    36
  closed shells   =    69
  open shells     =     0
  charge          =   0.00
  wavefunction    = RHF 
  input vectors   = atomic
  output vectors  = ./ALA_GLN_0.movecs
  use symmetry    = F
  symmetry adapt  = F


 Summary of "ao basis" -> "ao basis" (cartesian)
 ------------------------------------------------------------------------------
       Tag                 Description            Shells   Functions and Types
 ---------------- ------------------------------  ------  ---------------------
 H                        aug-cc-pvdz                5        9   3s2p
 C                        aug-cc-pvdz                9       25   4s3p2d
 O                        aug-cc-pvdz                9       25   4s3p2d
 N                        aug-cc-pvdz                9       25   4s3p2d



 Forming initial guess at       2.0s


 !! The overlap matrix has   6 vectors deemed linearly dependent with
    eigenvalues:
 3.29D-06 4.05D-06 6.27D-06 7.57D-06 9.07D-06 9.41D-06


      Superposition of Atomic Density Guess
      -------------------------------------

 Sum of atomic energies:        -901.93634758

      Non-variational initial energy
      ------------------------------

 Total energy =    -913.566083
 1-e energy   =   -4227.838059
 2-e energy   =    1804.625230
 HOMO         =      -0.309886
 LUMO         =       0.008745


 Starting SCF solution at     371.2s



 ----------------------------------------------
         Quadratically convergent ROHF

 Convergence threshold     :          1.000E-04
 Maximum no. of iterations :           30
 Final Fock-matrix accuracy:          1.000E-10
 ----------------------------------------------


              iter       energy          gnorm     gmax       time
             ----- ------------------- --------- --------- --------
                 1     -906.1990501623  2.66D+00  2.04D-01    699.2
                 2     -906.5690979018  8.74D-01  3.95D-02   1410.9
                 3     -906.6356842821  7.09D-02  3.89D-03   2503.3
                 4     -906.6364224469  4.54D-03  3.22D-04   3911.6
                 5     -906.6364263456  9.84D-06  4.60D-07   6363.9


       Final RHF  results 
       ------------------ 

         Total SCF energy =   -906.636426345575
      One-electron energy =  -4241.042939615959
      Two-electron energy =   1824.759767586236
 Nuclear repulsion energy =   1509.646745684148

        Time for solution =   6001.2s


             Final eigenvalues
             -----------------

              1      
    1  -20.5432
    2  -20.5400
    3  -20.5206
    4  -20.5097
    5  -15.6130
    6  -15.6097
    7  -15.5855
    8  -15.5723
    9  -11.3720
   10  -11.3716
   11  -11.3535
   12  -11.3448
   13  -11.3040
   14  -11.2926
   15  -11.2600
   16  -11.2545
   17  -11.2527
   18  -11.2509
   19   -1.4139
   20   -1.4049
   21   -1.3816
   22   -1.3718
   23   -1.2639
   24   -1.2425
   25   -1.2365
   26   -1.1960
   27   -1.0879
   28   -1.0672
   29   -1.0045
   30   -0.9904
   31   -0.9015
   32   -0.8797
   33   -0.8250
   34   -0.8130
   35   -0.7991
   36   -0.7756
   37   -0.7487
   38   -0.7363
   39   -0.7163
   40   -0.6998
   41   -0.6903
   42   -0.6851
   43   -0.6617
   44   -0.6500
   45   -0.6273
   46   -0.6213
   47   -0.6130
   48   -0.6031
   49   -0.5928
   50   -0.5911
   51   -0.5891
   52   -0.5840
   53   -0.5669
   54   -0.5545
   55   -0.5489
   56   -0.5450
   57   -0.5431
   58   -0.5204
   59   -0.5134
   60   -0.5069
   61   -0.4884
   62   -0.4479
   63   -0.4420
   64   -0.4392
   65   -0.4313
   66   -0.4270
   67   -0.4004
   68   -0.3933
   69   -0.3772
   70    0.0237
   71    0.0313
   72    0.0362
   73    0.0437
   74    0.0480
   75    0.0503
   76    0.0556
   77    0.0623
   78    0.0654
   79    0.0686

                       ROHF Final Molecular Orbital Analysis
                       -------------------------------------

 Vector   19  Occ=2.000000D+00  E=-1.413888D+00
              MO Center=  1.9D+00, -6.4D-01, -8.4D-01, r^2= 1.3D+00
   Bfn.  Coefficient  Atom+Function         Bfn.  Coefficient  Atom+Function  
  ----- ------------  ---------------      ----- ------------  ---------------
   454      0.375165  28 O  s               453      0.344241  28 O  s         
   428      0.241653  27 C  s         

 Vector   20  Occ=2.000000D+00  E=-1.404944D+00
              MO Center=  8.2D-01,  1.5D+00,  1.1D+00, r^2= 1.6D+00
   Bfn.  Coefficient  Atom+Function         Bfn.  Coefficient  Atom+Function  
  ----- ------------  ---------------      ----- ------------  ---------------
    80      0.346184   6 O  s                79      0.338620   6 O  s         
    54      0.237448   5 C  s                12      0.155532   2 C  s         

 Vector   21  Occ=2.000000D+00  E=-1.381623D+00
              MO Center= -2.0D+00,  2.9D-01,  2.0D-01, r^2= 2.9D+00
   Bfn.  Coefficient  Atom+Function         Bfn.  Coefficient  Atom+Function  
  ----- ------------  ---------------      ----- ------------  ---------------
   250      0.337828  16 O  s               249      0.315080  16 O  s         
   224      0.224973  15 C  s         

 Vector   22  Occ=2.000000D+00  E=-1.371819D+00
              MO Center= -1.5D+00, -2.2D+00,  9.0D-01, r^2= 2.6D+00
   Bfn.  Coefficient  Atom+Function         Bfn.  Coefficient  Atom+Function  
  ----- ------------  ---------------      ----- ------------  ---------------
   547      0.360879  33 O  s               546      0.330576  33 O  s         
   521      0.227531  32 C  s               250     -0.157262  16 O  s         

 Vector   23  Occ=2.000000D+00  E=-1.263872D+00
              MO Center=  2.0D-01,  2.1D+00,  1.2D-01, r^2= 2.3D+00
   Bfn.  Coefficient  Atom+Function         Bfn.  Coefficient  Atom+Function  
  ----- ------------  ---------------      ----- ------------  ---------------
   105      0.390956   7 N  s               104      0.331235   7 N  s         
    80     -0.215821   6 O  s                79     -0.176463   6 O  s         
   139     -0.157491   9 C  s                59     -0.153758   5 C  pz        
   128      0.152418   8 H  s         

 Vector   24  Occ=2.000000D+00  E=-1.242502D+00
              MO Center=  2.2D+00, -1.2D+00,  5.4D-02, r^2= 2.0D+00
   Bfn.  Coefficient  Atom+Function         Bfn.  Coefficient  Atom+Function  
  ----- ------------  ---------------      ----- ------------  ---------------
   479      0.370897  29 N  s               478      0.361239  29 N  s         
   454     -0.226337  28 O  s               453     -0.181937  28 O  s         
   386     -0.179791  24 C  s               433      0.171712  27 C  pz        
   511      0.166229  31 H  s               502      0.152435  30 H  s         

 Vector   25  Occ=2.000000D+00  E=-1.236545D+00
              MO Center= -8.9D-01, -1.4D-01, -2.3D-01, r^2= 3.4D+00
   Bfn.  Coefficient  Atom+Function         Bfn.  Coefficient  Atom+Function  
  ----- ------------  ---------------      ----- ------------  ---------------
   275      0.337277  17 N  s               274      0.307292  17 N  s         
   309     -0.209479  19 C  s               250     -0.194342  16 O  s         
   249     -0.154393  16 O  s               522      0.152191  32 C  s         

 Vector   26  Occ=2.000000D+00  E=-1.196025D+00
              MO Center= -8.8D-01, -1.4D+00,  1.4D+00, r^2= 2.0D+00
   Bfn.  Coefficient  Atom+Function         Bfn.  Coefficient  Atom+Function  
  ----- ------------  ---------------      ----- ------------  ---------------
   572      0.382011  34 N  s               571      0.362138  34 N  s         
   309     -0.214554  19 C  s               547     -0.191707  33 O  s         
   525      0.163715  32 C  py              546     -0.161248  33 O  s         
   275     -0.160439  17 N  s               595      0.157432  35 H  s         
   604      0.157871  36 H  s         

 Vector   27  Occ=2.000000D+00  E=-1.087937D+00
              MO Center= -8.2D-02, -1.3D+00, -9.3D-01, r^2= 5.4D+00
   Bfn.  Coefficient  Atom+Function         Bfn.  Coefficient  Atom+Function  
  ----- ------------  ---------------      ----- ------------  ---------------
   342      0.233001  21 C  s               385      0.213686  24 C  s         
   386      0.169530  24 C  s         

 Vector   28  Occ=2.000000D+00  E=-1.067201D+00
              MO Center= -1.6D-01,  1.8D+00, -3.8D-01, r^2= 7.1D+00
   Bfn.  Coefficient  Atom+Function         Bfn.  Coefficient  Atom+Function  
  ----- ------------  ---------------      ----- ------------  ---------------
   138      0.219823   9 C  s               172      0.200050  11 C  s         
    12     -0.185367   2 C  s         

 Vector   29  Occ=2.000000D+00  E=-1.004543D+00
              MO Center=  1.5D+00,  2.4D+00,  2.7D-01, r^2= 4.9D+00
   Bfn.  Coefficient  Atom+Function         Bfn.  Coefficient  Atom+Function  
  ----- ------------  ---------------      ----- ------------  ---------------
    11      0.319631   2 C  s                57      0.173626   5 C  px        
   172      0.159165  11 C  s                55      0.157839   5 C  s         
   106     -0.152398   7 N  s         

 Vector   30  Occ=2.000000D+00  E=-9.903704D-01
              MO Center= -2.1D-01, -1.3D+00, -6.3D-01, r^2= 5.6D+00
   Bfn.  Coefficient  Atom+Function         Bfn.  Coefficient  Atom+Function  
  ----- ------------  ---------------      ----- ------------  ---------------
   308      0.241360  19 C  s               385     -0.218760  24 C  s         
   386     -0.196693  24 C  s               523     -0.155783  32 C  s         

 Vector   31  Occ=2.000000D+00  E=-9.014993D-01
              MO Center= -6.9D-01,  1.3D+00, -7.3D-01, r^2= 8.3D+00
   Bfn.  Coefficient  Atom+Function         Bfn.  Coefficient  Atom+Function  
  ----- ------------  ---------------      ----- ------------  ---------------
   386     -0.304095  24 C  s               139      0.282154   9 C  s         
   145     -0.238573   9 C  py              172     -0.216659  11 C  s         
   173     -0.187460  11 C  s               138      0.170152   9 C  s         
   342      0.151649  21 C  s         

 Vector   32  Occ=2.000000D+00  E=-8.797034D-01
              MO Center= -2.4D-01, -7.6D-01, -4.1D-01, r^2= 8.1D+00
   Bfn.  Coefficient  Atom+Function         Bfn.  Coefficient  Atom+Function  
  ----- ------------  ---------------      ----- ------------  ---------------
   386      0.338347  24 C  s               309      0.303695  19 C  s         
   342     -0.189047  21 C  s               316      0.185482  19 C  pz        
   343     -0.175709  21 C  s         

 Vector   33  Occ=2.000000D+00  E=-8.249679D-01
              MO Center=  2.5D-01,  1.9D+00,  1.0D-01, r^2= 4.7D+00
   Bfn.  Coefficient  Atom+Function         Bfn.  Coefficient  Atom+Function  
  ----- ------------  ---------------      ----- ------------  ---------------
   109      0.244393   7 N  pz              128     -0.214198   8 H  s         
    54      0.207178   5 C  s               139      0.196241   9 C  s         
   105     -0.171645   7 N  s                80     -0.163201   6 O  s         
   108     -0.162191   7 N  py              309      0.160861  19 C  s         
    17     -0.156577   2 C  px               72     -0.152766   5 C  dxx       

 Vector   34  Occ=2.000000D+00  E=-8.129919D-01
              MO Center=  1.4D+00, -1.4D+00,  9.3D-02, r^2= 5.2D+00
   Bfn.  Coefficient  Atom+Function         Bfn.  Coefficient  Atom+Function  
  ----- ------------  ---------------      ----- ------------  ---------------
   483      0.277657  29 N  pz              511      0.205233  31 H  s         
   428     -0.192466  27 C  s               454      0.162094  28 O  s         
   309      0.154247  19 C  s         

 Vector   35  Occ=2.000000D+00  E=-7.991468D-01
              MO Center= -4.2D-01,  3.4D-01, -3.2D-01, r^2= 5.5D+00
   Bfn.  Coefficient  Atom+Function         Bfn.  Coefficient  Atom+Function  
  ----- ------------  ---------------      ----- ------------  ---------------
   277     -0.224873  17 N  px              225      0.206215  15 C  s         
   299     -0.199165  18 H  s               298     -0.195544  18 H  s         
   231     -0.179038  15 C  py              309      0.172002  19 C  s         
   278      0.169876  17 N  py              224      0.165144  15 C  s         
   105      0.159830   7 N  s               128      0.156854   8 H  s         

 Vector   36  Occ=2.000000D+00  E=-7.755940D-01
              MO Center= -5.1D-01, -1.2D+00,  5.6D-01, r^2= 4.9D+00
   Bfn.  Coefficient  Atom+Function         Bfn.  Coefficient  Atom+Function  
  ----- ------------  ---------------      ----- ------------  ---------------
   529      0.268321  32 C  pz              225     -0.225072  15 C  s         
   576     -0.217257  34 N  pz              316      0.188407  19 C  pz        
   277      0.185146  17 N  px              315     -0.181523  19 C  py        
   275      0.174942  17 N  s               298      0.174175  18 H  s         
   521      0.171041  32 C  s               575     -0.165565  34 N  py        

 Vector   37  Occ=2.000000D+00  E=-7.487109D-01
              MO Center=  1.8D+00, -1.2D+00,  1.1D-01, r^2= 5.0D+00
   Bfn.  Coefficient  Atom+Function         Bfn.  Coefficient  Atom+Function  
  ----- ------------  ---------------      ----- ------------  ---------------
   482      0.352777  29 N  py              502      0.291049  30 H  s         
   511     -0.255513  31 H  s               503      0.181714  30 H  s         
   512     -0.152714  31 H  s         

 Vector   38  Occ=2.000000D+00  E=-7.363205D-01
              MO Center= -6.1D-01, -4.5D-01,  7.3D-01, r^2= 5.2D+00
   Bfn.  Coefficient  Atom+Function         Bfn.  Coefficient  Atom+Function  
  ----- ------------  ---------------      ----- ------------  ---------------
   575      0.272931  34 N  py              595      0.245978  35 H  s         
   225     -0.229107  15 C  s               522     -0.219461  32 C  s         
   315     -0.213815  19 C  py              526     -0.190749  32 C  pz        
   277      0.163951  17 N  px              316      0.159978  19 C  pz        

 Vector   39  Occ=2.000000D+00  E=-7.162837D-01
              MO Center= -2.6D-02,  1.0D+00,  2.1D-01, r^2= 7.7D+00
   Bfn.  Coefficient  Atom+Function         Bfn.  Coefficient  Atom+Function  
  ----- ------------  ---------------      ----- ------------  ---------------
   225      0.303283  15 C  s               145      0.276196   9 C  py        
   144      0.270238   9 C  px              226     -0.195261  15 C  s         
   139     -0.186779   9 C  s               228     -0.183981  15 C  py        
   128     -0.174899   8 H  s               109      0.162795   7 N  pz        
   107     -0.160716   7 N  px              141      0.159490   9 C  px        

 Vector   40  Occ=2.000000D+00  E=-6.997908D-01
              MO Center=  2.4D-01, -5.4D-01, -1.7D-01, r^2= 7.8D+00
   Bfn.  Coefficient  Atom+Function         Bfn.  Coefficient  Atom+Function  
  ----- ------------  ---------------      ----- ------------  ---------------
   457      0.200378  28 O  py              433      0.155921  27 C  pz        
   604      0.155871  36 H  s               576      0.154342  34 N  pz        

 Vector   41  Occ=2.000000D+00  E=-6.903019D-01
              MO Center=  7.6D-01,  3.5D-01, -2.6D-02, r^2= 8.3D+00
   Bfn.  Coefficient  Atom+Function         Bfn.  Coefficient  Atom+Function  
  ----- ------------  ---------------      ----- ------------  ---------------
   457     -0.181124  28 O  py               17      0.169274   2 C  px        
   433     -0.160578  27 C  pz        

 Vector   42  Occ=2.000000D+00  E=-6.851451D-01
              MO Center=  6.3D-01,  9.6D-01,  6.0D-01, r^2= 6.4D+00
   Bfn.  Coefficient  Atom+Function         Bfn.  Coefficient  Atom+Function  
  ----- ------------  ---------------      ----- ------------  ---------------
    80      0.229993   6 O  s                82     -0.192264   6 O  px        
    84      0.171718   6 O  pz              106     -0.160878   7 N  s         
    59     -0.159113   5 C  pz        

 Vector   43  Occ=2.000000D+00  E=-6.617461D-01
              MO Center= -3.5D-01, -1.9D-01,  3.3D-02, r^2= 9.2D+00
   Bfn.  Coefficient  Atom+Function         Bfn.  Coefficient  Atom+Function  
  ----- ------------  ---------------      ----- ------------  ---------------
   576      0.166971  34 N  pz              604      0.150313  36 H  s         

 Vector   44  Occ=2.000000D+00  E=-6.499767D-01
              MO Center= -3.7D-01, -9.6D-01, -4.0D-01, r^2= 7.6D+00
   Bfn.  Coefficient  Atom+Function         Bfn.  Coefficient  Atom+Function  
  ----- ------------  ---------------      ----- ------------  ---------------
   252      0.199425  16 O  px              386      0.183097  24 C  s         
   250     -0.160271  16 O  s               311      0.159687  19 C  px        
   418     -0.159954  26 H  s               390      0.152962  24 C  pz        

 Vector   45  Occ=2.000000D+00  E=-6.273178D-01
              MO Center=  1.2D+00,  1.5D+00,  2.1D-01, r^2= 7.5D+00
   Bfn.  Coefficient  Atom+Function         Bfn.  Coefficient  Atom+Function  
  ----- ------------  ---------------      ----- ------------  ---------------
    15      0.223117   2 C  py              139     -0.215698   9 C  s         
    44      0.202293   4 H  s                35     -0.181810   3 H  s         
    83      0.168625   6 O  py               16      0.155605   2 C  pz        

 Vector   46  Occ=2.000000D+00  E=-6.212730D-01
              MO Center= -6.0D-01, -7.3D-01, -5.8D-02, r^2= 8.5D+00
   Bfn.  Coefficient  Atom+Function         Bfn.  Coefficient  Atom+Function  
  ----- ------------  ---------------      ----- ------------  ---------------
   252      0.237851  16 O  px              250     -0.162653  16 O  s         
   343      0.155741  21 C  s               550      0.155174  33 O  py        

 Vector   47  Occ=2.000000D+00  E=-6.130279D-01
              MO Center=  1.2D+00, -5.4D-01, -5.7D-01, r^2= 5.9D+00
   Bfn.  Coefficient  Atom+Function         Bfn.  Coefficient  Atom+Function  
  ----- ------------  ---------------      ----- ------------  ---------------
   457      0.261583  28 O  py              432     -0.226848  27 C  py        
   454      0.175272  28 O  s               458     -0.172060  28 O  pz        
   482      0.159434  29 N  py              225      0.155657  15 C  s         
   139     -0.151657   9 C  s         

 Vector   48  Occ=2.000000D+00  E=-6.031005D-01
              MO Center= -5.4D-01,  4.4D-01, -1.1D-01, r^2= 9.6D+00
   Bfn.  Coefficient  Atom+Function         Bfn.  Coefficient  Atom+Function  
  ----- ------------  ---------------      ----- ------------  ---------------
   176      0.174034  11 C  py              299      0.167115  18 H  s         

 Vector   49  Occ=2.000000D+00  E=-5.928073D-01
              MO Center= -1.7D-01, -8.0D-01, -1.0D-01, r^2= 8.0D+00
   Bfn.  Coefficient  Atom+Function         Bfn.  Coefficient  Atom+Function  
  ----- ------------  ---------------      ----- ------------  ---------------
   550     -0.205498  33 O  py              458     -0.194328  28 O  pz        
   227      0.190781  15 C  px              252     -0.175387  16 O  px        
   432     -0.168698  27 C  py        

 Vector   50  Occ=2.000000D+00  E=-5.910576D-01
              MO Center=  1.9D-01,  1.6D+00,  3.4D-01, r^2= 7.5D+00
   Bfn.  Coefficient  Atom+Function         Bfn.  Coefficient  Atom+Function  
  ----- ------------  ---------------      ----- ------------  ---------------
    84      0.245056   6 O  pz                2      0.241839   1 H  s         
    57      0.183395   5 C  px               17     -0.178921   2 C  px        
    13     -0.163995   2 C  s                83     -0.157609   6 O  py        

 Vector   51  Occ=2.000000D+00  E=-5.890587D-01
              MO Center= -6.7D-02, -8.3D-01, -4.4D-02, r^2= 7.8D+00
   Bfn.  Coefficient  Atom+Function         Bfn.  Coefficient  Atom+Function  
  ----- ------------  ---------------      ----- ------------  ---------------
   430      0.166319  27 C  s               309     -0.154192  19 C  s         
   549      0.150880  33 O  px        

 Vector   52  Occ=2.000000D+00  E=-5.840430D-01
              MO Center=  8.3D-01,  2.3D+00,  8.8D-02, r^2= 9.0D+00
   Bfn.  Coefficient  Atom+Function         Bfn.  Coefficient  Atom+Function  
  ----- ------------  ---------------      ----- ------------  ---------------
     1      0.295249   1 H  s                 2      0.296027   1 H  s         
    16      0.267894   2 C  pz              175     -0.243179  11 C  px        
   196      0.219896  12 H  s               197      0.177750  12 H  s         

 Vector   53  Occ=2.000000D+00  E=-5.668774D-01
              MO Center= -1.1D+00, -4.5D-01,  1.9D-01, r^2= 8.4D+00
   Bfn.  Coefficient  Atom+Function         Bfn.  Coefficient  Atom+Function  
  ----- ------------  ---------------      ----- ------------  ---------------
   550      0.241328  33 O  py              316     -0.204538  19 C  pz        
   525     -0.201897  32 C  py              254      0.198122  16 O  pz        
   343     -0.183616  21 C  s               227      0.158576  15 C  px        
   386      0.153954  24 C  s         

 Vector   54  Occ=2.000000D+00  E=-5.544689D-01
              MO Center= -2.7D-01,  6.0D-01, -6.5D-01, r^2= 1.2D+01
   Bfn.  Coefficient  Atom+Function         Bfn.  Coefficient  Atom+Function  
  ----- ------------  ---------------      ----- ------------  ---------------
   206      0.213659  13 H  s               176      0.203242  11 C  py        
   343     -0.201831  21 C  s               215     -0.197831  14 H  s         
   205      0.193592  13 H  s               214     -0.192159  14 H  s         
   366     -0.158314  22 H  s               376      0.150331  23 H  s         

 Vector   55  Occ=2.000000D+00  E=-5.489238D-01
              MO Center= -3.6D-01,  2.3D+00, -3.5D-01, r^2= 8.2D+00
   Bfn.  Coefficient  Atom+Function         Bfn.  Coefficient  Atom+Function  
  ----- ------------  ---------------      ----- ------------  ---------------
   197     -0.299776  12 H  s               175      0.283706  11 C  px        
   196     -0.270322  12 H  s               107      0.176540   7 N  px        
     1      0.172466   1 H  s                12     -0.172733   2 C  s         
     2      0.161459   1 H  s         

 Vector   56  Occ=2.000000D+00  E=-5.450349D-01
              MO Center=  7.4D-02,  2.4D-01, -4.0D-02, r^2= 1.1D+01
   Bfn.  Coefficient  Atom+Function         Bfn.  Coefficient  Atom+Function  
  ----- ------------  ---------------      ----- ------------  ---------------
   177      0.175197  11 C  pz              524     -0.158369  32 C  px        
   574     -0.155896  34 N  px              549     -0.154212  33 O  px        
    45      0.150289   4 H  s         

 Vector   57  Occ=2.000000D+00  E=-5.430856D-01
              MO Center= -7.2D-02, -1.7D-01, -1.5D-01, r^2= 1.0D+01
   Bfn.  Coefficient  Atom+Function         Bfn.  Coefficient  Atom+Function  
  ----- ------------  ---------------      ----- ------------  ---------------
   366      0.172804  22 H  s               549      0.162028  33 O  px        

 Vector   58  Occ=2.000000D+00  E=-5.203560D-01
              MO Center= -6.8D-01,  2.0D-01, -5.5D-01, r^2= 8.8D+00
   Bfn.  Coefficient  Atom+Function         Bfn.  Coefficient  Atom+Function  
  ----- ------------  ---------------      ----- ------------  ---------------
   346      0.221787  21 C  py              367     -0.220117  22 H  s         
   366     -0.206078  22 H  s                13     -0.188493   2 C  s         
   253     -0.185604  16 O  py               63      0.160747   5 C  px        
   228     -0.157806  15 C  py              312     -0.158255  19 C  py        
   206     -0.154428  13 H  s               176     -0.150369  11 C  py        

 Vector   59  Occ=2.000000D+00  E=-5.134475D-01
              MO Center= -5.4D-02, -1.4D+00, -1.0D+00, r^2= 6.8D+00
   Bfn.  Coefficient  Atom+Function         Bfn.  Coefficient  Atom+Function  
  ----- ------------  ---------------      ----- ------------  ---------------
   375      0.270919  23 H  s               376      0.246971  23 H  s         
   347     -0.243807  21 C  pz              409      0.218750  25 H  s         
   391      0.216936  24 C  px              343      0.208829  21 C  s         
   390      0.206548  24 C  pz              309     -0.185342  19 C  s         
   410      0.159916  25 H  s               346      0.154781  21 C  py        

 Vector   60  Occ=2.000000D+00  E=-5.068547D-01
              MO Center= -6.1D-01,  3.5D-01, -2.8D-01, r^2= 8.9D+00
   Bfn.  Coefficient  Atom+Function         Bfn.  Coefficient  Atom+Function  
  ----- ------------  ---------------      ----- ------------  ---------------
   309      0.286442  19 C  s               143     -0.219332   9 C  pz        
   343     -0.217015  21 C  s               523     -0.201569  32 C  s         
   177      0.177924  11 C  pz              419      0.177051  26 H  s         
   162     -0.164971  10 H  s               347      0.162543  21 C  pz        
   276      0.152917  17 N  s               254      0.151258  16 O  pz        

 Vector   61  Occ=2.000000D+00  E=-4.884072D-01
              MO Center= -5.1D-01, -1.5D+00, -5.3D-01, r^2= 5.6D+00
   Bfn.  Coefficient  Atom+Function         Bfn.  Coefficient  Atom+Function  
  ----- ------------  ---------------      ----- ------------  ---------------
   311      0.282127  19 C  px              345     -0.246089  21 C  px        
   332     -0.234432  20 H  s               343      0.224341  21 C  s         
   388      0.224613  24 C  px              348     -0.176497  21 C  px        
   333     -0.165241  20 H  s               419      0.165919  26 H  s         
   549     -0.152924  33 O  px              418      0.150963  26 H  s         

 Vector   62  Occ=2.000000D+00  E=-4.478737D-01
              MO Center=  3.1D-01,  4.1D-01, -1.4D-01, r^2= 7.2D+00
   Bfn.  Coefficient  Atom+Function         Bfn.  Coefficient  Atom+Function  
  ----- ------------  ---------------      ----- ------------  ---------------
   456      0.303784  28 O  px              253      0.273763  16 O  py        
   459      0.250305  28 O  px              523     -0.220734  32 C  s         
   256      0.214255  16 O  py              480     -0.181686  29 N  s         
    83     -0.158289   6 O  py              108      0.156205   7 N  py        
   109      0.154898   7 N  pz        

 Vector   63  Occ=2.000000D+00  E=-4.419993D-01
              MO Center=  5.6D-01,  1.1D+00,  9.8D-01, r^2= 5.2D+00
   Bfn.  Coefficient  Atom+Function         Bfn.  Coefficient  Atom+Function  
  ----- ------------  ---------------      ----- ------------  ---------------
    82      0.442452   6 O  px               85      0.354188   6 O  px        
    14      0.178063   2 C  px               17      0.170238   2 C  px        
    13      0.159705   2 C  s               106     -0.160212   7 N  s         
    84      0.158198   6 O  pz              225     -0.154461  15 C  s         

 Vector   64  Occ=2.000000D+00  E=-4.391593D-01
              MO Center=  1.1D+00, -1.9D-01, -5.8D-01, r^2= 5.7D+00
   Bfn.  Coefficient  Atom+Function         Bfn.  Coefficient  Atom+Function  
  ----- ------------  ---------------      ----- ------------  ---------------
   458      0.332559  28 O  pz              461      0.271225  28 O  pz        
   457      0.208786  28 O  py              456      0.197135  28 O  px        
   429      0.185851  27 C  s               386     -0.180054  24 C  s         
   389      0.165604  24 C  py              459      0.162040  28 O  px        
   434     -0.160017  27 C  px              460      0.158035  28 O  py        

 Vector   65  Occ=2.000000D+00  E=-4.313229D-01
              MO Center=  1.0D+00, -6.0D-01,  1.5D-01, r^2= 7.1D+00
   Bfn.  Coefficient  Atom+Function         Bfn.  Coefficient  Atom+Function  
  ----- ------------  ---------------      ----- ------------  ---------------
   481      0.272409  29 N  px              484      0.258183  29 N  px        
   456     -0.244609  28 O  px              386      0.213854  24 C  s         
    82      0.211064   6 O  px              551      0.211325  33 O  pz        
   459     -0.206329  28 O  px              430      0.184500  27 C  s         
   139     -0.173659   9 C  s               483     -0.170682  29 N  pz        

 Vector   66  Occ=2.000000D+00  E=-4.270300D-01
              MO Center= -6.2D-01, -9.7D-01,  3.0D-01, r^2= 7.9D+00
   Bfn.  Coefficient  Atom+Function         Bfn.  Coefficient  Atom+Function  
  ----- ------------  ---------------      ----- ------------  ---------------
   551      0.343075  33 O  pz              554      0.269002  33 O  pz        
   333     -0.224678  20 H  s               254     -0.223206  16 O  pz        
   253     -0.175889  16 O  py              257     -0.171706  16 O  pz        
   481     -0.165223  29 N  px              480     -0.160840  29 N  s         

 Vector   67  Occ=2.000000D+00  E=-4.004306D-01
              MO Center= -1.1D+00,  1.2D+00,  2.3D-01, r^2= 5.3D+00
   Bfn.  Coefficient  Atom+Function         Bfn.  Coefficient  Atom+Function  
  ----- ------------  ---------------      ----- ------------  ---------------
   253      0.367262  16 O  py              256      0.291860  16 O  py        
   108     -0.268407   7 N  py              111     -0.251980   7 N  py        
   106     -0.201585   7 N  s               145      0.198881   9 C  py        
   142      0.187846   9 C  py              163      0.171474  10 H  s         
   109     -0.166157   7 N  pz               83      0.163395   6 O  py        

 Vector   68  Occ=2.000000D+00  E=-3.933115D-01
              MO Center= -9.8D-01, -2.1D+00,  1.4D+00, r^2= 2.6D+00
   Bfn.  Coefficient  Atom+Function         Bfn.  Coefficient  Atom+Function  
  ----- ------------  ---------------      ----- ------------  ---------------
   574     -0.394212  34 N  px              549      0.387462  33 O  px        
   577     -0.340352  34 N  px              552      0.312771  33 O  px        
   276      0.247895  17 N  s               333     -0.192288  20 H  s         
   386     -0.186095  24 C  s               573      0.154762  34 N  s         

 Vector   69  Occ=2.000000D+00  E=-3.772043D-01
              MO Center= -1.4D+00, -7.8D-01,  8.8D-02, r^2= 4.6D+00
   Bfn.  Coefficient  Atom+Function         Bfn.  Coefficient  Atom+Function  
  ----- ------------  ---------------      ----- ------------  ---------------
   279      0.351210  17 N  pz              282      0.337188  17 N  pz        
   551     -0.294637  33 O  pz              254     -0.252823  16 O  pz        
   554     -0.231262  33 O  pz              257     -0.198435  16 O  pz        
   529      0.162435  32 C  pz              313     -0.155588  19 C  pz        

 Vector   70  Occ=0.000000D+00  E= 2.370098D-02
              MO Center=  2.5D+00,  3.2D+00, -4.0D-01, r^2= 2.6D+01
   Bfn.  Coefficient  Atom+Function         Bfn.  Coefficient  Atom+Function  
  ----- ------------  ---------------      ----- ------------  ---------------
    63      3.534009   5 C  px              234      2.811502  15 C  py        
   300      2.542176  18 H  s               226      2.280161  15 C  s         
   147      2.214174   9 C  px               46     -2.050004   4 H  s         
   480     -1.891307  29 N  s                12      1.697544   2 C  s         
   387      1.705275  24 C  s               207     -1.661141  13 H  s         

 Vector   71  Occ=0.000000D+00  E= 3.127513D-02
              MO Center=  2.5D+00, -6.1D-02,  2.9D-01, r^2= 3.6D+01
   Bfn.  Coefficient  Atom+Function         Bfn.  Coefficient  Atom+Function  
  ----- ------------  ---------------      ----- ------------  ---------------
   106      2.866868   7 N  s               430      2.418259  27 C  s         
   234     -2.249438  15 C  py               63      2.102963   5 C  px        
   318     -1.890015  19 C  py              207      1.768994  13 H  s         
   420     -1.772416  26 H  s                13     -1.576726   2 C  s         
   513     -1.554969  31 H  s                46      1.442103   4 H  s         

 Vector   72  Occ=0.000000D+00  E= 3.620840D-02
              MO Center=  1.0D+00, -1.7D-01, -2.3D+00, r^2= 3.5D+01
   Bfn.  Coefficient  Atom+Function         Bfn.  Coefficient  Atom+Function  
  ----- ------------  ---------------      ----- ------------  ---------------
   300      3.787726  18 H  s               147     -3.078534   9 C  px        
   234     -3.058732  15 C  py               63     -2.889898   5 C  px        
   377     -2.582269  23 H  s               216     -2.332861  14 H  s         
   420     -2.264142  26 H  s                46      1.906119   4 H  s         
     3      1.824482   1 H  s               318     -1.672594  19 C  py        

 Vector   73  Occ=0.000000D+00  E= 4.372452D-02
              MO Center=  7.4D-01,  2.2D+00,  2.1D-01, r^2= 4.0D+01
   Bfn.  Coefficient  Atom+Function         Bfn.  Coefficient  Atom+Function  
  ----- ------------  ---------------      ----- ------------  ---------------
    63      4.409247   5 C  px               37     -2.803798   3 H  s         
   106      2.632770   7 N  s               234     -2.185166  15 C  py        
   207      2.130373  13 H  s               148     -1.865176   9 C  py        
   276     -1.846440  17 N  s               438      1.795042  27 C  py        
    46     -1.757156   4 H  s               532     -1.700674  32 C  pz        

 Vector   74  Occ=0.000000D+00  E= 4.799001D-02
              MO Center=  1.0D+00,  1.7D-01, -1.6D+00, r^2= 3.9D+01
   Bfn.  Coefficient  Atom+Function         Bfn.  Coefficient  Atom+Function  
  ----- ------------  ---------------      ----- ------------  ---------------
   420     -3.505639  26 H  s               480      3.398312  29 N  s         
   300     -3.361576  18 H  s               216      3.248657  14 H  s         
   523      2.974199  32 C  s               430     -2.295602  27 C  s         
    46     -2.241309   4 H  s               439     -2.099548  27 C  pz        
   164     -2.072881  10 H  s               377      1.813408  23 H  s         

 Vector   75  Occ=0.000000D+00  E= 5.026246D-02
              MO Center=  4.3D-01,  3.2D-01, -7.7D-01, r^2= 4.0D+01
   Bfn.  Coefficient  Atom+Function         Bfn.  Coefficient  Atom+Function  
  ----- ------------  ---------------      ----- ------------  ---------------
     3      3.754324   1 H  s               300     -3.334480  18 H  s         
   234      2.850430  15 C  py              377      2.860495  23 H  s         
   438      2.333119  27 C  py              147      2.205835   9 C  px        
   394      2.081470  24 C  px              207     -2.034628  13 H  s         
   130     -1.999214   8 H  s               523      1.992971  32 C  s         

 Vector   76  Occ=0.000000D+00  E= 5.555726D-02
              MO Center=  1.5D-01,  6.9D-01,  9.9D-01, r^2= 4.2D+01
   Bfn.  Coefficient  Atom+Function         Bfn.  Coefficient  Atom+Function  
  ----- ------------  ---------------      ----- ------------  ---------------
   234      4.529288  15 C  py              573      2.943358  34 N  s         
   130      2.889136   8 H  s               198     -2.844866  12 H  s         
   300     -2.699850  18 H  s               606      2.587910  36 H  s         
   147      2.489815   9 C  px              318      2.314445  19 C  py        
    63      2.161690   5 C  px              532     -1.868725  32 C  pz        

 Vector   77  Occ=0.000000D+00  E= 6.232878D-02
              MO Center=  1.1D-01,  1.7D-01,  8.6D-01, r^2= 3.9D+01
   Bfn.  Coefficient  Atom+Function         Bfn.  Coefficient  Atom+Function  
  ----- ------------  ---------------      ----- ------------  ---------------
   164      3.812870  10 H  s                37      3.074982   3 H  s         
   368     -2.821520  22 H  s               573      2.723982  34 N  s         
   606      2.085435  36 H  s                13     -2.051185   2 C  s         
   420      2.052797  26 H  s                46     -1.943432   4 H  s         
   396      1.910158  24 C  pz              352     -1.892380  21 C  py        

 Vector   78  Occ=0.000000D+00  E= 6.535725D-02
              MO Center=  8.7D-02,  3.6D-01, -1.1D+00, r^2= 4.2D+01
   Bfn.  Coefficient  Atom+Function         Bfn.  Coefficient  Atom+Function  
  ----- ------------  ---------------      ----- ------------  ---------------
    37     -4.419341   3 H  s                 3      4.104367   1 H  s         
   334     -3.777781  20 H  s               430      3.441844  27 C  s         
   198     -3.309340  12 H  s               113     -2.902005   7 N  px        
   317     -2.900519  19 C  px              387      2.900377  24 C  s         
    13      2.621123   2 C  s               420      2.616289  26 H  s         

 Vector   79  Occ=0.000000D+00  E= 6.862183D-02
              MO Center= -6.6D-02,  6.0D-01, -1.0D+00, r^2= 4.6D+01
   Bfn.  Coefficient  Atom+Function         Bfn.  Coefficient  Atom+Function  
  ----- ------------  ---------------      ----- ------------  ---------------
   430      4.885858  27 C  s               368     -3.493454  22 H  s         
   480     -3.417459  29 N  s               504     -3.389057  30 H  s         
   523     -3.351330  32 C  s               198      3.087164  12 H  s         
   411      2.878804  25 H  s               300      2.790041  18 H  s         
   207     -2.743270  13 H  s                46      2.712345   4 H  s         

 Vector   80  Occ=0.000000D+00  E= 7.029861D-02
              MO Center=  3.6D-01, -3.1D-02,  5.6D-01, r^2= 4.4D+01
   Bfn.  Coefficient  Atom+Function         Bfn.  Coefficient  Atom+Function  
  ----- ------------  ---------------      ----- ------------  ---------------
   147      4.118361   9 C  px              377      4.015497  23 H  s         
    63      3.810257   5 C  px              164      3.812817  10 H  s         
   430     -3.455122  27 C  s               368     -3.250776  22 H  s         
   174      3.145184  11 C  s               207     -2.968034  13 H  s         
     3     -2.856434   1 H  s               300     -2.733631  18 H  s         

 Vector   81  Occ=0.000000D+00  E= 7.694732D-02
              MO Center=  2.9D-01,  2.6D-01, -5.7D-03, r^2= 4.2D+01
   Bfn.  Coefficient  Atom+Function         Bfn.  Coefficient  Atom+Function  
  ----- ------------  ---------------      ----- ------------  ---------------
   411      4.491562  25 H  s               164      4.270247  10 H  s         
   207     -3.616040  13 H  s                46     -3.479191   4 H  s         
   216      3.071052  14 H  s               377     -2.878615  23 H  s         
   368      2.837570  22 H  s                56     -2.681501   5 C  s         
     3      2.553183   1 H  s               130      2.448585   8 H  s         

 Vector   82  Occ=0.000000D+00  E= 8.288315D-02
              MO Center= -2.9D-01, -6.0D-01, -1.4D+00, r^2= 3.9D+01
   Bfn.  Coefficient  Atom+Function         Bfn.  Coefficient  Atom+Function  
  ----- ------------  ---------------      ----- ------------  ---------------
   334      6.286213  20 H  s               377     -5.343935  23 H  s         
   317      4.779397  19 C  px               37     -4.527720   3 H  s         
   430     -4.504815  27 C  s               130      3.885652   8 H  s         
   523      3.672956  32 C  s               420      3.377793  26 H  s         
    63      3.329357   5 C  px              411     -2.981761  25 H  s         

 Vector   83  Occ=0.000000D+00  E= 8.708242D-02
              MO Center= -1.1D+00,  1.3D+00, -1.4D+00, r^2= 3.9D+01
   Bfn.  Coefficient  Atom+Function         Bfn.  Coefficient  Atom+Function  
  ----- ------------  ---------------      ----- ------------  ---------------
   198      6.454913  12 H  s               430      6.008134  27 C  s         
   130      4.957246   8 H  s               334     -4.380109  20 H  s         
   411     -4.191805  25 H  s               216     -4.053172  14 H  s         
    63      3.894022   5 C  px              234     -3.525583  15 C  py        
   317     -3.442775  19 C  px              207     -3.230663  13 H  s         

 Vector   84  Occ=0.000000D+00  E= 9.226919D-02
              MO Center=  5.4D-01,  2.2D-01, -9.5D-01, r^2= 4.4D+01
   Bfn.  Coefficient  Atom+Function         Bfn.  Coefficient  Atom+Function  
  ----- ------------  ---------------      ----- ------------  ---------------
   368      6.660107  22 H  s               411     -6.072764  25 H  s         
   216      5.947229  14 H  s                 3     -5.490794   1 H  s         
   377     -4.644722  23 H  s               352      4.447027  21 C  py        
    46      4.222167   4 H  s               334     -4.219010  20 H  s         
   504      3.669042  30 H  s               439     -3.534798  27 C  pz        

 Vector   85  Occ=0.000000D+00  E= 1.026768D-01
              MO Center=  1.9D+00, -3.9D-01,  7.6D-01, r^2= 3.7D+01
   Bfn.  Coefficient  Atom+Function         Bfn.  Coefficient  Atom+Function  
  ----- ------------  ---------------      ----- ------------  ---------------
   504      9.078166  30 H  s               411      7.278322  25 H  s         
   513     -6.937560  31 H  s                37     -4.678620   3 H  s         
   597     -4.672736  35 H  s               174      3.902289  11 C  s         
     3     -3.006893   1 H  s               396     -2.826775  24 C  pz        
   488     -2.598931  29 N  py              368     -2.490362  22 H  s         

 Vector   86  Occ=0.000000D+00  E= 1.068607D-01
              MO Center=  5.7D-01,  1.1D+00,  1.3D+00, r^2= 3.5D+01
   Bfn.  Coefficient  Atom+Function         Bfn.  Coefficient  Atom+Function  
  ----- ------------  ---------------      ----- ------------  ---------------
    63      8.644973   5 C  px              597      8.401915  35 H  s         
    56     -7.918519   5 C  s                13     -7.550627   2 C  s         
   164     -5.801113  10 H  s               234      5.416895  15 C  py        
    65      4.956379   5 C  pz              149      4.673112   9 C  pz        
   300      4.506016  18 H  s               430     -4.289052  27 C  s         

 Vector   87  Occ=0.000000D+00  E= 1.116776D-01
              MO Center=  4.5D-01, -1.4D-01,  3.5D-01, r^2= 3.4D+01
   Bfn.  Coefficient  Atom+Function         Bfn.  Coefficient  Atom+Function  
  ----- ------------  ---------------      ----- ------------  ---------------
   597     -7.927901  35 H  s               300      7.548148  18 H  s         
   430     -5.735883  27 C  s               411     -5.353724  25 H  s         
   344      4.876911  21 C  s               368      4.679315  22 H  s         
   377     -4.272601  23 H  s               480      3.924667  29 N  s         
   439     -3.564097  27 C  pz              283     -3.253336  17 N  px        

 Vector   88  Occ=0.000000D+00  E= 1.220646D-01
              MO Center=  5.7D-01,  5.0D-01, -3.3D-01, r^2= 3.5D+01
   Bfn.  Coefficient  Atom+Function         Bfn.  Coefficient  Atom+Function  
  ----- ------------  ---------------      ----- ------------  ---------------
   147      8.895282   9 C  px              430      8.263163  27 C  s         
    56     -6.832754   5 C  s                13     -6.724000   2 C  s         
    63      6.624584   5 C  px              387      6.473082  24 C  s         
   300     -6.187111  18 H  s               351     -5.812708  21 C  px        
   597     -5.826344  35 H  s               318      5.533482  19 C  py        

 Vector   89  Occ=0.000000D+00  E= 1.257147D-01
              MO Center=  7.4D-01, -9.1D-01, -1.3D+00, r^2= 3.1D+01
   Bfn.  Coefficient  Atom+Function         Bfn.  Coefficient  Atom+Function  
  ----- ------------  ---------------      ----- ------------  ---------------
   300     17.008106  18 H  s               430     16.976534  27 C  s         
   523    -14.129799  32 C  s               344    -12.366937  21 C  s         
   394     -6.873679  24 C  px              437     -6.436071  27 C  px        
   377     -6.030861  23 H  s               276      5.698271  17 N  s         
   597      5.136629  35 H  s               438     -5.025788  27 C  py        

 Vector   90  Occ=0.000000D+00  E= 1.276671D-01
              MO Center= -8.1D-01, -2.0D-01, -6.9D-01, r^2= 3.0D+01
   Bfn.  Coefficient  Atom+Function         Bfn.  Coefficient  Atom+Function  
  ----- ------------  ---------------      ----- ------------  ---------------
   300     10.426953  18 H  s               430     -6.794925  27 C  s         
   523      6.810521  32 C  s               276     -5.415221  17 N  s         
    56      4.960675   5 C  s               106     -4.977672   7 N  s         
   344      4.703072  21 C  s               377     -4.267566  23 H  s         
[...]
   430    -10.663423  27 C  s               343      8.098770  21 C  s         
   284      7.849733  17 N  py              573     -7.354333  34 N  s         
   386      6.944814  24 C  s               367     -6.769046  22 H  s         
   283     -6.517288  17 N  px              319     -5.953845  19 C  pz        

 Vector  171  Occ=0.000000D+00  E= 4.373539D-01
              MO Center= -2.4D-01,  6.3D-01, -2.0D-01, r^2= 1.8D+01
   Bfn.  Coefficient  Atom+Function         Bfn.  Coefficient  Atom+Function  
  ----- ------------  ---------------      ----- ------------  ---------------
   174     14.776242  11 C  s               234    -12.531867  15 C  py        
    63      9.216390   5 C  px              276     -9.156723  17 N  s         
   140      6.936560   9 C  s               226      6.937171  15 C  s         
   438      5.412878  27 C  py              149      5.328022   9 C  pz        
    12      5.299654   2 C  s               113      5.199796   7 N  px        

 Vector  172  Occ=0.000000D+00  E= 4.439921D-01
              MO Center=  1.3D+00,  1.3D+00, -4.2D-01, r^2= 2.0D+01
   Bfn.  Coefficient  Atom+Function         Bfn.  Coefficient  Atom+Function  
  ----- ------------  ---------------      ----- ------------  ---------------
   438      8.166106  27 C  py              430      6.916649  27 C  s         
   113     -5.899104   7 N  px              174     -5.356280  11 C  s         
    37     -4.993615   3 H  s                22     -4.554797   2 C  pz        
   573     -4.477602  34 N  s               106      4.309219   7 N  s         
   226     -4.230025  15 C  s               215      4.102337  14 H  s         

 Vector  173  Occ=0.000000D+00  E= 4.482069D-01
              MO Center=  1.0D+00, -4.1D-01,  5.1D-01, r^2= 1.9D+01
   Bfn.  Coefficient  Atom+Function         Bfn.  Coefficient  Atom+Function  
  ----- ------------  ---------------      ----- ------------  ---------------
   480    -16.805226  29 N  s               430     15.723265  27 C  s         
   573     14.237147  34 N  s               344    -10.120461  21 C  s         
   387      9.911131  24 C  s               174      7.938904  11 C  s         
   106     -7.721691   7 N  s               284     -7.131171  17 N  py        
   523     -6.468382  32 C  s               532     -5.741768  32 C  pz        

 Vector  174  Occ=0.000000D+00  E= 4.503277D-01
              MO Center=  8.4D-01,  6.5D-01, -1.4D-01, r^2= 2.1D+01
   Bfn.  Coefficient  Atom+Function         Bfn.  Coefficient  Atom+Function  
  ----- ------------  ---------------      ----- ------------  ---------------
   430     14.055122  27 C  s               113     -8.552332   7 N  px        
   387      7.720692  24 C  s               480     -7.408810  29 N  s         
   174     -7.187405  11 C  s               344     -6.888044  21 C  s         
   226     -6.757069  15 C  s               317      5.898341  19 C  px        
   235     -5.681786  15 C  pz              439      5.546062  27 C  pz        

 Vector  175  Occ=0.000000D+00  E= 4.532380D-01
              MO Center=  1.2D-01,  3.6D-01, -2.8D-01, r^2= 2.0D+01
   Bfn.  Coefficient  Atom+Function         Bfn.  Coefficient  Atom+Function  
  ----- ------------  ---------------      ----- ------------  ---------------
   387    -10.713528  24 C  s               276     10.258124  17 N  s         
   523     -9.796250  32 C  s               480      9.449235  29 N  s         
    56     -8.228875   5 C  s               283      8.031002  17 N  px        
   226      7.587776  15 C  s                13     -6.874806   2 C  s         
   106     -6.800702   7 N  s               310      5.921543  19 C  s         

 Vector  176  Occ=0.000000D+00  E= 4.603846D-01
              MO Center= -8.5D-01,  4.9D-01, -7.8D-02, r^2= 2.3D+01
   Bfn.  Coefficient  Atom+Function         Bfn.  Coefficient  Atom+Function  
  ----- ------------  ---------------      ----- ------------  ---------------
   523    -21.101654  32 C  s               430     20.731764  27 C  s         
   276     20.069039  17 N  s               344    -12.796329  21 C  s         
   234      9.963886  15 C  py              573      8.486356  34 N  s         
   367      7.718779  22 H  s               226      6.998879  15 C  s         
    63      5.974860   5 C  px              174     -5.745759  11 C  s         

 Vector  177  Occ=0.000000D+00  E= 4.609887D-01
              MO Center=  5.5D-01,  4.1D-01, -9.2D-02, r^2= 1.9D+01
   Bfn.  Coefficient  Atom+Function         Bfn.  Coefficient  Atom+Function  
  ----- ------------  ---------------      ----- ------------  ---------------
   430     21.094969  27 C  s               480    -15.733873  29 N  s         
    13    -13.864281   2 C  s               387     13.011884  24 C  s         
   344    -10.343657  21 C  s                56     -9.472807   5 C  s         
   386      8.907026  24 C  s               234     -8.130583  15 C  py        
   410     -7.834487  25 H  s               284      7.706597  17 N  py        

 Vector  178  Occ=0.000000D+00  E= 4.671584D-01
              MO Center=  1.5D-01,  2.5D-01, -2.0D-01, r^2= 2.1D+01
   Bfn.  Coefficient  Atom+Function         Bfn.  Coefficient  Atom+Function  
  ----- ------------  ---------------      ----- ------------  ---------------
   523     12.696482  32 C  s               318     12.445472  19 C  py        
   234     10.417321  15 C  py              438     10.019031  27 C  py        
   430     -9.541303  27 C  s                12     -9.334799   2 C  s         
   532     -9.021194  32 C  pz               13     -7.975572   2 C  s         
    56     -7.409930   5 C  s               344      7.161785  21 C  s         

 Vector  179  Occ=0.000000D+00  E= 4.687991D-01
              MO Center= -1.9D-01, -6.0D-02,  9.2D-02, r^2= 2.0D+01
   Bfn.  Coefficient  Atom+Function         Bfn.  Coefficient  Atom+Function  
  ----- ------------  ---------------      ----- ------------  ---------------
   523    -14.971327  32 C  s               430     14.591773  27 C  s         
   284    -11.147920  17 N  py              480     -8.888533  29 N  s         
   174      8.610168  11 C  s               344     -8.512920  21 C  s         
   148     -8.014032   9 C  py              173      7.493362  11 C  s         
   226      7.431581  15 C  s               283      7.363716  17 N  px        

 Vector  180  Occ=0.000000D+00  E= 4.742208D-01
              MO Center=  9.9D-02, -1.4D-01, -2.5D-01, r^2= 1.8D+01
   Bfn.  Coefficient  Atom+Function         Bfn.  Coefficient  Atom+Function  
  ----- ------------  ---------------      ----- ------------  ---------------
   430     15.983109  27 C  s               234     13.760207  15 C  py        
   387     11.972932  24 C  s               386      8.456543  24 C  s         
   480     -7.669849  29 N  s               419     -6.638783  26 H  s         
   410     -6.563425  25 H  s               344     -5.893356  21 C  s         
    12     -5.729260   2 C  s               394     -5.194471  24 C  px        

 Vector  181  Occ=0.000000D+00  E= 4.797977D-01
              MO Center=  3.0D-01, -4.7D-01, -2.7D-01, r^2= 1.9D+01
   Bfn.  Coefficient  Atom+Function         Bfn.  Coefficient  Atom+Function  
  ----- ------------  ---------------      ----- ------------  ---------------
   573     16.275438  34 N  s               523    -14.440783  32 C  s         
   387    -10.429826  24 C  s               343     -9.905174  21 C  s         
   226      9.650676  15 C  s               276      9.478096  17 N  s         
   386     -9.120475  24 C  s               410      9.082287  25 H  s         
   429      8.449269  27 C  s               317     -8.003880  19 C  px        

 Vector  182  Occ=0.000000D+00  E= 4.817339D-01
              MO Center=  5.8D-01,  3.7D-01, -7.6D-02, r^2= 1.8D+01
   Bfn.  Coefficient  Atom+Function         Bfn.  Coefficient  Atom+Function  
  ----- ------------  ---------------      ----- ------------  ---------------
   523    -15.380538  32 C  s               276     14.293572  17 N  s         
   174    -12.532119  11 C  s               300     10.492545  18 H  s         
   147    -10.012806   9 C  px               13      9.514266   2 C  s         
   386     -7.528814  24 C  s                12      6.992841   2 C  s         
   573      6.610890  34 N  s               387     -6.570980  24 C  s         

 Vector  183  Occ=0.000000D+00  E= 4.881568D-01
              MO Center=  2.0D-01,  9.1D-01, -1.0D-01, r^2= 1.9D+01
   Bfn.  Coefficient  Atom+Function         Bfn.  Coefficient  Atom+Function  
  ----- ------------  ---------------      ----- ------------  ---------------
    56     15.922008   5 C  s               234    -15.076106  15 C  py        
    13     14.406234   2 C  s               147    -12.239995   9 C  px        
   523    -11.512773  32 C  s                63    -10.853896   5 C  px        
   174    -10.893483  11 C  s               430     10.484350  27 C  s         
   319      8.353291  19 C  pz              106      8.227971   7 N  s         

 Vector  184  Occ=0.000000D+00  E= 4.893177D-01
              MO Center= -3.5D-01, -1.7D-01,  2.8D-01, r^2= 1.8D+01
   Bfn.  Coefficient  Atom+Function         Bfn.  Coefficient  Atom+Function  
  ----- ------------  ---------------      ----- ------------  ---------------
   523     21.373147  32 C  s               430    -15.843762  27 C  s         
   344     10.468362  21 C  s               343      8.867185  21 C  s         
   367     -8.737838  22 H  s               319     -7.986950  19 C  pz        
   310      7.945370  19 C  s                56      6.556510   5 C  s         
   226     -6.557421  15 C  s               376     -6.547703  23 H  s         

 Vector  185  Occ=0.000000D+00  E= 4.918148D-01
              MO Center= -6.2D-01,  1.1D+00, -8.3D-01, r^2= 1.9D+01
   Bfn.  Coefficient  Atom+Function         Bfn.  Coefficient  Atom+Function  
  ----- ------------  ---------------      ----- ------------  ---------------
   234     10.103617  15 C  py              251     -8.474438  16 O  s         
   300      7.541378  18 H  s               147      7.495320   9 C  px        
    13     -7.443721   2 C  s               113      7.283445   7 N  px        
   283     -7.227311  17 N  px              139      6.499708   9 C  s         
   173     -5.891914  11 C  s               318      5.342314  19 C  py        

 Vector  186  Occ=0.000000D+00  E= 4.983631D-01
              MO Center=  6.5D-01, -3.0D-01, -1.8D-01, r^2= 1.9D+01
   Bfn.  Coefficient  Atom+Function         Bfn.  Coefficient  Atom+Function  
  ----- ------------  ---------------      ----- ------------  ---------------
   430     16.206780  27 C  s               387     10.701370  24 C  s         
   344     -9.395236  21 C  s               386      8.886602  24 C  s         
   106     -7.641409   7 N  s                13      7.556187   2 C  s         
   394     -7.481293  24 C  px              352      6.952556  21 C  py        
   419     -6.864261  26 H  s               480     -6.618365  29 N  s         

 Vector  187  Occ=0.000000D+00  E= 5.040012D-01
              MO Center=  4.5D-01,  2.7D-01, -2.2D-01, r^2= 1.9D+01
   Bfn.  Coefficient  Atom+Function         Bfn.  Coefficient  Atom+Function  
  ----- ------------  ---------------      ----- ------------  ---------------
   387     17.604038  24 C  s               480    -14.280045  29 N  s         
   523     10.494839  32 C  s               438      9.460996  27 C  py        
    13     -9.284530   2 C  s               430      8.659161  27 C  s         
   276     -8.423762  17 N  s               283     -6.414957  17 N  px        
   419     -6.378259  26 H  s               318      6.283329  19 C  py        


 center of mass
 --------------
 x =  -0.04643422 y =  -0.04396554 z =   0.03574216

 moments of inertia (a.u.)
 ------------------
        4648.423042774625          -0.000000000000          -0.000000000000
          -0.000000000000        3431.030853605498          -0.000000000000
          -0.000000000000          -0.000000000000        6086.212591772733

  Mulliken analysis of the total density
  --------------------------------------

    Atom       Charge   Shell Charges
 -----------   ------   -------------------------------------------------------
    1 H    1     0.93   0.77  0.20  0.01  0.03 -0.08
    2 C    6     6.48   2.01  0.66  0.44  0.20  2.07  0.96 -0.04  0.06  0.12
    3 H    1     0.76   0.76  0.03  0.01  0.03 -0.08
    4 H    1     0.88   0.77  0.15  0.02  0.03 -0.09
    5 C    6     5.18   2.01  0.68  0.08  0.10  1.89  0.33 -0.07  0.24 -0.08
    6 O    8     8.83   2.01  0.82  1.00  0.18  2.80  1.87  0.15  0.01 -0.01
    7 N    7     7.47   2.01  0.72  0.82 -0.18  2.45  1.45  0.10  0.05  0.05
    8 H    1     0.96   0.77  0.21 -0.03  0.05 -0.04
    9 C    6     6.34   2.01  0.66  0.18 -0.02  1.99  1.26 -0.07  0.14  0.18
   10 H    1     1.13   0.78  0.29  0.02  0.03  0.02
   11 C    6     5.84   2.01  0.66  0.31  0.22  2.04  0.58 -0.05  0.07  0.01
   12 H    1     0.94   0.76  0.22 -0.01  0.03 -0.07
   13 H    1     0.94   0.77  0.21  0.01  0.03 -0.09
   14 H    1     0.94   0.77  0.18  0.04  0.03 -0.08
   15 C    6     4.68   2.01  0.68  0.04 -0.04  1.89  0.10  0.07  0.24 -0.30
   16 O    8     8.89   2.01  0.82  1.06  0.21  2.79  1.85  0.15  0.01 -0.00
   17 N    7     7.18   2.01  0.72  0.79 -0.17  2.45  1.42 -0.12  0.05  0.02
   18 H    1     0.86   0.74  0.31 -0.06  0.06 -0.19
   19 C    6     6.22   2.01  0.66  0.06 -0.02  1.99  1.22  0.12  0.14  0.05
   20 H    1     1.10   0.78  0.31 -0.01  0.03 -0.00
   21 C    6     5.88   2.01  0.66  0.36 -0.04  2.03  0.66 -0.02  0.09  0.12
   22 H    1     1.00   0.78  0.27  0.01  0.03 -0.08
   23 H    1     0.96   0.78  0.26 -0.02  0.03 -0.09
   24 C    6     6.52   2.01  0.66  0.62 -0.03  2.05  0.97 -0.01  0.09  0.16
   25 H    1     0.90   0.78  0.19 -0.04  0.03 -0.05
   26 H    1     0.84   0.77  0.13 -0.00  0.03 -0.10
   27 C    6     4.57   2.01  0.68  0.00  0.03  1.90 -0.09 -0.03  0.24 -0.17
   28 O    8     9.01   2.01  0.81  1.05  0.21  2.81  1.89  0.21  0.02  0.00
   29 N    7     7.21   2.01  0.72  0.81 -0.13  2.47  1.23  0.07  0.04 -0.01
   30 H    1     0.94   0.75  0.20 -0.03  0.05 -0.04
   31 H    1     1.00   0.76  0.22  0.00  0.05 -0.04
   32 C    6     4.68   2.01  0.68  0.09  0.03  1.89 -0.17  0.03  0.24 -0.12
   33 O    8     8.90   2.01  0.82  1.04  0.20  2.79  1.86  0.16  0.01 -0.00
   34 N    7     7.19   2.01  0.72  0.83 -0.19  2.46  1.23  0.10  0.04 -0.01
   35 H    1     0.85   0.73  0.18 -0.01  0.06 -0.11
   36 H    1     1.02   0.76  0.24 -0.01  0.05 -0.02

       Multipole analysis of the density wrt the origin
       ------------------------------------------------

     L   x y z        total         open         nuclear
     -   - - -        -----         ----         -------
     0   0 0 0     -0.000000      0.000000    138.000000

     1   1 0 0      2.520704      0.000000     -0.000000
     1   0 1 0      1.364455      0.000000      0.000000
     1   0 0 1     -0.841375      0.000000      0.000000

     2   2 0 0    -86.037632      0.000000   1335.873569
     2   1 1 0     -6.044875      0.000000    -11.018985
     2   1 0 1      7.426060      0.000000     24.496334
     2   0 2 0    -74.849937      0.000000   2034.041369
     2   0 1 1      0.123196      0.000000     -2.484473
     2   0 0 2    -79.508760      0.000000    567.901256


 Task  times  cpu:     6371.3s     wall:     6508.5s


                                NWChem Input Module
                                -------------------


 Summary of allocated global arrays
-----------------------------------
  No active global arrays


MA_summarize_allocated_blocks: starting scan ...
MA_summarize_allocated_blocks: scan completed: 0 heap blocks, 0 stack blocks
MA usage statistics:

	allocation statistics:
					      heap	     stack
					      ----	     -----
	current number of blocks	         0	         0
	maximum number of blocks	        16	        14
	current total bytes		         0	         0
	maximum total bytes		    129856	  28238888
	maximum total K-bytes		       130	     28239
	maximum total M-bytes		         1	        29


                                     CITATION
                                     --------
                Please cite the following reference when publishing
                           results obtained with NWChem:

          E. Apra, E. J. Bylaska, W. A. de Jong, N. Govind, K. Kowalski,
       T. P. Straatsma, M. Valiev, H. J. J. van Dam, Y. Alexeev, J. Anchell,
       V. Anisimov, F. W. Aquino, R. Atta-Fynn, J. Autschbach, N. P. Bauman,
     J. C. Becca, D. E. Bernholdt, K. Bhaskaran-Nair, S. Bogatko, P. Borowski,
         J. Boschen, J. Brabec, A. Bruner, E. Cauet, Y. Chen, G. N. Chuev,
      C. J. Cramer, J. Daily, M. J. O. Deegan, T. H. Dunning Jr., M. Dupuis,
   K. G. Dyall, G. I. Fann, S. A. Fischer, A. Fonari, H. Fruchtl, L. Gagliardi,
      J. Garza, N. Gawande, S. Ghosh, K. Glaesemann, A. W. Gotz, J. Hammond,
       V. Helms, E. D. Hermes, K. Hirao, S. Hirata, M. Jacquelin, L. Jensen,
   B. G. Johnson, H. Jonsson, R. A. Kendall, M. Klemm, R. Kobayashi, V. Konkov,
      S. Krishnamoorthy, M. Krishnan, Z. Lin, R. D. Lins, R. J. Littlefield,
      A. J. Logsdail, K. Lopata, W. Ma, A. V. Marenich, J. Martin del Campo,
   D. Mejia-Rodriguez, J. E. Moore, J. M. Mullin, T. Nakajima, D. R. Nascimento,
    J. A. Nichols, P. J. Nichols, J. Nieplocha, A. Otero-de-la-Roza, B. Palmer,
    A. Panyala, T. Pirojsirikul, B. Peng, R. Peverati, J. Pittner, L. Pollack,
   R. M. Richard, P. Sadayappan, G. C. Schatz, W. A. Shelton, D. W. Silverstein,
   D. M. A. Smith, T. A. Soares, D. Song, M. Swart, H. L. Taylor, G. S. Thomas,
            V. Tipparaju, D. G. Truhlar, K. Tsemekhman, T. Van Voorhis,
      A. Vazquez-Mayagoitia, P. Verma, O. Villa, A. Vishnu, K. D. Vogiatzis,
        D. Wang, J. H. Weare, M. J. Williamson, T. L. Windus, K. Wolinski,
        A. T. Wong, Q. Wu, C. Yang, Q. Yu, M. Zacharias, Z. Zhang, Y. Zhao,
                                and R. J. Harrison
                        "NWChem: Past, present, and future
                         J. Chem. Phys. 152, 184102 (2020)
                               doi:10.1063/5.0004997

                                      AUTHORS
                                      -------
  E. Apra, E. J. Bylaska, N. Govind, K. Kowalski, M. Valiev, D. Mejia-Rodriguez,
       A. Kunitsa, N. P. Bauman, A. Panyala, W. A. de Jong, T. P. Straatsma,
   H. J. J. van Dam, D. Wang, T. L. Windus, J. Hammond, J. Autschbach, A. Woods,
    K. Bhaskaran-Nair, J. Brabec, K. Lopata, S. A. Fischer, S. Krishnamoorthy,
     M. Jacquelin, W. Ma, M. Klemm, O. Villa, Y. Chen, V. Anisimov, F. Aquino,
     S. Hirata, M. T. Hackler, E. Hermes, L. Jensen, J. E. Moore, J. C. Becca,
      V. Konjkov, T. Risthaus, M. Malagoli, A. Marenich, A. Otero-de-la-Roza,
        J. Mullin, P. Nichols, R. Peverati, J. Pittner, Y. Zhao, P.-D. Fan,
        A. Fonari, M. J. Williamson, R. J. Harrison, J. R. Rehr, M. Dupuis,
     D. Silverstein, D. M. A. Smith, J. Nieplocha, V. Tipparaju, M. Krishnan,
     B. E. Van Kuiken, A. Vazquez-Mayagoitia, M. Swart, Q. Wu, T. Van Voorhis,
     A. A. Auer, M. Nooijen, L. D. Crosby, E. Brown, G. Cisneros, G. I. Fann,
   H. Fruchtl, J. Garza, K. Hirao, R. A. Kendall, J. A. Nichols, K. Tsemekhman,
    K. Wolinski, J. Anchell, D. E. Bernholdt, P. Borowski, T. Clark, D. Clerc,
   H. Dachsel, M. J. O. Deegan, K. Dyall, D. Elwood, E. Glendening, M. Gutowski,
   A. C. Hess, J. Jaffe, B. G. Johnson, J. Ju, R. Kobayashi, R. Kutteh, Z. Lin,
   R. Littlefield, X. Long, B. Meng, T. Nakajima, S. Niu, L. Pollack, M. Rosing,
   K. Glaesemann, G. Sandrone, M. Stave, H. Taylor, G. Thomas, J. H. van Lenthe,
                               A. T. Wong, Z. Zhang.

 Total times  cpu:     6371.3s     wall:     6508.7s
