export TMOUT=5400
export TMPDIR=/tmp
export PTMPDIR=/tmp/ptmp
 argument  1 = ALA_HIS_2.nw
                                         
                                         


             Northwest Computational Chemistry Package (NWChem) 7.2.0
             --------------------------------------------------------


                    Environmental Molecular Sciences Laboratory
                       Pacific Northwest National Laboratory
                                Richland, WA 99352

                              Copyright (c) 1994-2022
                       Pacific Northwest National Laboratory
                            Battelle Memorial Institute

             NWChem is an open-source computational chemistry package
                        distributed under the terms of the
                      Educational Community License (ECL) 2.0
             A copy of the license is included with this distribution
                              in the LICENSE.TXT file

                                  ACKNOWLEDGMENT
                                  --------------

            This software and its documentation were developed at the
            EMSL at Pacific Northwest National Laboratory, a multiprogram
            national laboratory, operated for the U.S. Department of Energy
            by Battelle under Contract Number DE-AC05-76RL01830. Support
            for this work was provided by the Department of Energy Office
            of Biological and Environmental Research, Office of Basic
            Energy Sciences, and the Office of Advanced Scientific Computing.


           Job information
           ---------------

    hostname        = nova18-23
    program         = /opt/rit/el9/20230413/app/linux-rhel9-x86_64_v3/gcc-11.2.1/nwchem-7.2.0-oxtctbuhfuzyfaoziquq6bki22grib3g/bin/nwchem
    date            = Fri Jun 27 00:25:47 2025

    compiled        = Wed_May_17_23:46:39_2023
    source          = /tmp/root/spack-stage/spack-stage-nwchem-7.2.0-oxtctbuhfuzyfaoziquq6bki22grib3g/spack-src
    nwchem branch   = 7.2.0
    nwchem revision = d0d141fd
    ga revision     = 5.8.0
    use scalapack   = T
    input           = ALA_HIS_2.nw
    prefix          = ALA_HIS_2.
    data base       = ./ALA_HIS_2.db
    status          = startup
    nproc           =        8
    time left       =     -1s



           Memory information
           ------------------

    heap     =   26214396 doubles =    200.0 Mbytes
    stack    =   26214401 doubles =    200.0 Mbytes
    global   =   52428800 doubles =    400.0 Mbytes (distinct from heap & stack)
    total    =  104857597 doubles =    800.0 Mbytes
    verify   = yes
    hardfail = no 


           Directory information
           ---------------------

  0 permanent = .
  0 scratch   = .




                                NWChem Input Module
                                -------------------



 Scaling coordinates for geometry "geometry" by  1.889725989
 (inverse scale =  0.529177249)

 C1  symmetry detected

          ------
          auto-z
          ------
  no constraints, skipping    0.0000000000000000     
  no constraints, skipping    0.0000000000000000     


                             Geometry "geometry" -> ""
                             -------------------------

 Output coordinates in angstroms (scale by  1.889725989 to convert to a.u.)

  No.       Tag          Charge          X              Y              Z
 ---- ---------------- ---------- -------------- -------------- --------------
    1 H                    1.0000     2.91273174    -4.81645651    -0.36792493
    2 C                    6.0000     2.07055766    -5.42986957    -0.05357920
    3 H                    1.0000     2.13920603    -5.64175286     1.01146440
    4 H                    1.0000     2.07014899    -6.36471527    -0.61350005
    5 C                    6.0000     0.78177791    -4.69233202    -0.33446018
    6 O                    8.0000    -0.04998468    -5.17628730    -1.08958221
    7 N                    7.0000     0.62551925    -3.51853567     0.27298888
    8 H                    1.0000     1.37435984    -3.16966614     0.85241861
    9 C                    6.0000    -0.53741340    -2.64511345     0.11395971
   10 H                    1.0000    -0.92443318    -2.74993628    -0.90084562
   11 C                    6.0000    -1.62945838    -3.08775184     1.09985778
   12 H                    1.0000    -2.51829151    -2.46705041     0.97403496
   13 H                    1.0000    -1.89967358    -4.12754048     0.90816704
   14 H                    1.0000    -1.26813157    -2.99229484     2.12431466
   15 C                    6.0000    -0.15216000    -1.16853200     0.32374070
   16 O                    8.0000     0.89318820    -0.86682978     0.90082900
   17 N                    7.0000    -1.00375028    -0.24594822    -0.13443738
   18 H                    1.0000    -1.87077361    -0.55044035    -0.55594787
   19 C                    6.0000    -0.84289566     1.20320632     0.04318841
   20 H                    1.0000    -0.42786748     1.38702000     1.03617690
   21 C                    6.0000     0.14851936     1.74996940    -1.00200266
   22 H                    1.0000     0.86639216     0.97219154    -1.26789218
   23 H                    1.0000    -0.38762560     2.02526978    -1.91094946
   24 C                    6.0000     0.93499915     2.93600833    -0.50402656
   25 N                    7.0000     0.45634399     4.24132492    -0.37469039
   26 C                    6.0000     1.46740872     4.95687364     0.13776268
   27 H                    1.0000     1.42058890     6.01767340     0.35237347
   28 N                    7.0000     2.53847561     4.17290509     0.35009969
   29 H                    1.0000     3.42073880     4.47706857     0.73498180
   30 C                    6.0000     2.21846353     2.89199527    -0.04194536
   31 H                    1.0000     2.84315003     2.00989691     0.01208472
   32 C                    6.0000    -2.21051066     1.90789945    -0.02375040
   33 O                    8.0000    -3.22632582     1.27826308    -0.29908220
   34 N                    7.0000    -2.27299640     3.20514661     0.23158143
   35 H                    1.0000    -3.16777284     3.66115255     0.17836763
   36 H                    1.0000    -1.41864336     3.73004213     0.36409397

      Atomic Mass 
      ----------- 

      H                  1.007825
      C                 12.000000
      O                 15.994910
      N                 14.003070


 Effective nuclear repulsion energy (a.u.)    1430.5903062662

            Nuclear Dipole moment (a.u.) 
            ----------------------------
        X                 Y               Z
 ---------------- ---------------- ----------------
    -0.0000000000     0.0000000000     0.0000000000



                                Z-matrix (autoz)
                                -------- 

 Units are Angstrom for bonds and degrees for angles

      Type          Name      I     J     K     L     M      Value
      ----------- --------  ----- ----- ----- ----- ----- ----------
    1 Stretch                  1     2                       1.08828
    2 Stretch                  2     3                       1.08808
    3 Stretch                  2     4                       1.08970
    4 Stretch                  2     5                       1.51123
    5 Stretch                  5     6                       1.22321
    6 Stretch                  5     7                       1.33087
    7 Stretch                  7     8                       1.00906
    8 Stretch                  7     9                       1.46307
    9 Stretch                  9    10                       1.09115
   10 Stretch                  9    11                       1.53639
   11 Stretch                  9    15                       1.54036
   12 Stretch                 11    12                       1.09139
   13 Stretch                 11    13                       1.09129
   14 Stretch                 11    14                       1.09050
   15 Stretch                 15    16                       1.23159
   16 Stretch                 15    17                       1.33652
   17 Stretch                 17    18                       1.01100
   18 Stretch                 17    19                       1.46883
   19 Stretch                 19    20                       1.09182
   20 Stretch                 19    21                       1.54087
   21 Stretch                 19    32                       1.53995
   22 Stretch                 21    22                       1.09132
   23 Stretch                 21    23                       1.09061
   24 Stretch                 21    24                       1.50772
   25 Stretch                 24    25                       1.39631
   26 Stretch                 24    30                       1.36482
   27 Stretch                 25    26                       1.34047
   28 Stretch                 26    27                       1.08330
   29 Stretch                 26    28                       1.34420
   30 Stretch                 28    29                       1.00947
   31 Stretch                 28    30                       1.37726
   32 Stretch                 30    31                       1.08224
   33 Stretch                 32    33                       1.22643
   34 Stretch                 32    34                       1.32361
   35 Stretch                 34    35                       1.00568
   36 Stretch                 34    36                       1.01143
   37 Bend                     1     2     3               110.10053
   38 Bend                     1     2     4               109.59853
   39 Bend                     1     2     5               109.34035
   40 Bend                     2     5     6               120.10191
   41 Bend                     2     5     7               116.47034
   42 Bend                     3     2     4               109.62822
   43 Bend                     3     2     5               109.31538
   44 Bend                     4     2     5               108.83614
   45 Bend                     5     7     8               118.67840
   46 Bend                     5     7     9               124.76671
   47 Bend                     6     5     7               123.42724
   48 Bend                     7     9    10               109.00617
   49 Bend                     7     9    11               108.85861
   50 Bend                     7     9    15               111.01785
   51 Bend                     8     7     9               116.48056
   52 Bend                     9    11    12               109.94015
   53 Bend                     9    11    13               109.74208
   54 Bend                     9    11    14               110.00521
   55 Bend                     9    15    16               120.72552
   56 Bend                     9    15    17               117.10720
   57 Bend                    10     9    11               108.48255
   58 Bend                    10     9    15               107.90620
   59 Bend                    11     9    15               111.50320
   60 Bend                    12    11    13               108.66167
   61 Bend                    12    11    14               109.16979
   62 Bend                    13    11    14               109.29699
   63 Bend                    15    17    18               118.78065
   64 Bend                    15    17    19               124.73657
   65 Bend                    16    15    17               122.16436
   66 Bend                    17    19    20               108.52463
   67 Bend                    17    19    21               109.78670
   68 Bend                    17    19    32               110.42396
   69 Bend                    18    17    19               116.19833
   70 Bend                    19    21    22               109.60964
   71 Bend                    19    21    23               109.79135
   72 Bend                    19    21    24               112.99957
   73 Bend                    19    32    33               120.69091
   74 Bend                    19    32    34               118.81827
   75 Bend                    20    19    21               108.21577
   76 Bend                    20    19    32               107.46238
   77 Bend                    21    19    32               112.30557
   78 Bend                    21    24    25               125.95547
   79 Bend                    21    24    30               125.23950
   80 Bend                    22    21    23               107.47106
   81 Bend                    22    21    24               107.33602
   82 Bend                    23    21    24               109.45916
   83 Bend                    24    25    26               106.01365
   84 Bend                    24    30    28               106.55207
   85 Bend                    24    30    31               125.87324
   86 Bend                    25    24    30               108.73257
   87 Bend                    25    26    27               124.46137
   88 Bend                    25    26    28               110.49103
   89 Bend                    26    28    29               125.51327
   90 Bend                    26    28    30               108.19882
   91 Bend                    27    26    28               125.04716
   92 Bend                    28    30    31               127.56902
   93 Bend                    29    28    30               126.28737
   94 Bend                    32    34    35               118.43702
   95 Bend                    32    34    36               119.60530
   96 Bend                    33    32    34               120.48874
   97 Bend                    35    34    36               121.54468
   98 Torsion                  1     2     5     6         119.72868
   99 Torsion                  1     2     5     7         -60.02142
  100 Torsion                  2     5     7     8           2.19518
  101 Torsion                  2     5     7     9         178.94274
  102 Torsion                  3     2     5     6        -119.67637
  103 Torsion                  3     2     5     7          60.57353
  104 Torsion                  4     2     5     6           0.03678
  105 Torsion                  4     2     5     7        -179.71332
  106 Torsion                  5     7     9    10         -32.74213
  107 Torsion                  5     7     9    11          85.41997
  108 Torsion                  5     7     9    15        -151.47387
  109 Torsion                  6     5     7     8        -177.54578
  110 Torsion                  6     5     7     9          -0.79821
  111 Torsion                  7     9    11    12        -178.21073
  112 Torsion                  7     9    11    13         -58.74917
  113 Torsion                  7     9    11    14          61.53611
  114 Torsion                  7     9    15    16         -18.12903
  115 Torsion                  7     9    15    17         162.47906
  116 Torsion                  8     7     9    10         144.07003
  117 Torsion                  8     7     9    11         -97.76786
  118 Torsion                  8     7     9    15          25.33829
  119 Torsion                  9    15    17    18           2.65373
  120 Torsion                  9    15    17    19         176.28203
  121 Torsion                 10     9    11    12         -59.71899
  122 Torsion                 10     9    11    13          59.74257
  123 Torsion                 10     9    11    14        -179.97215
  124 Torsion                 10     9    15    16        -137.52137
  125 Torsion                 10     9    15    17          43.08672
  126 Torsion                 11     9    15    16         103.44165
  127 Torsion                 11     9    15    17         -75.95026
  128 Torsion                 12    11     9    15          58.97435
  129 Torsion                 13    11     9    15         178.43590
  130 Torsion                 14    11     9    15         -61.27882
  131 Torsion                 15    17    19    20         -37.42441
  132 Torsion                 15    17    19    21          80.66894
  133 Torsion                 15    17    19    32        -154.97158
  134 Torsion                 16    15    17    18        -176.72876
  135 Torsion                 16    15    17    19          -3.10046
  136 Torsion                 17    19    21    22         -29.14185
  137 Torsion                 17    19    21    23          88.69282
  138 Torsion                 17    19    21    24        -148.80261
  139 Torsion                 17    19    32    33          -5.26191
  140 Torsion                 17    19    32    34         174.21686
  141 Torsion                 18    17    19    20         136.35220
  142 Torsion                 18    17    19    21        -105.55445
  143 Torsion                 18    17    19    32          18.80503
  144 Torsion                 19    21    24    25         -75.93429
  145 Torsion                 19    21    24    30         100.61691
  146 Torsion                 19    32    34    35         179.47354
  147 Torsion                 19    32    34    36           6.73352
  148 Torsion                 20    19    21    22          89.14288
  149 Torsion                 20    19    21    23        -153.02246
  150 Torsion                 20    19    21    24         -30.51789
  151 Torsion                 20    19    32    33        -123.46144
  152 Torsion                 20    19    32    34          56.01733
  153 Torsion                 21    19    32    33         117.64030
  154 Torsion                 21    19    32    34         -62.88092
  155 Torsion                 21    24    25    26         178.13258
  156 Torsion                 21    24    30    28        -178.06827
  157 Torsion                 21    24    30    31           1.11662
  158 Torsion                 22    21    19    32        -152.40215
  159 Torsion                 22    21    24    25         163.10557
  160 Torsion                 22    21    24    30         -20.34323
  161 Torsion                 23    21    19    32         -34.56749
  162 Torsion                 23    21    24    25          46.75552
  163 Torsion                 23    21    24    30        -136.69328
  164 Torsion                 24    21    19    32          87.93708
  165 Torsion                 24    25    26    27         179.45820
  166 Torsion                 24    25    26    28          -0.77011
  167 Torsion                 24    30    28    26           0.54308
  168 Torsion                 24    30    28    29        -179.71378
  169 Torsion                 25    24    30    28          -1.01566
  170 Torsion                 25    24    30    31         178.16922
  171 Torsion                 25    26    28    29        -179.59078
  172 Torsion                 25    26    28    30           0.15486
  173 Torsion                 26    25    24    30           1.10648
  174 Torsion                 26    28    30    31        -178.62360
  175 Torsion                 27    26    28    29           0.17928
  176 Torsion                 27    26    28    30         179.92491
  177 Torsion                 29    28    30    31           1.11953
  178 Torsion                 33    32    34    35          -1.04660
  179 Torsion                 33    32    34    36        -173.78662


            XYZ format geometry
            -------------------
    36
 geometry
 H                     2.91273174    -4.81645651    -0.36792493
 C                     2.07055766    -5.42986957    -0.05357920
 H                     2.13920603    -5.64175286     1.01146440
 H                     2.07014899    -6.36471527    -0.61350005
 C                     0.78177791    -4.69233202    -0.33446018
 O                    -0.04998468    -5.17628730    -1.08958221
 N                     0.62551925    -3.51853567     0.27298888
 H                     1.37435984    -3.16966614     0.85241861
 C                    -0.53741340    -2.64511345     0.11395971
 H                    -0.92443318    -2.74993628    -0.90084562
 C                    -1.62945838    -3.08775184     1.09985778
 H                    -2.51829151    -2.46705041     0.97403496
 H                    -1.89967358    -4.12754048     0.90816704
 H                    -1.26813157    -2.99229484     2.12431466
 C                    -0.15216000    -1.16853200     0.32374070
 O                     0.89318820    -0.86682978     0.90082900
 N                    -1.00375028    -0.24594822    -0.13443738
 H                    -1.87077361    -0.55044035    -0.55594787
 C                    -0.84289566     1.20320632     0.04318841
 H                    -0.42786748     1.38702000     1.03617690
 C                     0.14851936     1.74996940    -1.00200266
 H                     0.86639216     0.97219154    -1.26789218
 H                    -0.38762560     2.02526978    -1.91094946
 C                     0.93499915     2.93600833    -0.50402656
 N                     0.45634399     4.24132492    -0.37469039
 C                     1.46740872     4.95687364     0.13776268
 H                     1.42058890     6.01767340     0.35237347
 N                     2.53847561     4.17290509     0.35009969
 H                     3.42073880     4.47706857     0.73498180
 C                     2.21846353     2.89199527    -0.04194536
 H                     2.84315003     2.00989691     0.01208472
 C                    -2.21051066     1.90789945    -0.02375040
 O                    -3.22632582     1.27826308    -0.29908220
 N                    -2.27299640     3.20514661     0.23158143
 H                    -3.16777284     3.66115255     0.17836763
 H                    -1.41864336     3.73004213     0.36409397

 ==============================================================================
                                internuclear distances
 ------------------------------------------------------------------------------
       center one      |      center two      | atomic units |  angstroms
 ------------------------------------------------------------------------------
    2 C                |   1 H                |     2.05654  |     1.08828
    3 H                |   2 C                |     2.05618  |     1.08808
    4 H                |   2 C                |     2.05924  |     1.08970
    5 C                |   2 C                |     2.85581  |     1.51123
    6 O                |   5 C                |     2.31154  |     1.22321
    7 N                |   5 C                |     2.51498  |     1.33087
    8 H                |   7 N                |     1.90686  |     1.00906
    9 C                |   7 N                |     2.76480  |     1.46307
   10 H                |   9 C                |     2.06197  |     1.09115
   11 C                |   9 C                |     2.90335  |     1.53639
   12 H                |  11 C                |     2.06242  |     1.09139
   13 H                |  11 C                |     2.06225  |     1.09129
   14 H                |  11 C                |     2.06074  |     1.09050
   15 C                |   9 C                |     2.91087  |     1.54036
   16 O                |  15 C                |     2.32736  |     1.23159
   17 N                |  15 C                |     2.52566  |     1.33652
   18 H                |  17 N                |     1.91051  |     1.01100
   19 C                |  17 N                |     2.77569  |     1.46883
   20 H                |  19 C                |     2.06323  |     1.09182
   21 C                |  19 C                |     2.91182  |     1.54087
   22 H                |  21 C                |     2.06229  |     1.09132
   23 H                |  21 C                |     2.06095  |     1.09061
   24 C                |  21 C                |     2.84918  |     1.50772
   25 N                |  24 C                |     2.63865  |     1.39631
   26 C                |  25 N                |     2.53313  |     1.34047
   27 H                |  26 C                |     2.04715  |     1.08330
   28 N                |  26 C                |     2.54017  |     1.34420
   29 H                |  28 N                |     1.90763  |     1.00947
   30 C                |  24 C                |     2.57914  |     1.36482
   30 C                |  28 N                |     2.60264  |     1.37726
   31 H                |  30 C                |     2.04514  |     1.08224
   32 C                |  19 C                |     2.91008  |     1.53995
   33 O                |  32 C                |     2.31762  |     1.22643
   34 N                |  32 C                |     2.50126  |     1.32361
   35 H                |  34 N                |     1.90047  |     1.00568
   36 H                |  34 N                |     1.91133  |     1.01143
 ------------------------------------------------------------------------------
                         number of included internuclear distances:         36
 ==============================================================================



 ==============================================================================
                                 internuclear angles
 ------------------------------------------------------------------------------
        center 1       |       center 2       |       center 3       |  degrees
 ------------------------------------------------------------------------------
    1 H                |   2 C                |   3 H                |   110.10
    1 H                |   2 C                |   4 H                |   109.60
    1 H                |   2 C                |   5 C                |   109.34
    3 H                |   2 C                |   4 H                |   109.63
    3 H                |   2 C                |   5 C                |   109.32
    4 H                |   2 C                |   5 C                |   108.84
    2 C                |   5 C                |   6 O                |   120.10
    2 C                |   5 C                |   7 N                |   116.47
    6 O                |   5 C                |   7 N                |   123.43
    5 C                |   7 N                |   8 H                |   118.68
    5 C                |   7 N                |   9 C                |   124.77
    8 H                |   7 N                |   9 C                |   116.48
    7 N                |   9 C                |  10 H                |   109.01
    7 N                |   9 C                |  11 C                |   108.86
    7 N                |   9 C                |  15 C                |   111.02
   10 H                |   9 C                |  11 C                |   108.48
   10 H                |   9 C                |  15 C                |   107.91
   11 C                |   9 C                |  15 C                |   111.50
    9 C                |  11 C                |  12 H                |   109.94
    9 C                |  11 C                |  13 H                |   109.74
    9 C                |  11 C                |  14 H                |   110.01
   12 H                |  11 C                |  13 H                |   108.66
   12 H                |  11 C                |  14 H                |   109.17
   13 H                |  11 C                |  14 H                |   109.30
    9 C                |  15 C                |  16 O                |   120.73
    9 C                |  15 C                |  17 N                |   117.11
   16 O                |  15 C                |  17 N                |   122.16
   15 C                |  17 N                |  18 H                |   118.78
   15 C                |  17 N                |  19 C                |   124.74
   18 H                |  17 N                |  19 C                |   116.20
   17 N                |  19 C                |  20 H                |   108.52
   17 N                |  19 C                |  21 C                |   109.79
   17 N                |  19 C                |  32 C                |   110.42
   20 H                |  19 C                |  21 C                |   108.22
   20 H                |  19 C                |  32 C                |   107.46
   21 C                |  19 C                |  32 C                |   112.31
   19 C                |  21 C                |  22 H                |   109.61
   19 C                |  21 C                |  23 H                |   109.79
   19 C                |  21 C                |  24 C                |   113.00
   22 H                |  21 C                |  23 H                |   107.47
   22 H                |  21 C                |  24 C                |   107.34
   23 H                |  21 C                |  24 C                |   109.46
   21 C                |  24 C                |  25 N                |   125.96
   21 C                |  24 C                |  30 C                |   125.24
   25 N                |  24 C                |  30 C                |   108.73
   24 C                |  25 N                |  26 C                |   106.01
   25 N                |  26 C                |  27 H                |   124.46
   25 N                |  26 C                |  28 N                |   110.49
   27 H                |  26 C                |  28 N                |   125.05
   26 C                |  28 N                |  29 H                |   125.51
   26 C                |  28 N                |  30 C                |   108.20
   29 H                |  28 N                |  30 C                |   126.29
   24 C                |  30 C                |  28 N                |   106.55
   24 C                |  30 C                |  31 H                |   125.87
   28 N                |  30 C                |  31 H                |   127.57
   19 C                |  32 C                |  33 O                |   120.69
   19 C                |  32 C                |  34 N                |   118.82
   33 O                |  32 C                |  34 N                |   120.49
   32 C                |  34 N                |  35 H                |   118.44
   32 C                |  34 N                |  36 H                |   119.61
   35 H                |  34 N                |  36 H                |   121.54
 ------------------------------------------------------------------------------
                            number of included internuclear angles:         61
 ==============================================================================



  library name resolved from: environment
  library file name is: </opt/rit/el9/20230413/app/linux-rhel9-x86_64_v3/gcc-11.2.1/nwchem-7.2.0-oxtctbuhfuzyfaoziquq6bki22grib3g/share/nwchem/libraries/>
  


 Summary of "ao basis" -> "" (cartesian)
 ------------------------------------------------------------------------------
       Tag                 Description            Shells   Functions and Types
 ---------------- ------------------------------  ------  ---------------------
 *                        aug-cc-pvdz                 on all atoms 


                      Basis "ao basis" -> "ao basis" (cartesian)
                      -----
  H (Hydrogen)
  ------------
            Exponent  Coefficients 
       -------------- ---------------------------------------------------------
  1 S  1.30100000E+01  0.019685
  1 S  1.96200000E+00  0.137977
  1 S  4.44600000E-01  0.478148

  2 S  1.22000000E-01  1.000000

  3 S  2.97400000E-02  1.000000

  4 P  7.27000000E-01  1.000000

  5 P  1.41000000E-01  1.000000

  C (Carbon)
  ----------
            Exponent  Coefficients 
       -------------- ---------------------------------------------------------
  1 S  6.66500000E+03  0.000692
  1 S  1.00000000E+03  0.005329
  1 S  2.28000000E+02  0.027077
  1 S  6.47100000E+01  0.101718
  1 S  2.10600000E+01  0.274740
  1 S  7.49500000E+00  0.448564
  1 S  2.79700000E+00  0.285074
  1 S  5.21500000E-01  0.015204

  2 S  6.66500000E+03 -0.000146
  2 S  1.00000000E+03 -0.001154
  2 S  2.28000000E+02 -0.005725
  2 S  6.47100000E+01 -0.023312
  2 S  2.10600000E+01 -0.063955
  2 S  7.49500000E+00 -0.149981
  2 S  2.79700000E+00 -0.127262
  2 S  5.21500000E-01  0.544529

  3 S  1.59600000E-01  1.000000

  4 S  4.69000000E-02  1.000000

  5 P  9.43900000E+00  0.038109
  5 P  2.00200000E+00  0.209480
  5 P  5.45600000E-01  0.508557

  6 P  1.51700000E-01  1.000000

  7 P  4.04100000E-02  1.000000

  8 D  5.50000000E-01  1.000000

  9 D  1.51000000E-01  1.000000

  O (Oxygen)
  ----------
            Exponent  Coefficients 
       -------------- ---------------------------------------------------------
  1 S  1.17200000E+04  0.000710
  1 S  1.75900000E+03  0.005470
  1 S  4.00800000E+02  0.027837
  1 S  1.13700000E+02  0.104800
  1 S  3.70300000E+01  0.283062
  1 S  1.32700000E+01  0.448719
  1 S  5.02500000E+00  0.270952
  1 S  1.01300000E+00  0.015458

  2 S  1.17200000E+04 -0.000160
  2 S  1.75900000E+03 -0.001263
  2 S  4.00800000E+02 -0.006267
  2 S  1.13700000E+02 -0.025716
  2 S  3.70300000E+01 -0.070924
  2 S  1.32700000E+01 -0.165411
  2 S  5.02500000E+00 -0.116955
  2 S  1.01300000E+00  0.557368

  3 S  3.02300000E-01  1.000000

  4 S  7.89600000E-02  1.000000

  5 P  1.77000000E+01  0.043018
  5 P  3.85400000E+00  0.228913
  5 P  1.04600000E+00  0.508728

  6 P  2.75300000E-01  1.000000

  7 P  6.85600000E-02  1.000000

  8 D  1.18500000E+00  1.000000

  9 D  3.32000000E-01  1.000000

  N (Nitrogen)
  ------------
            Exponent  Coefficients 
       -------------- ---------------------------------------------------------
  1 S  9.04600000E+03  0.000700
  1 S  1.35700000E+03  0.005389
  1 S  3.09300000E+02  0.027406
  1 S  8.77300000E+01  0.103207
  1 S  2.85600000E+01  0.278723
  1 S  1.02100000E+01  0.448540
  1 S  3.83800000E+00  0.278238
  1 S  7.46600000E-01  0.015440

  2 S  9.04600000E+03 -0.000153
  2 S  1.35700000E+03 -0.001208
  2 S  3.09300000E+02 -0.005992
  2 S  8.77300000E+01 -0.024544
  2 S  2.85600000E+01 -0.067459
  2 S  1.02100000E+01 -0.158078
  2 S  3.83800000E+00 -0.121831
  2 S  7.46600000E-01  0.549003

  3 S  2.24800000E-01  1.000000

  4 S  6.12400000E-02  1.000000

  5 P  1.35500000E+01  0.039919
  5 P  2.91700000E+00  0.217169
  5 P  7.97300000E-01  0.510319

  6 P  2.18500000E-01  1.000000

  7 P  5.61100000E-02  1.000000

  8 D  8.17000000E-01  1.000000

  9 D  2.30000000E-01  1.000000



 Summary of "ao basis" -> "ao basis" (cartesian)
 ------------------------------------------------------------------------------
       Tag                 Description            Shells   Functions and Types
 ---------------- ------------------------------  ------  ---------------------
 H                        aug-cc-pvdz                5        9   3s2p
 C                        aug-cc-pvdz                9       25   4s3p2d
 O                        aug-cc-pvdz                9       25   4s3p2d
 N                        aug-cc-pvdz                9       25   4s3p2d


                                 NWChem SCF Module
                                 -----------------



  ao basis        = "ao basis"
  functions       =   628
  atoms           =    36
  closed shells   =    71
  open shells     =     0
  charge          =   0.00
  wavefunction    = RHF 
  input vectors   = atomic
  output vectors  = ./ALA_HIS_2.movecs
  use symmetry    = F
  symmetry adapt  = F


 Summary of "ao basis" -> "ao basis" (cartesian)
 ------------------------------------------------------------------------------
       Tag                 Description            Shells   Functions and Types
 ---------------- ------------------------------  ------  ---------------------
 H                        aug-cc-pvdz                5        9   3s2p
 C                        aug-cc-pvdz                9       25   4s3p2d
 O                        aug-cc-pvdz                9       25   4s3p2d
 N                        aug-cc-pvdz                9       25   4s3p2d



 Forming initial guess at       1.9s


 !! The overlap matrix has   7 vectors deemed linearly dependent with
    eigenvalues:
 2.20D-06 2.89D-06 3.40D-06 4.55D-06 6.10D-06 7.41D-06 8.16D-06


      Superposition of Atomic Density Guess
      -------------------------------------

 Sum of atomic energies:        -918.63993171

      Non-variational initial energy
      ------------------------------

 Total energy =    -931.261345
 1-e energy   =   -4089.919892
 2-e energy   =    1728.068241
 HOMO         =      -0.243453
 LUMO         =       0.010747


 Starting SCF solution at     249.1s



 ----------------------------------------------
         Quadratically convergent ROHF

 Convergence threshold     :          1.000E-04
 Maximum no. of iterations :           30
 Final Fock-matrix accuracy:          1.000E-10
 ----------------------------------------------


              iter       energy          gnorm     gmax       time
             ----- ------------------- --------- --------- --------
                 1     -923.0580904378  2.53D+00  1.65D-01    608.8
                 2     -923.4083884846  8.81D-01  4.87D-02   1158.5
                 3     -923.4753628566  6.45D-02  4.41D-03   2023.8
                 4     -923.4760079407  3.79D-03  3.39D-04   3150.4
                 5     -923.4760106521  1.19D-05  1.22D-06   5031.1


       Final RHF  results 
       ------------------ 

         Total SCF energy =   -923.476010652140
      One-electron energy =  -4103.029343672739
      Two-electron energy =   1748.963026754428
 Nuclear repulsion energy =   1430.590306266171

        Time for solution =   4789.9s


             Final eigenvalues
             -----------------

              1      
    1  -20.5361
    2  -20.5279
    3  -20.5135
    4  -15.6542
    5  -15.6023
    6  -15.5882
    7  -15.5871
    8  -15.5763
    9  -11.3664
   10  -11.3620
   11  -11.3458
   12  -11.3297
   13  -11.3033
   14  -11.2944
   15  -11.2791
   16  -11.2739
   17  -11.2565
   18  -11.2356
   19  -11.2317
   20   -1.3965
   21   -1.3882
   22   -1.3752
   23   -1.3644
   24   -1.2466
   25   -1.2368
   26   -1.2212
   27   -1.1848
   28   -1.0856
   29   -1.0533
   30   -1.0148
   31   -0.9844
   32   -0.9266
   33   -0.8872
   34   -0.8514
   35   -0.8181
   36   -0.7966
   37   -0.7853
   38   -0.7833
   39   -0.7671
   40   -0.7492
   41   -0.7138
   42   -0.6781
   43   -0.6660
   44   -0.6512
   45   -0.6476
   46   -0.6364
   47   -0.6287
   48   -0.6229
   49   -0.6204
   50   -0.6143
   51   -0.6034
   52   -0.5967
   53   -0.5811
   54   -0.5744
   55   -0.5602
   56   -0.5532
   57   -0.5422
   58   -0.5369
   59   -0.5338
   60   -0.5215
   61   -0.5151
   62   -0.4925
   63   -0.4590
   64   -0.4324
   65   -0.4254
   66   -0.4198
   67   -0.4117
   68   -0.4114
   69   -0.4001
   70   -0.3859
   71   -0.3346
   72    0.0184
   73    0.0330
   74    0.0374
   75    0.0445
   76    0.0465
   77    0.0530
   78    0.0565
   79    0.0610
   80    0.0651
   81    0.0689

                       ROHF Final Molecular Orbital Analysis
                       -------------------------------------

 Vector   20  Occ=2.000000D+00  E=-1.396532D+00
              MO Center= -5.3D-01, -2.7D-01,  3.5D-01, r^2= 4.7D+00
   Bfn.  Coefficient  Atom+Function         Bfn.  Coefficient  Atom+Function  
  ----- ------------  ---------------      ----- ------------  ---------------
   250      0.297991  16 O  s               249      0.284783  16 O  s         
   224      0.203808  15 C  s               563      0.195093  33 O  s         
   562      0.182399  33 O  s         

 Vector   21  Occ=2.000000D+00  E=-1.388153D+00
              MO Center= -1.9D+00,  7.8D-01,  4.2D-02, r^2= 5.4D+00
   Bfn.  Coefficient  Atom+Function         Bfn.  Coefficient  Atom+Function  
  ----- ------------  ---------------      ----- ------------  ---------------
   563      0.322740  33 O  s               562      0.299685  33 O  s         
   537      0.207576  32 C  s               250     -0.201244  16 O  s         
   249     -0.188583  16 O  s         

 Vector   22  Occ=2.000000D+00  E=-1.375239D+00
              MO Center=  2.6D-01, -4.6D+00, -6.5D-01, r^2= 1.9D+00
   Bfn.  Coefficient  Atom+Function         Bfn.  Coefficient  Atom+Function  
  ----- ------------  ---------------      ----- ------------  ---------------
    79      0.341849   6 O  s                80      0.343367   6 O  s         
    54      0.240736   5 C  s                12      0.159663   2 C  s         

 Vector   23  Occ=2.000000D+00  E=-1.364414D+00
              MO Center=  1.8D+00,  4.1D+00,  8.2D-02, r^2= 1.3D+00
   Bfn.  Coefficient  Atom+Function         Bfn.  Coefficient  Atom+Function  
  ----- ------------  ---------------      ----- ------------  ---------------
   470      0.332839  28 N  s               469      0.295254  28 N  s         
   435      0.192435  26 C  s               411      0.188838  25 N  s         
   410      0.167146  25 N  s         

 Vector   24  Occ=2.000000D+00  E=-1.246607D+00
              MO Center= -7.1D-01, -2.1D-01,  3.6D-02, r^2= 1.8D+00
   Bfn.  Coefficient  Atom+Function         Bfn.  Coefficient  Atom+Function  
  ----- ------------  ---------------      ----- ------------  ---------------
   275      0.439148  17 N  s               274      0.342884  17 N  s         
   250     -0.216644  16 O  s               249     -0.180551  16 O  s         
   227     -0.163697  15 C  px              298      0.151009  18 H  s         

 Vector   25  Occ=2.000000D+00  E=-1.236845D+00
              MO Center=  4.3D-01, -3.7D+00,  4.6D-02, r^2= 1.8D+00
   Bfn.  Coefficient  Atom+Function         Bfn.  Coefficient  Atom+Function  
  ----- ------------  ---------------      ----- ------------  ---------------
   105      0.436950   7 N  s               104      0.343250   7 N  s         
    80     -0.212990   6 O  s                79     -0.185644   6 O  s         
   128      0.153217   8 H  s         

 Vector   26  Occ=2.000000D+00  E=-1.221189D+00
              MO Center= -2.2D+00,  2.8D+00,  1.2D-01, r^2= 1.7D+00
   Bfn.  Coefficient  Atom+Function         Bfn.  Coefficient  Atom+Function  
  ----- ------------  ---------------      ----- ------------  ---------------
   588      0.379046  34 N  s               587      0.363098  34 N  s         
   563     -0.216004  33 O  s               541      0.192453  32 C  py        
   562     -0.179091  33 O  s               620      0.162423  36 H  s         
   611      0.152889  35 H  s         

 Vector   27  Occ=2.000000D+00  E=-1.184831D+00
              MO Center=  1.3D+00,  4.0D+00, -7.3D-02, r^2= 2.5D+00
   Bfn.  Coefficient  Atom+Function         Bfn.  Coefficient  Atom+Function  
  ----- ------------  ---------------      ----- ------------  ---------------
   411      0.379818  25 N  s               470     -0.374853  28 N  s         
   410      0.290251  25 N  s               469     -0.257311  28 N  s         
   385      0.154700  24 C  s               438     -0.153587  26 C  px        

 Vector   28  Occ=2.000000D+00  E=-1.085611D+00
              MO Center=  9.8D-02,  1.4D+00, -2.9D-01, r^2= 6.8D+00
   Bfn.  Coefficient  Atom+Function         Bfn.  Coefficient  Atom+Function  
  ----- ------------  ---------------      ----- ------------  ---------------
   342      0.224850  21 C  s               308      0.177377  19 C  s         

 Vector   29  Occ=2.000000D+00  E=-1.053310D+00
              MO Center=  1.1D-01, -1.8D+00,  1.8D-01, r^2= 1.2D+01
   Bfn.  Coefficient  Atom+Function         Bfn.  Coefficient  Atom+Function  
  ----- ------------  ---------------      ----- ------------  ---------------
   138      0.216881   9 C  s                12     -0.184634   2 C  s         
   172      0.183188  11 C  s         

 Vector   30  Occ=2.000000D+00  E=-1.014772D+00
              MO Center=  6.9D-01,  1.5D+00, -2.4D-02, r^2= 1.2D+01
   Bfn.  Coefficient  Atom+Function         Bfn.  Coefficient  Atom+Function  
  ----- ------------  ---------------      ----- ------------  ---------------
   503      0.204845  30 C  s               308     -0.183537  19 C  s         
   435     -0.154975  26 C  s         

 Vector   31  Occ=2.000000D+00  E=-9.844066D-01
              MO Center=  1.0D+00, -4.3D+00,  1.4D-01, r^2= 6.9D+00
   Bfn.  Coefficient  Atom+Function         Bfn.  Coefficient  Atom+Function  
  ----- ------------  ---------------      ----- ------------  ---------------
    11      0.307988   2 C  s                56     -0.195394   5 C  s         
   144     -0.175416   9 C  px              225      0.170564  15 C  s         
   172      0.168949  11 C  s                55      0.153858   5 C  s         

 Vector   32  Occ=2.000000D+00  E=-9.266376D-01
              MO Center= -1.1D-01,  1.3D+00, -1.8D-01, r^2= 7.9D+00
   Bfn.  Coefficient  Atom+Function         Bfn.  Coefficient  Atom+Function  
  ----- ------------  ---------------      ----- ------------  ---------------
   342      0.225665  21 C  s               145      0.217111   9 C  py        
   139      0.209473   9 C  s               225     -0.198764  15 C  s         
   314      0.187469  19 C  px              231      0.153528  15 C  py        

 Vector   33  Occ=2.000000D+00  E=-8.871730D-01
              MO Center= -7.8D-01, -1.9D+00,  4.4D-01, r^2= 8.2D+00
   Bfn.  Coefficient  Atom+Function         Bfn.  Coefficient  Atom+Function  
  ----- ------------  ---------------      ----- ------------  ---------------
   145      0.242164   9 C  py              172     -0.230424  11 C  s         
   144      0.193481   9 C  px              138      0.168790   9 C  s         
   309      0.161880  19 C  s               225     -0.157920  15 C  s         

 Vector   34  Occ=2.000000D+00  E=-8.514128D-01
              MO Center=  1.8D+00,  4.1D+00,  1.0D-01, r^2= 2.9D+00
   Bfn.  Coefficient  Atom+Function         Bfn.  Coefficient  Atom+Function  
  ----- ------------  ---------------      ----- ------------  ---------------
   472      0.276545  28 N  px              493      0.273938  29 H  s         
   411      0.250207  25 N  s               470      0.233353  28 N  s         
   435     -0.215015  26 C  s               510     -0.189082  30 C  py        
   404      0.181408  24 C  dxy             386     -0.174540  24 C  s         
   504     -0.169771  30 C  s               410      0.162793  25 N  s         

 Vector   35  Occ=2.000000D+00  E=-8.180867D-01
              MO Center= -1.1D+00,  3.2D-01,  8.2D-02, r^2= 1.1D+01
   Bfn.  Coefficient  Atom+Function         Bfn.  Coefficient  Atom+Function  
  ----- ------------  ---------------      ----- ------------  ---------------
   309      0.291057  19 C  s               591     -0.242376  34 N  py        
   225      0.211271  15 C  s               537      0.179833  32 C  s         
   544      0.171666  32 C  py              314     -0.166888  19 C  px        
   611     -0.164016  35 H  s               278     -0.162638  17 N  py        
   108     -0.153043   7 N  py        

 Vector   36  Occ=2.000000D+00  E=-7.966005D-01
              MO Center=  6.6D-04,  1.3D+00, -2.6D-02, r^2= 9.1D+00
   Bfn.  Coefficient  Atom+Function         Bfn.  Coefficient  Atom+Function  
  ----- ------------  ---------------      ----- ------------  ---------------
   275      0.278074  17 N  s               298      0.224761  18 H  s         
   277     -0.219107  17 N  px              333     -0.212771  20 H  s         
   315      0.203660  19 C  py              139     -0.202373   9 C  s         
   438      0.153605  26 C  px        

 Vector   37  Occ=2.000000D+00  E=-7.852721D-01
              MO Center=  7.3D-01,  2.8D+00,  2.7D-03, r^2= 8.1D+00
   Bfn.  Coefficient  Atom+Function         Bfn.  Coefficient  Atom+Function  
  ----- ------------  ---------------      ----- ------------  ---------------
   438      0.187144  26 C  px              527     -0.178586  31 H  s         
   472     -0.174879  28 N  px              414     -0.164885  25 N  py        
   275     -0.156998  17 N  s               417     -0.152856  25 N  py        
   315     -0.151107  19 C  py        

 Vector   38  Occ=2.000000D+00  E=-7.833371D-01
              MO Center=  1.5D-01, -2.9D+00,  1.3D-01, r^2= 4.5D+00
   Bfn.  Coefficient  Atom+Function         Bfn.  Coefficient  Atom+Function  
  ----- ------------  ---------------      ----- ------------  ---------------
   225      0.287941  15 C  s               128      0.281560   8 H  s         
   105      0.248829   7 N  s               139     -0.232807   9 C  s         
   109      0.211558   7 N  pz               55     -0.209587   5 C  s         
   144     -0.199618   9 C  px              108      0.194841   7 N  py        
   163     -0.181104  10 H  s                80      0.157677   6 O  s         

 Vector   39  Occ=2.000000D+00  E=-7.671433D-01
              MO Center=  1.1D+00,  3.4D+00, -7.2D-02, r^2= 5.6D+00
   Bfn.  Coefficient  Atom+Function         Bfn.  Coefficient  Atom+Function  
  ----- ------------  ---------------      ----- ------------  ---------------
   439      0.202961  26 C  py              507     -0.197453  30 C  py        
   459      0.193012  27 H  s               473      0.184313  28 N  py        
   493      0.173813  29 H  s               472      0.160763  28 N  px        

 Vector   40  Occ=2.000000D+00  E=-7.492384D-01
              MO Center= -1.1D+00,  1.0D+00,  1.3D-01, r^2= 1.1D+01
   Bfn.  Coefficient  Atom+Function         Bfn.  Coefficient  Atom+Function  
  ----- ------------  ---------------      ----- ------------  ---------------
   620      0.251586  36 H  s               590      0.244334  34 N  px        
   591      0.170288  34 N  py              315      0.153009  19 C  py        
   539      0.153669  32 C  s         

 Vector   41  Occ=2.000000D+00  E=-7.138126D-01
              MO Center= -8.0D-01, -2.2D-01,  1.7D-01, r^2= 1.5D+01
   Bfn.  Coefficient  Atom+Function         Bfn.  Coefficient  Atom+Function  
  ----- ------------  ---------------      ----- ------------  ---------------
   590      0.287529  34 N  px              611     -0.240120  35 H  s         
   145     -0.204602   9 C  py              228      0.198245  15 C  py        
   142     -0.184072   9 C  py              620      0.176807  36 H  s         
   225      0.159898  15 C  s         

 Vector   42  Occ=2.000000D+00  E=-6.781090D-01
              MO Center= -4.9D-01, -1.9D-01,  2.2D-01, r^2= 7.9D+00
   Bfn.  Coefficient  Atom+Function         Bfn.  Coefficient  Atom+Function  
  ----- ------------  ---------------      ----- ------------  ---------------
   252      0.213271  16 O  px              250      0.188286  16 O  s         
   565     -0.176046  33 O  px              332      0.158813  20 H  s         
   311      0.154711  19 C  px              541      0.152531  32 C  py        

 Vector   43  Occ=2.000000D+00  E=-6.660476D-01
              MO Center= -4.6D-01, -2.1D+00, -3.2D-01, r^2= 1.6D+01
   Bfn.  Coefficient  Atom+Function         Bfn.  Coefficient  Atom+Function  
  ----- ------------  ---------------      ----- ------------  ---------------
    82      0.223538   6 O  px               80     -0.206772   6 O  s         
    58     -0.188800   5 C  py              541      0.177421  32 C  py        
    12      0.171075   2 C  s                17     -0.167654   2 C  px        
    14     -0.154921   2 C  px              611     -0.153062  35 H  s         
   565     -0.151034  33 O  px        

 Vector   44  Occ=2.000000D+00  E=-6.512465D-01
              MO Center= -2.0D-01, -6.5D-01,  1.8D-02, r^2= 1.1D+01
   Bfn.  Coefficient  Atom+Function         Bfn.  Coefficient  Atom+Function  
  ----- ------------  ---------------      ----- ------------  ---------------
   107      0.166248   7 N  px              162      0.157271  10 H  s         
   143     -0.153740   9 C  pz        

 Vector   45  Occ=2.000000D+00  E=-6.476287D-01
              MO Center= -1.6D-01, -1.4D+00,  3.5D-02, r^2= 1.2D+01
   Bfn.  Coefficient  Atom+Function         Bfn.  Coefficient  Atom+Function  
  ----- ------------  ---------------      ----- ------------  ---------------
    58      0.180306   5 C  py              565     -0.178317  33 O  px        
   227      0.167554  15 C  px              541      0.160249  32 C  py        
   250     -0.158030  16 O  s               253     -0.155548  16 O  py        
   252     -0.154761  16 O  px               82     -0.151055   6 O  px        

 Vector   46  Occ=2.000000D+00  E=-6.364044D-01
              MO Center=  3.8D-01,  2.7D+00, -1.7D-01, r^2= 9.3D+00
   Bfn.  Coefficient  Atom+Function         Bfn.  Coefficient  Atom+Function  
  ----- ------------  ---------------      ----- ------------  ---------------
   439      0.217321  26 C  py              459      0.211412  27 H  s         
   366     -0.177827  22 H  s               345     -0.175464  21 C  px        
   414     -0.163233  25 N  py        

 Vector   47  Occ=2.000000D+00  E=-6.287450D-01
              MO Center=  7.0D-01,  2.3D+00, -5.5D-02, r^2= 1.1D+01
   Bfn.  Coefficient  Atom+Function         Bfn.  Coefficient  Atom+Function  
  ----- ------------  ---------------      ----- ------------  ---------------
   474      0.232480  28 N  pz              477      0.173125  28 N  pz        
   439     -0.164683  26 C  py        

 Vector   48  Occ=2.000000D+00  E=-6.228789D-01
              MO Center=  6.9D-01, -2.5D+00,  8.6D-03, r^2= 1.4D+01
   Bfn.  Coefficient  Atom+Function         Bfn.  Coefficient  Atom+Function  
  ----- ------------  ---------------      ----- ------------  ---------------
   139      0.449059   9 C  s               173     -0.334248  11 C  s         
   225     -0.201114  15 C  s                59      0.197944   5 C  pz        
   226      0.191765  15 C  s                16      0.183623   2 C  pz        

 Vector   49  Occ=2.000000D+00  E=-6.204040D-01
              MO Center=  1.6D+00,  2.2D+00, -2.5D-03, r^2= 1.1D+01
   Bfn.  Coefficient  Atom+Function         Bfn.  Coefficient  Atom+Function  
  ----- ------------  ---------------      ----- ------------  ---------------
   527      0.279966  31 H  s               528      0.228891  31 H  s         
   507     -0.225043  30 C  py              139     -0.213532   9 C  s         
   473      0.207550  28 N  py              506      0.199042  30 C  px        
   510     -0.169606  30 C  py              173      0.159824  11 C  s         
   438      0.159953  26 C  px              436      0.151837  26 C  s         

 Vector   50  Occ=2.000000D+00  E=-6.143140D-01
              MO Center=  3.2D-01,  1.7D+00, -4.5D-02, r^2= 1.2D+01
   Bfn.  Coefficient  Atom+Function         Bfn.  Coefficient  Atom+Function  
  ----- ------------  ---------------      ----- ------------  ---------------
   315      0.225050  19 C  py              309      0.193128  19 C  s         
   472      0.171496  28 N  px              388      0.169459  24 C  px        
   540      0.153760  32 C  px        

 Vector   51  Occ=2.000000D+00  E=-6.033862D-01
              MO Center= -2.0D-01, -1.6D+00,  4.1D-01, r^2= 9.6D+00
   Bfn.  Coefficient  Atom+Function         Bfn.  Coefficient  Atom+Function  
  ----- ------------  ---------------      ----- ------------  ---------------
   252     -0.199698  16 O  px              227      0.193405  15 C  px        
   254     -0.187953  16 O  pz              250     -0.163732  16 O  s         
   205      0.154270  13 H  s         

 Vector   52  Occ=2.000000D+00  E=-5.966868D-01
              MO Center= -1.5D-01,  3.2D-01, -6.9D-02, r^2= 1.5D+01
   Bfn.  Coefficient  Atom+Function         Bfn.  Coefficient  Atom+Function  
  ----- ------------  ---------------      ----- ------------  ---------------
   540      0.173551  32 C  px              474      0.159663  28 N  pz        

 Vector   53  Occ=2.000000D+00  E=-5.811203D-01
              MO Center= -4.9D-02, -1.6D+00, -1.0D-01, r^2= 1.6D+01
   Bfn.  Coefficient  Atom+Function         Bfn.  Coefficient  Atom+Function  
  ----- ------------  ---------------      ----- ------------  ---------------
    57      0.184746   5 C  px              347      0.165078  21 C  pz        
    15      0.158565   2 C  py               84     -0.151749   6 O  pz        

 Vector   54  Occ=2.000000D+00  E=-5.743965D-01
              MO Center= -8.7D-01, -9.2D-01,  1.8D-01, r^2= 1.3D+01
   Bfn.  Coefficient  Atom+Function         Bfn.  Coefficient  Atom+Function  
  ----- ------------  ---------------      ----- ------------  ---------------
   542      0.170412  32 C  pz              196     -0.154038  12 H  s         
   197     -0.153838  12 H  s         

 Vector   55  Occ=2.000000D+00  E=-5.601590D-01
              MO Center=  9.9D-01, -4.8D+00, -2.1D-01, r^2= 5.2D+00
   Bfn.  Coefficient  Atom+Function         Bfn.  Coefficient  Atom+Function  
  ----- ------------  ---------------      ----- ------------  ---------------
    45      0.274383   4 H  s                44      0.241876   4 H  s         
    15     -0.233094   2 C  py                1     -0.221158   1 H  s         
    84     -0.183030   6 O  pz               14     -0.178654   2 C  px        
    83     -0.171645   6 O  py        

 Vector   56  Occ=2.000000D+00  E=-5.532180D-01
              MO Center=  2.1D-01, -1.5D+00,  4.6D-03, r^2= 1.6D+01
   Bfn.  Coefficient  Atom+Function         Bfn.  Coefficient  Atom+Function  
  ----- ------------  ---------------      ----- ------------  ---------------
    13      0.195810   2 C  s                16      0.192793   2 C  pz        
   346      0.186387  21 C  py               44     -0.178014   4 H  s         
   226     -0.157180  15 C  s                35      0.152685   3 H  s         
   275      0.150717  17 N  s         

 Vector   57  Occ=2.000000D+00  E=-5.422379D-01
              MO Center= -7.3D-01, -1.6D+00,  3.7D-01, r^2= 1.1D+01
   Bfn.  Coefficient  Atom+Function         Bfn.  Coefficient  Atom+Function  
  ----- ------------  ---------------      ----- ------------  ---------------
   176      0.270925  11 C  py              205     -0.259681  13 H  s         
   206     -0.247676  13 H  s               539     -0.207564  32 C  s         
   309      0.183912  19 C  s               367      0.183529  22 H  s         
   253      0.167342  16 O  py        

 Vector   58  Occ=2.000000D+00  E=-5.368934D-01
              MO Center= -6.0D-01,  2.6D-01, -2.7D-01, r^2= 1.2D+01
   Bfn.  Coefficient  Atom+Function         Bfn.  Coefficient  Atom+Function  
  ----- ------------  ---------------      ----- ------------  ---------------
   345      0.250410  21 C  px              367      0.246551  22 H  s         
   567     -0.175968  33 O  pz              366      0.173075  22 H  s         
   540      0.162914  32 C  px              375     -0.152528  23 H  s         

 Vector   59  Occ=2.000000D+00  E=-5.338217D-01
              MO Center=  3.9D-02,  6.6D-01, -3.1D-01, r^2= 1.0D+01
   Bfn.  Coefficient  Atom+Function         Bfn.  Coefficient  Atom+Function  
  ----- ------------  ---------------      ----- ------------  ---------------
   346     -0.256439  21 C  py              226      0.236250  15 C  s         
   366      0.220920  22 H  s               389      0.212473  24 C  py        
   276     -0.209893  17 N  s               367      0.201501  22 H  s         
   333      0.199141  20 H  s               414     -0.150952  25 N  py        

 Vector   60  Occ=2.000000D+00  E=-5.214953D-01
              MO Center= -7.3D-01, -2.6D+00,  5.5D-01, r^2= 6.5D+00
   Bfn.  Coefficient  Atom+Function         Bfn.  Coefficient  Atom+Function  
  ----- ------------  ---------------      ----- ------------  ---------------
   163      0.270840  10 H  s               215      0.268864  14 H  s         
   214      0.244067  14 H  s               175      0.219176  11 C  px        
   196     -0.208786  12 H  s               177      0.187638  11 C  pz        
   197     -0.187071  12 H  s               162      0.185662  10 H  s         
   107      0.178631   7 N  px              141     -0.151020   9 C  px        

 Vector   61  Occ=2.000000D+00  E=-5.151096D-01
              MO Center= -1.1D-01, -8.9D-01,  7.6D-02, r^2= 1.1D+01
   Bfn.  Coefficient  Atom+Function         Bfn.  Coefficient  Atom+Function  
  ----- ------------  ---------------      ----- ------------  ---------------
   254      0.224493  16 O  pz              276      0.224654  17 N  s         
   313     -0.216324  19 C  pz              332     -0.185989  20 H  s         
   333     -0.186670  20 H  s               347      0.180280  21 C  pz        
   226     -0.172124  15 C  s               257      0.170244  16 O  pz        
   376     -0.159214  23 H  s               163      0.150725  10 H  s         

 Vector   62  Occ=2.000000D+00  E=-4.924736D-01
              MO Center=  1.3D-02, -3.5D+00, -2.2D-02, r^2= 6.3D+00
   Bfn.  Coefficient  Atom+Function         Bfn.  Coefficient  Atom+Function  
  ----- ------------  ---------------      ----- ------------  ---------------
    84      0.235652   6 O  pz              143     -0.228847   9 C  pz        
   177      0.194516  11 C  pz               87      0.173091   6 O  pz        
   162      0.165974  10 H  s               163      0.150798  10 H  s         

 Vector   63  Occ=2.000000D+00  E=-4.589706D-01
              MO Center=  2.0D-01,  3.8D+00, -3.3D-01, r^2= 3.4D+00
   Bfn.  Coefficient  Atom+Function         Bfn.  Coefficient  Atom+Function  
  ----- ------------  ---------------      ----- ------------  ---------------
   413      0.425687  25 N  px              411     -0.321839  25 N  s         
   416      0.309813  25 N  px              412     -0.217296  25 N  s         
   391     -0.195855  24 C  px              414     -0.184120  25 N  py        
   388     -0.166796  24 C  px              506      0.155985  30 C  px        

 Vector   64  Occ=2.000000D+00  E=-4.324101D-01
              MO Center=  3.3D-03, -9.6D-01,  5.0D-01, r^2= 4.9D+00
   Bfn.  Coefficient  Atom+Function         Bfn.  Coefficient  Atom+Function  
  ----- ------------  ---------------      ----- ------------  ---------------
   253      0.472020  16 O  py              256      0.378768  16 O  py        
   142      0.198359   9 C  py              275     -0.174794  17 N  s         
   315     -0.161644  19 C  py        

 Vector   65  Occ=2.000000D+00  E=-4.254397D-01
              MO Center= -2.0D+00,  1.2D+00, -1.3D-01, r^2= 5.4D+00
   Bfn.  Coefficient  Atom+Function         Bfn.  Coefficient  Atom+Function  
  ----- ------------  ---------------      ----- ------------  ---------------
   309      0.411728  19 C  s               566     -0.398205  33 O  py        
   569     -0.322887  33 O  py              565      0.292164  33 O  px        
   556      0.228602  32 C  dxy             568      0.229331  33 O  px        
   225      0.202433  15 C  s               145     -0.198962   9 C  py        
   538     -0.199681  32 C  s               311      0.196256  19 C  px        

 Vector   66  Occ=2.000000D+00  E=-4.198025D-01
              MO Center=  2.2D-01,  2.3D+00, -2.2D-03, r^2= 8.7D+00
   Bfn.  Coefficient  Atom+Function         Bfn.  Coefficient  Atom+Function  
  ----- ------------  ---------------      ----- ------------  ---------------
   415      0.260212  25 N  pz              474     -0.244835  28 N  pz        
   418      0.229918  25 N  pz              309     -0.222605  19 C  s         
   279      0.220307  17 N  pz              477     -0.212981  28 N  pz        
   282      0.200062  17 N  pz              254     -0.179105  16 O  pz        
   592     -0.174620  34 N  pz              390      0.164738  24 C  pz        

 Vector   67  Occ=2.000000D+00  E=-4.116718D-01
              MO Center= -7.2D-02, -1.9D+00, -4.9D-01, r^2= 2.0D+01
   Bfn.  Coefficient  Atom+Function         Bfn.  Coefficient  Atom+Function  
  ----- ------------  ---------------      ----- ------------  ---------------
    83     -0.322544   6 O  py               13      0.304023   2 C  s         
    82      0.285041   6 O  px               86     -0.259521   6 O  py        
    85      0.220304   6 O  px               17      0.183442   2 C  px        
   105      0.181238   7 N  s               592      0.178530  34 N  pz        
   567     -0.176416  33 O  pz               14      0.159831   2 C  px        

 Vector   68  Occ=2.000000D+00  E=-4.113950D-01
              MO Center= -7.8D-01, -1.7D-01, -2.9D-01, r^2= 1.9D+01
   Bfn.  Coefficient  Atom+Function         Bfn.  Coefficient  Atom+Function  
  ----- ------------  ---------------      ----- ------------  ---------------
   592      0.278687  34 N  pz               83      0.255174   6 O  py        
   567     -0.253215  33 O  pz              595      0.235765  34 N  pz        
    82     -0.218653   6 O  px               13     -0.217373   2 C  s         
    86      0.204806   6 O  py              570     -0.196530  33 O  pz        
   276     -0.180917  17 N  s                85     -0.168677   6 O  px        

 Vector   69  Occ=2.000000D+00  E=-4.000758D-01
              MO Center= -5.8D-01,  5.6D-01,  6.5D-02, r^2= 8.8D+00
   Bfn.  Coefficient  Atom+Function         Bfn.  Coefficient  Atom+Function  
  ----- ------------  ---------------      ----- ------------  ---------------
   279      0.300547  17 N  pz              282      0.273003  17 N  pz        
   592      0.227297  34 N  pz              254     -0.220559  16 O  pz        
   595      0.195490  34 N  pz              257     -0.172427  16 O  pz        
   567     -0.162821  33 O  pz              415     -0.152516  25 N  pz        

 Vector   70  Occ=2.000000D+00  E=-3.858611D-01
              MO Center=  1.1D-01, -3.5D+00, -9.3D-02, r^2= 4.7D+00
   Bfn.  Coefficient  Atom+Function         Bfn.  Coefficient  Atom+Function  
  ----- ------------  ---------------      ----- ------------  ---------------
   109      0.333636   7 N  pz              112      0.301023   7 N  pz        
   139      0.271993   9 C  s                84     -0.250933   6 O  pz        
   174      0.216307  11 C  s                87     -0.193351   6 O  pz        
   107     -0.187935   7 N  px              108     -0.181426   7 N  py        
   110     -0.181168   7 N  px              111     -0.171239   7 N  py        

 Vector   71  Occ=2.000000D+00  E=-3.346350D-01
              MO Center=  1.5D+00,  3.3D+00, -1.5D-01, r^2= 3.0D+00
   Bfn.  Coefficient  Atom+Function         Bfn.  Coefficient  Atom+Function  
  ----- ------------  ---------------      ----- ------------  ---------------
   508      0.335133  30 C  pz              390      0.279774  24 C  pz        
   440     -0.269479  26 C  pz              511      0.235746  30 C  pz        
   393      0.211885  24 C  pz              443     -0.187362  26 C  pz        

 Vector   72  Occ=0.000000D+00  E= 1.837828D-02
              MO Center=  3.7D+00,  5.5D+00,  1.2D+00, r^2= 1.5D+01
   Bfn.  Coefficient  Atom+Function         Bfn.  Coefficient  Atom+Function  
  ----- ------------  ---------------      ----- ------------  ---------------
   505      2.160926  30 C  s               461     -2.128452  27 H  s         
   495     -2.115248  29 H  s               395      2.095202  24 C  py        
   471     -2.100265  28 N  s               460     -1.552366  27 H  s         
   234      1.510642  15 C  py              539      1.500530  32 C  s         
   445      1.437463  26 C  py              589     -1.263687  34 N  s         

 Vector   73  Occ=0.000000D+00  E= 3.301842D-02
              MO Center=  2.6D+00,  2.4D+00,  4.0D-01, r^2= 4.1D+01
   Bfn.  Coefficient  Atom+Function         Bfn.  Coefficient  Atom+Function  
  ----- ------------  ---------------      ----- ------------  ---------------
   461      4.021090  27 H  s               529     -3.373061  31 H  s         
   445     -3.151383  26 C  py              512      1.797726  30 C  px        
   513     -1.688561  30 C  py              395     -1.633218  24 C  py        
   148     -1.528627   9 C  py                3     -1.359836   1 H  s         
   174      1.349672  11 C  s               106     -1.335193   7 N  s         

 Vector   74  Occ=0.000000D+00  E= 3.737059D-02
              MO Center=  1.0D+00,  5.0D-01,  6.5D-01, r^2= 5.1D+01
   Bfn.  Coefficient  Atom+Function         Bfn.  Coefficient  Atom+Function  
  ----- ------------  ---------------      ----- ------------  ---------------
   539      3.582411  32 C  s               174      3.544452  11 C  s         
   589     -2.947314  34 N  s               106     -2.232847   7 N  s         
   148     -2.190040   9 C  py               56      2.060654   5 C  s         
   495      2.039601  29 H  s               226      1.962625  15 C  s         
   147      1.918951   9 C  px              395      1.884798  24 C  py        

 Vector   75  Occ=0.000000D+00  E= 4.447059D-02
              MO Center=  7.8D-01, -1.2D+00, -1.6D-01, r^2= 4.1D+01
   Bfn.  Coefficient  Atom+Function         Bfn.  Coefficient  Atom+Function  
  ----- ------------  ---------------      ----- ------------  ---------------
   148      2.397205   9 C  py              377     -2.313935  23 H  s         
    37      2.134991   3 H  s               353     -2.100966  21 C  pz        
   368     -2.047882  22 H  s               513     -2.024137  30 C  py        
   164     -1.601715  10 H  s               589     -1.574302  34 N  s         
   173     -1.492807  11 C  s               216      1.483126  14 H  s         

 Vector   76  Occ=0.000000D+00  E= 4.654597D-02
              MO Center= -4.9D-02,  1.3D+00,  1.2D+00, r^2= 4.9D+01
   Bfn.  Coefficient  Atom+Function         Bfn.  Coefficient  Atom+Function  
  ----- ------------  ---------------      ----- ------------  ---------------
   461     -3.010000  27 H  s               334      2.856268  20 H  s         
   319     -2.451166  19 C  pz               64     -2.003319   5 C  py        
   445      1.921796  26 C  py              368     -1.870505  22 H  s         
   613      1.739691  35 H  s                63      1.656166   5 C  px        
    12      1.600135   2 C  s               589      1.518217  34 N  s         

 Vector   77  Occ=0.000000D+00  E= 5.303605D-02
              MO Center= -1.1D+00, -1.2D+00, -3.4D-01, r^2= 3.8D+01
   Bfn.  Coefficient  Atom+Function         Bfn.  Coefficient  Atom+Function  
  ----- ------------  ---------------      ----- ------------  ---------------
   276      3.366675  17 N  s               377      2.263127  23 H  s         
   207      2.084904  13 H  s               173     -2.028875  11 C  s         
    63      1.977487   5 C  px              529     -1.945949  31 H  s         
   318      1.865339  19 C  py              147      1.842374   9 C  px        
    56     -1.703678   5 C  s                 3     -1.661127   1 H  s         

 Vector   78  Occ=0.000000D+00  E= 5.645284D-02
              MO Center=  7.0D-01, -5.0D-01,  4.6D-01, r^2= 6.0D+01
   Bfn.  Coefficient  Atom+Function         Bfn.  Coefficient  Atom+Function  
  ----- ------------  ---------------      ----- ------------  ---------------
    46      2.828375   4 H  s               461     -2.417191  27 H  s         
   613      2.172997  35 H  s               495      2.153977  29 H  s         
    64      1.941663   5 C  py              130     -1.930580   8 H  s         
   233      1.926121  15 C  px              216     -1.744769  14 H  s         
   226     -1.683712  15 C  s               437      1.647290  26 C  s         

 Vector   79  Occ=0.000000D+00  E= 6.095917D-02
              MO Center=  6.0D-01, -1.8D+00,  2.9D-01, r^2= 4.4D+01
   Bfn.  Coefficient  Atom+Function         Bfn.  Coefficient  Atom+Function  
  ----- ------------  ---------------      ----- ------------  ---------------
   174      4.674789  11 C  s                37      3.537199   3 H  s         
   539      3.305168  32 C  s               377      2.625165  23 H  s         
   334     -2.492969  20 H  s                 3     -2.080670   1 H  s         
   226     -2.065419  15 C  s                46     -1.958154   4 H  s         
   149     -1.858764   9 C  pz              368     -1.769755  22 H  s         

 Vector   80  Occ=0.000000D+00  E= 6.513264D-02
              MO Center= -7.9D-01, -3.6D-01,  5.1D-01, r^2= 4.1D+01
   Bfn.  Coefficient  Atom+Function         Bfn.  Coefficient  Atom+Function  
  ----- ------------  ---------------      ----- ------------  ---------------
   334      4.750130  20 H  s                13      3.478087   2 C  s         
   207     -3.356045  13 H  s               539     -3.028477  32 C  s         
   529     -2.997699  31 H  s                63     -2.967150   5 C  px        
   149      2.703092   9 C  pz              377      2.598812  23 H  s         
   319     -2.448353  19 C  pz               64      2.389294   5 C  py        

 Vector   81  Occ=0.000000D+00  E= 6.892168D-02
              MO Center=  1.4D+00, -2.1D+00, -7.7D-01, r^2= 4.6D+01
   Bfn.  Coefficient  Atom+Function         Bfn.  Coefficient  Atom+Function  
  ----- ------------  ---------------      ----- ------------  ---------------
    56      5.066282   5 C  s                46      4.309173   4 H  s         
   226     -4.195258  15 C  s               148      2.987554   9 C  py        
   513      2.945343  30 C  py              318     -2.832206  19 C  py        
    64      2.751305   5 C  py              529      2.764303  31 H  s         
   539      2.556295  32 C  s               130     -2.347438   8 H  s         

 Vector   82  Occ=0.000000D+00  E= 7.252613D-02
              MO Center=  1.1D-01, -5.4D-01,  8.6D-01, r^2= 4.4D+01
   Bfn.  Coefficient  Atom+Function         Bfn.  Coefficient  Atom+Function  
  ----- ------------  ---------------      ----- ------------  ---------------
   226      3.973706  15 C  s               174     -3.428285  11 C  s         
   207     -3.095714  13 H  s               216      2.989691  14 H  s         
     3      2.943520   1 H  s               395      2.957697  24 C  py        
   529     -2.906234  31 H  s               164     -2.640306  10 H  s         
   622     -2.516657  36 H  s               368      2.467237  22 H  s         

 Vector   83  Occ=0.000000D+00  E= 7.779167D-02
              MO Center=  5.4D-01,  8.2D-02, -1.3D+00, r^2= 3.7D+01
   Bfn.  Coefficient  Atom+Function         Bfn.  Coefficient  Atom+Function  
  ----- ------------  ---------------      ----- ------------  ---------------
   368      9.305937  22 H  s               377     -5.868409  23 H  s         
    13      5.703165   2 C  s               351     -4.621683  21 C  px        
   539     -3.716013  32 C  s               352      3.215543  21 C  py        
    56     -3.126407   5 C  s               198     -2.981989  12 H  s         
   334     -2.752850  20 H  s               547     -2.680781  32 C  py        

 Vector   84  Occ=0.000000D+00  E= 8.206385D-02
              MO Center=  3.3D-01, -2.2D+00,  5.6D-01, r^2= 4.5D+01
   Bfn.  Coefficient  Atom+Function         Bfn.  Coefficient  Atom+Function  
  ----- ------------  ---------------      ----- ------------  ---------------
    13      5.637054   2 C  s               140     -4.309529   9 C  s         
   234      3.969233  15 C  py              216      3.851873  14 H  s         
    46      3.717323   4 H  s               226     -3.710429  15 C  s         
   368     -3.652329  22 H  s               622     -3.427328  36 H  s         
   164      3.351794  10 H  s               198     -3.024567  12 H  s         

 Vector   85  Occ=0.000000D+00  E= 8.383689D-02
              MO Center= -6.3D-01, -6.1D-01,  3.9D-01, r^2= 4.6D+01
   Bfn.  Coefficient  Atom+Function         Bfn.  Coefficient  Atom+Function  
  ----- ------------  ---------------      ----- ------------  ---------------
   377     -3.442457  23 H  s               198      3.347547  12 H  s         
   207     -3.245391  13 H  s               368      3.014528  22 H  s         
   234     -2.923426  15 C  py               37      2.769467   3 H  s         
   334      2.627665  20 H  s               318     -2.441518  19 C  py        
     3     -2.376445   1 H  s               106     -2.243057   7 N  s         

 Vector   86  Occ=0.000000D+00  E= 9.109338D-02
              MO Center=  3.0D-01,  7.1D-01,  3.6D-01, r^2= 4.5D+01
   Bfn.  Coefficient  Atom+Function         Bfn.  Coefficient  Atom+Function  
  ----- ------------  ---------------      ----- ------------  ---------------
   539      7.264545  32 C  s               387     -6.462623  24 C  s         
   334      4.880700  20 H  s               226     -4.657462  15 C  s         
    13     -4.251352   2 C  s               207      3.943308  13 H  s         
   174      3.650804  11 C  s               395      3.663642  24 C  py        
   351      3.580653  21 C  px              319     -3.464764  19 C  pz        

 Vector   87  Occ=0.000000D+00  E= 9.262310D-02
              MO Center= -2.3D-02,  9.6D-01,  2.2D-01, r^2= 4.7D+01
   Bfn.  Coefficient  Atom+Function         Bfn.  Coefficient  Atom+Function  
  ----- ------------  ---------------      ----- ------------  ---------------
   622      6.067826  36 H  s               226      4.790278  15 C  s         
   164      4.645151  10 H  s                13     -4.328729   2 C  s         
   216      3.478977  14 H  s               276     -3.398523  17 N  s         
   387     -3.382068  24 C  s               207     -3.027699  13 H  s         
   149      2.820739   9 C  pz              130     -2.643139   8 H  s         

 Vector   88  Occ=0.000000D+00  E= 9.983080D-02
              MO Center= -2.3D-01, -1.3D+00,  6.7D-01, r^2= 4.3D+01
   Bfn.  Coefficient  Atom+Function         Bfn.  Coefficient  Atom+Function  
  ----- ------------  ---------------      ----- ------------  ---------------
   198      6.571666  12 H  s               130      5.680147   8 H  s         
   234      5.186918  15 C  py              300     -4.811346  18 H  s         
   318      3.878099  19 C  py              387     -3.842954  24 C  s         
   394      3.856041  24 C  px              622      3.721851  36 H  s         
   334     -3.416928  20 H  s               207     -3.353302  13 H  s         

 Vector   89  Occ=0.000000D+00  E= 1.114148D-01
              MO Center=  1.1D+00,  1.6D+00,  1.8D-01, r^2= 3.9D+01
   Bfn.  Coefficient  Atom+Function         Bfn.  Coefficient  Atom+Function  
  ----- ------------  ---------------      ----- ------------  ---------------
    56     -9.620356   5 C  s                13      9.512147   2 C  s         
   387      8.713070  24 C  s               539     -7.438396  32 C  s         
   226     -6.280034  15 C  s               317     -6.211673  19 C  px        
   471      5.157108  28 N  s               310     -4.676852  19 C  s         
   140     -4.465219   9 C  s               148      4.428111   9 C  py        

 Vector   90  Occ=0.000000D+00  E= 1.126110D-01
              MO Center= -2.4D-01,  6.9D-01,  4.9D-01, r^2= 4.0D+01
   Bfn.  Coefficient  Atom+Function         Bfn.  Coefficient  Atom+Function  
  ----- ------------  ---------------      ----- ------------  ---------------
    13      9.352893   2 C  s               539     -8.589272  32 C  s         
    56     -8.506778   5 C  s               622      7.255679  36 H  s         
   300      4.749940  18 H  s               164     -4.713267  10 H  s         
   174      4.312420  11 C  s               387      4.072810  24 C  s         
   613     -3.808866  35 H  s               351     -3.429798  21 C  px        

 Vector   91  Occ=0.000000D+00  E= 1.177460D-01
              MO Center=  1.2D+00, -1.7D+00, -6.6D-01, r^2= 4.1D+01
[...]
   539     -6.694858  32 C  s                56     -6.232281   5 C  s         
   505     -6.077943  30 C  s                12      5.609924   2 C  s         
   368     -5.507816  22 H  s               437      5.414502  26 C  s         
   234      5.201348  15 C  py              318      5.066594  19 C  py        

 Vector  181  Occ=0.000000D+00  E= 4.431791D-01
              MO Center=  2.4D-01, -1.9D+00,  1.6D-01, r^2= 2.9D+01
   Bfn.  Coefficient  Atom+Function         Bfn.  Coefficient  Atom+Function  
  ----- ------------  ---------------      ----- ------------  ---------------
    56      7.507057   5 C  s               276      7.339154  17 N  s         
   148     -6.493259   9 C  py              226     -6.168390  15 C  s         
   539      5.638585  32 C  s               114      5.557179   7 N  py        
   113     -4.719978   7 N  px              318     -4.571256  19 C  py        
   164     -4.501071  10 H  s               106     -4.378797   7 N  s         

 Vector  182  Occ=0.000000D+00  E= 4.457271D-01
              MO Center=  2.5D-02,  4.1D-01,  3.0D-03, r^2= 2.7D+01
   Bfn.  Coefficient  Atom+Function         Bfn.  Coefficient  Atom+Function  
  ----- ------------  ---------------      ----- ------------  ---------------
   387     18.206861  24 C  s                56    -14.248337   5 C  s         
   539    -13.784353  32 C  s                13     12.756688   2 C  s         
   276     11.672871  17 N  s               317    -11.570569  19 C  px        
   437    -11.358741  26 C  s               589      8.428222  34 N  s         
   173     -8.360078  11 C  s               471     -6.447889  28 N  s         

 Vector  183  Occ=0.000000D+00  E= 4.518642D-01
              MO Center=  6.8D-01, -2.4D+00, -1.5D-01, r^2= 2.6D+01
   Bfn.  Coefficient  Atom+Function         Bfn.  Coefficient  Atom+Function  
  ----- ------------  ---------------      ----- ------------  ---------------
   539      7.895822  32 C  s               412      7.623910  25 N  s         
   317      7.380305  19 C  px               56      6.278688   5 C  s         
   387     -6.061250  24 C  s               114      5.048991   7 N  py        
     2      4.820427   1 H  s                13     -4.568682   2 C  s         
    45      4.579769   4 H  s               174     -4.175487  11 C  s         

 Vector  184  Occ=0.000000D+00  E= 4.571350D-01
              MO Center= -2.0D-01, -1.6D+00, -3.6D-01, r^2= 2.3D+01
   Bfn.  Coefficient  Atom+Function         Bfn.  Coefficient  Atom+Function  
  ----- ------------  ---------------      ----- ------------  ---------------
   149     13.750225   9 C  pz              148     10.602581   9 C  py        
   276    -10.549451  17 N  s               284     10.025755  17 N  py        
   174     -8.747993  11 C  s               235     -8.734699  15 C  pz        
   539     -8.288069  32 C  s               106      8.017107   7 N  s         
   226      6.194910  15 C  s               164      6.019544  10 H  s         

 Vector  185  Occ=0.000000D+00  E= 4.610687D-01
              MO Center=  2.7D-01,  3.8D-01,  3.3D-01, r^2= 2.4D+01
   Bfn.  Coefficient  Atom+Function         Bfn.  Coefficient  Atom+Function  
  ----- ------------  ---------------      ----- ------------  ---------------
   539     17.060962  32 C  s               318    -15.214785  19 C  py        
    56     12.761490   5 C  s                13    -12.474312   2 C  s         
   437    -11.231890  26 C  s               505      8.770324  30 C  s         
   226     -7.526295  15 C  s               114      7.441735   7 N  py        
   148     -7.306444   9 C  py              215     -6.501002  14 H  s         

 Vector  186  Occ=0.000000D+00  E= 4.651376D-01
              MO Center= -7.0D-01, -5.2D-01,  3.7D-03, r^2= 2.6D+01
   Bfn.  Coefficient  Atom+Function         Bfn.  Coefficient  Atom+Function  
  ----- ------------  ---------------      ----- ------------  ---------------
   539     18.305762  32 C  s               387    -14.231125  24 C  s         
   174     14.000440  11 C  s                56     12.474737   5 C  s         
   284     12.452169  17 N  py              352     11.872953  21 C  py        
   318    -11.308532  19 C  py              148     10.749875   9 C  py        
    13     -9.871559   2 C  s               173      9.520102  11 C  s         

 Vector  187  Occ=0.000000D+00  E= 4.674740D-01
              MO Center=  3.4D-01,  1.1D-01, -1.3D-01, r^2= 2.5D+01
   Bfn.  Coefficient  Atom+Function         Bfn.  Coefficient  Atom+Function  
  ----- ------------  ---------------      ----- ------------  ---------------
   539     18.941126  32 C  s                56     13.568214   5 C  s         
   226    -13.409766  15 C  s               437    -11.432349  26 C  s         
   395      9.414547  24 C  py              589     -9.037529  34 N  s         
   148      8.966147   9 C  py              387     -9.007068  24 C  s         
   505      8.537560  30 C  s               351      8.305298  21 C  px        

 Vector  188  Occ=0.000000D+00  E= 4.707861D-01
              MO Center= -7.2D-01, -1.8D+00,  1.6D-01, r^2= 2.2D+01
   Bfn.  Coefficient  Atom+Function         Bfn.  Coefficient  Atom+Function  
  ----- ------------  ---------------      ----- ------------  ---------------
   174     26.870129  11 C  s               226    -22.260767  15 C  s         
   539     15.356515  32 C  s               276     13.039889  17 N  s         
   140    -11.975267   9 C  s               147     11.420222   9 C  px        
    13     10.919572   2 C  s               589    -10.797519  34 N  s         
   173      9.862190  11 C  s               387     -9.767765  24 C  s         

 Vector  189  Occ=0.000000D+00  E= 4.720923D-01
              MO Center=  8.6D-01,  1.1D+00, -2.6D-02, r^2= 2.5D+01
   Bfn.  Coefficient  Atom+Function         Bfn.  Coefficient  Atom+Function  
  ----- ------------  ---------------      ----- ------------  ---------------
   437     16.767242  26 C  s               226     16.119588  15 C  s         
   505    -10.969971  30 C  s               387     -9.845123  24 C  s         
   284      9.577239  17 N  py              114     -7.944390   7 N  py        
   344     -7.657551  21 C  s               140      7.595090   9 C  s         
    13     -6.980289   2 C  s               539     -6.814643  32 C  s         

 Vector  190  Occ=0.000000D+00  E= 4.793023D-01
              MO Center=  1.7D-01, -3.0D-01, -4.1D-02, r^2= 2.4D+01
   Bfn.  Coefficient  Atom+Function         Bfn.  Coefficient  Atom+Function  
  ----- ------------  ---------------      ----- ------------  ---------------
   226     29.754694  15 C  s                13    -17.435919   2 C  s         
   148    -16.157967   9 C  py              140     15.918514   9 C  s         
   106    -13.243171   7 N  s               276    -10.359702  17 N  s         
   387     10.111867  24 C  s               539     -9.850750  32 C  s         
   412     -8.800415  25 N  s                63      8.148550   5 C  px        

 Vector  191  Occ=0.000000D+00  E= 4.836233D-01
              MO Center=  1.3D-01,  8.3D-01,  8.0D-02, r^2= 2.4D+01
   Bfn.  Coefficient  Atom+Function         Bfn.  Coefficient  Atom+Function  
  ----- ------------  ---------------      ----- ------------  ---------------
   226     15.958597  15 C  s               174      8.519459  11 C  s         
    56     -8.183345   5 C  s               318      7.888441  19 C  py        
   276     -7.527980  17 N  s               234      7.473406  15 C  py        
   539     -7.284550  32 C  s               367      6.502240  22 H  s         
   352      6.030972  21 C  py              113      5.794867   7 N  px        

 Vector  192  Occ=0.000000D+00  E= 4.896026D-01
              MO Center=  2.6D-01,  1.5D+00, -6.2D-02, r^2= 2.4D+01
   Bfn.  Coefficient  Atom+Function         Bfn.  Coefficient  Atom+Function  
  ----- ------------  ---------------      ----- ------------  ---------------
   539    -20.171734  32 C  s               387     20.064516  24 C  s         
    13     17.056151   2 C  s                56    -15.045706   5 C  s         
   226     11.652628  15 C  s               317    -10.415789  19 C  px        
   412    -10.418704  25 N  s               395     -8.511608  24 C  py        
   234      8.370206  15 C  py               12      7.567045   2 C  s         

 Vector  193  Occ=0.000000D+00  E= 4.919776D-01
              MO Center= -2.4D-01, -5.1D-01,  1.9D-01, r^2= 2.2D+01
   Bfn.  Coefficient  Atom+Function         Bfn.  Coefficient  Atom+Function  
  ----- ------------  ---------------      ----- ------------  ---------------
   174     12.712782  11 C  s               148     11.535187   9 C  py        
   226     -7.267766  15 C  s               284      6.721159  17 N  py        
   113      6.654167   7 N  px              233      6.143044  15 C  px        
   528      5.672739  31 H  s               353     -5.138145  21 C  pz        
    56     -4.926222   5 C  s               140     -4.945097   9 C  s         

 Vector  194  Occ=0.000000D+00  E= 4.939646D-01
              MO Center=  2.4D-01, -2.5D+00,  3.2D-01, r^2= 2.0D+01
   Bfn.  Coefficient  Atom+Function         Bfn.  Coefficient  Atom+Function  
  ----- ------------  ---------------      ----- ------------  ---------------
   174      9.995306  11 C  s                13     -8.170249   2 C  s         
   163     -7.563842  10 H  s               206     -6.952022  13 H  s         
   539      6.528173  32 C  s               387     -6.452871  24 C  s         
   317      6.298805  19 C  px              173      5.848937  11 C  s         
   114     -5.706767   7 N  py               64     -5.111843   5 C  py        

 Vector  195  Occ=0.000000D+00  E= 4.950886D-01
              MO Center= -2.2D-01, -2.1D-01,  3.1D-02, r^2= 2.2D+01
   Bfn.  Coefficient  Atom+Function         Bfn.  Coefficient  Atom+Function  
  ----- ------------  ---------------      ----- ------------  ---------------
   226     33.861196  15 C  s               174    -17.717001  11 C  s         
   140     14.143361   9 C  s               148    -12.604557   9 C  py        
   437    -12.214592  26 C  s               344     -9.880324  21 C  s         
   539     -9.818347  32 C  s               317     -8.301520  19 C  px        
   284      8.224626  17 N  py              395      7.970711  24 C  py        

 Vector  196  Occ=0.000000D+00  E= 4.966945D-01
              MO Center=  5.0D-01,  1.6D+00,  2.7D-01, r^2= 2.4D+01
   Bfn.  Coefficient  Atom+Function         Bfn.  Coefficient  Atom+Function  
  ----- ------------  ---------------      ----- ------------  ---------------
   226     11.329666  15 C  s                56     -8.194568   5 C  s         
   539     -8.115186  32 C  s               318      6.879464  19 C  py        
   114     -6.109226   7 N  py              276     -6.022730  17 N  s         
   197     -5.967212  12 H  s               505     -5.394002  30 C  s         
   284      4.918585  17 N  py              173      4.634066  11 C  s         

 Vector  197  Occ=0.000000D+00  E= 5.028678D-01
              MO Center= -1.1D+00, -2.3D+00,  6.8D-01, r^2= 1.8D+01
   Bfn.  Coefficient  Atom+Function         Bfn.  Coefficient  Atom+Function  
  ----- ------------  ---------------      ----- ------------  ---------------
   276    -10.182358  17 N  s               226      9.628702  15 C  s         
   215      7.222241  14 H  s                13      7.127219   2 C  s         
   174     -6.417829  11 C  s               539     -6.339826  32 C  s         
   589      5.744790  34 N  s               387      5.682216  24 C  s         
   181     -5.407217  11 C  px              216      5.236825  14 H  s         


 center of mass
 --------------
 x =  -0.02211476 y =   0.06070012 z =  -0.02054980

 moments of inertia (a.u.)
 ------------------
       10856.742688033848           0.000000000004          -0.000000000001
           0.000000000004        2788.697203981113          -0.000000000002
          -0.000000000001          -0.000000000002       13011.641595538844

  Mulliken analysis of the total density
  --------------------------------------

    Atom       Charge   Shell Charges
 -----------   ------   -------------------------------------------------------
    1 H    1     0.85   0.76  0.11  0.00  0.03 -0.06
    2 C    6     6.32   2.01  0.66  0.23  0.19  2.06  1.04 -0.03  0.06  0.10
    3 H    1     0.86   0.76  0.13 -0.00  0.03 -0.06
    4 H    1     1.00   0.76  0.24  0.01  0.03 -0.05
    5 C    6     5.11   2.01  0.68  0.11 -0.07  1.90  0.31 -0.08  0.24  0.02
    6 O    8     8.70   2.01  0.82  0.99  0.15  2.79  1.82  0.14  0.01 -0.02
    7 N    7     7.50   2.01  0.72  0.85 -0.12  2.46  1.44  0.04  0.05  0.05
    8 H    1     1.02   0.75  0.24 -0.00  0.06 -0.03
    9 C    6     6.48   2.01  0.66  0.17  0.11  2.00  1.43 -0.16  0.14  0.13
   10 H    1     1.14   0.78  0.33  0.01  0.03 -0.00
   11 C    6     5.59   2.01  0.67  0.18  0.18  2.04  0.47 -0.01  0.07 -0.01
   12 H    1     0.89   0.77  0.15  0.01  0.03 -0.07
   13 H    1     1.01   0.77  0.28  0.00  0.03 -0.06
   14 H    1     0.89   0.77  0.16  0.00  0.03 -0.07
   15 C    6     4.93   2.01  0.68 -0.01  0.24  1.88  0.09  0.09  0.23 -0.28
   16 O    8     8.83   2.01  0.82  1.02  0.16  2.79  1.87  0.16  0.01 -0.01
   17 N    7     7.48   2.01  0.72  0.92 -0.20  2.45  1.47  0.03  0.05  0.04
   18 H    1     1.00   0.75  0.23 -0.01  0.06 -0.03
   19 C    6     6.11   2.01  0.66  0.04  0.09  2.00  1.15  0.05  0.14 -0.01
   20 H    1     1.23   0.78  0.40 -0.02  0.03  0.04
   21 C    6     5.36   2.01  0.66 -0.02 -0.10  2.05  0.81 -0.07  0.09 -0.07
   22 H    1     1.13   0.78  0.38 -0.02  0.03 -0.04
   23 H    1     0.94   0.78  0.19 -0.01  0.03 -0.04
   24 C    6     5.65   2.01  0.66  0.10 -0.20  1.99  0.64  0.14  0.15  0.18
   25 N    7     8.09   2.01  0.76  1.05  0.11  2.27  1.69  0.08  0.05  0.08
   26 C    6     4.94   2.01  0.66  0.01 -0.08  1.96  0.43  0.01  0.14 -0.20
   27 H    1     1.35   0.77  0.52  0.01  0.03  0.02
   28 N    7     7.65   2.01  0.73  0.97 -0.05  2.43  1.43 -0.04  0.06  0.11
   29 H    1     1.03   0.76  0.22 -0.00  0.05 -0.01
   30 C    6     5.03   2.01  0.66  0.08 -0.03  2.02  0.39  0.02  0.11 -0.22
   31 H    1     1.33   0.76  0.52  0.03  0.03 -0.01
   32 C    6     4.77   2.01  0.68  0.08  0.10  1.89 -0.09 -0.02  0.23 -0.12
   33 O    8     8.80   2.01  0.82  1.03  0.16  2.79  1.84  0.14  0.01 -0.00
   34 N    7     7.13   2.01  0.72  0.82 -0.21  2.47  1.24  0.08  0.04 -0.03
   35 H    1     1.00   0.75  0.22 -0.00  0.05 -0.02
   36 H    1     0.90   0.73  0.22 -0.03  0.06 -0.08

       Multipole analysis of the density wrt the origin
       ------------------------------------------------

     L   x y z        total         open         nuclear
     -   - - -        -----         ----         -------
     0   0 0 0     -0.000000      0.000000    142.000000

     1   1 0 0      2.221546      0.000000     -0.000000
     1   0 1 0      2.383325      0.000000      0.000000
     1   0 0 1      1.115764      0.000000      0.000000

     2   2 0 0    -79.753644      0.000000   1360.148254
     2   1 1 0      4.555458      0.000000    -18.056778
     2   1 0 1     -0.264517      0.000000     -4.955243
     2   0 2 0    -77.068126      0.000000   5695.730017
     2   0 1 1     -2.129706      0.000000    -15.493258
     2   0 0 2    -87.514324      0.000000    188.338226


 Task  times  cpu:     5038.5s     wall:     5392.4s


                                NWChem Input Module
                                -------------------


 Summary of allocated global arrays
-----------------------------------
  No active global arrays


MA_summarize_allocated_blocks: starting scan ...
MA_summarize_allocated_blocks: scan completed: 0 heap blocks, 0 stack blocks
MA usage statistics:

	allocation statistics:
					      heap	     stack
					      ----	     -----
	current number of blocks	         0	         0
	maximum number of blocks	        16	        14
	current total bytes		         0	         0
	maximum total bytes		    132856	  28811304
	maximum total K-bytes		       133	     28812
	maximum total M-bytes		         1	        29


                                     CITATION
                                     --------
                Please cite the following reference when publishing
                           results obtained with NWChem:

          E. Apra, E. J. Bylaska, W. A. de Jong, N. Govind, K. Kowalski,
       T. P. Straatsma, M. Valiev, H. J. J. van Dam, Y. Alexeev, J. Anchell,
       V. Anisimov, F. W. Aquino, R. Atta-Fynn, J. Autschbach, N. P. Bauman,
     J. C. Becca, D. E. Bernholdt, K. Bhaskaran-Nair, S. Bogatko, P. Borowski,
         J. Boschen, J. Brabec, A. Bruner, E. Cauet, Y. Chen, G. N. Chuev,
      C. J. Cramer, J. Daily, M. J. O. Deegan, T. H. Dunning Jr., M. Dupuis,
   K. G. Dyall, G. I. Fann, S. A. Fischer, A. Fonari, H. Fruchtl, L. Gagliardi,
      J. Garza, N. Gawande, S. Ghosh, K. Glaesemann, A. W. Gotz, J. Hammond,
       V. Helms, E. D. Hermes, K. Hirao, S. Hirata, M. Jacquelin, L. Jensen,
   B. G. Johnson, H. Jonsson, R. A. Kendall, M. Klemm, R. Kobayashi, V. Konkov,
      S. Krishnamoorthy, M. Krishnan, Z. Lin, R. D. Lins, R. J. Littlefield,
      A. J. Logsdail, K. Lopata, W. Ma, A. V. Marenich, J. Martin del Campo,
   D. Mejia-Rodriguez, J. E. Moore, J. M. Mullin, T. Nakajima, D. R. Nascimento,
    J. A. Nichols, P. J. Nichols, J. Nieplocha, A. Otero-de-la-Roza, B. Palmer,
    A. Panyala, T. Pirojsirikul, B. Peng, R. Peverati, J. Pittner, L. Pollack,
   R. M. Richard, P. Sadayappan, G. C. Schatz, W. A. Shelton, D. W. Silverstein,
   D. M. A. Smith, T. A. Soares, D. Song, M. Swart, H. L. Taylor, G. S. Thomas,
            V. Tipparaju, D. G. Truhlar, K. Tsemekhman, T. Van Voorhis,
      A. Vazquez-Mayagoitia, P. Verma, O. Villa, A. Vishnu, K. D. Vogiatzis,
        D. Wang, J. H. Weare, M. J. Williamson, T. L. Windus, K. Wolinski,
        A. T. Wong, Q. Wu, C. Yang, Q. Yu, M. Zacharias, Z. Zhang, Y. Zhao,
                                and R. J. Harrison
                        "NWChem: Past, present, and future
                         J. Chem. Phys. 152, 184102 (2020)
                               doi:10.1063/5.0004997

                                      AUTHORS
                                      -------
  E. Apra, E. J. Bylaska, N. Govind, K. Kowalski, M. Valiev, D. Mejia-Rodriguez,
       A. Kunitsa, N. P. Bauman, A. Panyala, W. A. de Jong, T. P. Straatsma,
   H. J. J. van Dam, D. Wang, T. L. Windus, J. Hammond, J. Autschbach, A. Woods,
    K. Bhaskaran-Nair, J. Brabec, K. Lopata, S. A. Fischer, S. Krishnamoorthy,
     M. Jacquelin, W. Ma, M. Klemm, O. Villa, Y. Chen, V. Anisimov, F. Aquino,
     S. Hirata, M. T. Hackler, E. Hermes, L. Jensen, J. E. Moore, J. C. Becca,
      V. Konjkov, T. Risthaus, M. Malagoli, A. Marenich, A. Otero-de-la-Roza,
        J. Mullin, P. Nichols, R. Peverati, J. Pittner, Y. Zhao, P.-D. Fan,
        A. Fonari, M. J. Williamson, R. J. Harrison, J. R. Rehr, M. Dupuis,
     D. Silverstein, D. M. A. Smith, J. Nieplocha, V. Tipparaju, M. Krishnan,
     B. E. Van Kuiken, A. Vazquez-Mayagoitia, M. Swart, Q. Wu, T. Van Voorhis,
     A. A. Auer, M. Nooijen, L. D. Crosby, E. Brown, G. Cisneros, G. I. Fann,
   H. Fruchtl, J. Garza, K. Hirao, R. A. Kendall, J. A. Nichols, K. Tsemekhman,
    K. Wolinski, J. Anchell, D. E. Bernholdt, P. Borowski, T. Clark, D. Clerc,
   H. Dachsel, M. J. O. Deegan, K. Dyall, D. Elwood, E. Glendening, M. Gutowski,
   A. C. Hess, J. Jaffe, B. G. Johnson, J. Ju, R. Kobayashi, R. Kutteh, Z. Lin,
   R. Littlefield, X. Long, B. Meng, T. Nakajima, S. Niu, L. Pollack, M. Rosing,
   K. Glaesemann, G. Sandrone, M. Stave, H. Taylor, G. Thomas, J. H. van Lenthe,
                               A. T. Wong, Z. Zhang.

 Total times  cpu:     5038.5s     wall:     5392.9s
