export TMOUT=5400
export TMPDIR=/tmp
export PTMPDIR=/tmp/ptmp
 argument  1 = ALA_PRO_5.nw
                                         
                                         


             Northwest Computational Chemistry Package (NWChem) 7.2.0
             --------------------------------------------------------


                    Environmental Molecular Sciences Laboratory
                       Pacific Northwest National Laboratory
                                Richland, WA 99352

                              Copyright (c) 1994-2022
                       Pacific Northwest National Laboratory
                            Battelle Memorial Institute

             NWChem is an open-source computational chemistry package
                        distributed under the terms of the
                      Educational Community License (ECL) 2.0
             A copy of the license is included with this distribution
                              in the LICENSE.TXT file

                                  ACKNOWLEDGMENT
                                  --------------

            This software and its documentation were developed at the
            EMSL at Pacific Northwest National Laboratory, a multiprogram
            national laboratory, operated for the U.S. Department of Energy
            by Battelle under Contract Number DE-AC05-76RL01830. Support
            for this work was provided by the Department of Energy Office
            of Biological and Environmental Research, Office of Basic
            Energy Sciences, and the Office of Advanced Scientific Computing.


           Job information
           ---------------

    hostname        = nova18-41
    program         = /opt/rit/el9/20230413/app/linux-rhel9-x86_64_v3/gcc-11.2.1/nwchem-7.2.0-oxtctbuhfuzyfaoziquq6bki22grib3g/bin/nwchem
    date            = Mon Jun 30 16:13:17 2025

    compiled        = Wed_May_17_23:46:39_2023
    source          = /tmp/root/spack-stage/spack-stage-nwchem-7.2.0-oxtctbuhfuzyfaoziquq6bki22grib3g/spack-src
    nwchem branch   = 7.2.0
    nwchem revision = d0d141fd
    ga revision     = 5.8.0
    use scalapack   = T
    input           = ALA_PRO_5.nw
    prefix          = ALA_PRO_5.
    data base       = ./ALA_PRO_5.db
    status          = startup
    nproc           =        8
    time left       =     -1s



           Memory information
           ------------------

    heap     =   26214400 doubles =    200.0 Mbytes
    stack    =   26214397 doubles =    200.0 Mbytes
    global   =   52428800 doubles =    400.0 Mbytes (distinct from heap & stack)
    total    =  104857597 doubles =    800.0 Mbytes
    verify   = yes
    hardfail = no 


           Directory information
           ---------------------

  0 permanent = .
  0 scratch   = .




                                NWChem Input Module
                                -------------------



 Scaling coordinates for geometry "geometry" by  1.889725989
 (inverse scale =  0.529177249)

 C1  symmetry detected

          ------
          auto-z
          ------
  no constraints, skipping    0.0000000000000000     
  no constraints, skipping    0.0000000000000000     


                             Geometry "geometry" -> ""
                             -------------------------

 Output coordinates in angstroms (scale by  1.889725989 to convert to a.u.)

  No.       Tag          Charge          X              Y              Z
 ---- ---------------- ---------- -------------- -------------- --------------
    1 H                    1.0000    -1.32154848    -4.61652935     1.71259632
    2 C                    6.0000    -0.94959842    -4.90607025     0.73150141
    3 H                    1.0000    -1.78101083    -5.02791306     0.03943441
    4 H                    1.0000    -0.39883062    -5.84238429     0.80934641
    5 C                    6.0000    -0.02082667    -3.83422482     0.21171645
    6 O                    8.0000     1.14640689    -4.10315099    -0.04201872
    7 N                    7.0000    -0.54016194    -2.61777431     0.06431893
    8 H                    1.0000    -1.50321541    -2.46635057     0.32321828
    9 C                    6.0000     0.19323997    -1.45162994    -0.42661585
   10 H                    1.0000     1.24229280    -1.55753154    -0.14843063
   11 C                    6.0000     0.09322965    -1.42362088    -1.95981982
   12 H                    1.0000    -0.95325631    -1.35237194    -2.26257340
   13 H                    1.0000     0.63186633    -0.56346534    -2.35785497
   14 H                    1.0000     0.52688515    -2.33342488    -2.37518059
   15 C                    6.0000    -0.35654060    -0.15103183     0.19994610
   16 O                    8.0000    -1.53514462    -0.11161304     0.56695118
   17 N                    7.0000     0.45533171     0.91589936     0.33585114
   18 C                    6.0000     1.87281776     0.98514958     0.00562136
   19 H                    1.0000     2.07917604     0.57488774    -0.98388886
   20 H                    1.0000     2.44683578     0.44869975     0.76175025
   21 C                    6.0000     2.23791387     2.46903229     0.03727455
   22 H                    1.0000     2.06807198     2.91042625    -0.94677327
   23 H                    1.0000     3.27054853     2.62509216     0.35271070
   24 C                    6.0000     1.24145163     3.04860967     1.04256410
   25 H                    1.0000     1.07482636     4.11426832     0.87875116
   26 H                    1.0000     1.60552249     2.87161955     2.05515528
   27 C                    6.0000    -0.02212106     2.21669710     0.80199285
   28 H                    1.0000    -0.56038553     2.09827074     1.74357533
   29 C                    6.0000    -0.95586245     2.87357047    -0.22844657
   30 O                    8.0000    -0.69795478     2.86183103    -1.42592927
   31 N                    7.0000    -2.03427970     3.49741219     0.22278699
   32 H                    1.0000    -2.25505329     3.48790687     1.20371088
   33 H                    1.0000    -2.64763748     3.92461456    -0.45267979

      Atomic Mass 
      ----------- 

      H                  1.007825
      C                 12.000000
      O                 15.994910
      N                 14.003070


 Effective nuclear repulsion energy (a.u.)    1170.2868226298

            Nuclear Dipole moment (a.u.) 
            ----------------------------
        X                 Y               Z
 ---------------- ---------------- ----------------
    -0.0000000000    -0.0000000000     0.0000000000



                                Z-matrix (autoz)
                                -------- 

 Units are Angstrom for bonds and degrees for angles

      Type          Name      I     J     K     L     M      Value
      ----------- --------  ----- ----- ----- ----- ----- ----------
    1 Stretch                  1     2                       1.08845
    2 Stretch                  2     3                       1.08860
    3 Stretch                  2     4                       1.08908
    4 Stretch                  2     5                       1.51051
    5 Stretch                  5     6                       1.22439
    6 Stretch                  5     7                       1.33086
    7 Stretch                  7     8                       1.00868
    8 Stretch                  7     9                       1.46246
    9 Stretch                  9    10                       1.09047
   10 Stretch                  9    11                       1.53672
   11 Stretch                  9    15                       1.54480
   12 Stretch                 11    12                       1.09173
   13 Stretch                 11    13                       1.09015
   14 Stretch                 11    14                       1.09010
   15 Stretch                 15    16                       1.23505
   16 Stretch                 15    17                       1.34757
   17 Stretch                 17    18                       1.45709
   18 Stretch                 17    27                       1.46196
   19 Stretch                 18    19                       1.09088
   20 Stretch                 18    20                       1.09042
   21 Stretch                 18    21                       1.52846
   22 Stretch                 21    22                       1.09180
   23 Stretch                 21    23                       1.09096
   24 Stretch                 21    24                       1.52953
   25 Stretch                 24    25                       1.09098
   26 Stretch                 24    26                       1.09051
   27 Stretch                 24    27                       1.53185
   28 Stretch                 27    28                       1.09102
   29 Stretch                 27    29                       1.53791
   30 Stretch                 29    30                       1.22500
   31 Stretch                 29    31                       1.32506
   32 Stretch                 31    32                       1.00551
   33 Stretch                 31    33                       1.00745
   34 Bend                     1     2     3               109.98777
   35 Bend                     1     2     4               109.69951
   36 Bend                     1     2     5               109.36155
   37 Bend                     2     5     6               120.10753
   38 Bend                     2     5     7               116.53618
   39 Bend                     3     2     4               109.60026
   40 Bend                     3     2     5               109.28465
   41 Bend                     4     2     5               108.88690
   42 Bend                     5     7     8               118.77449
   43 Bend                     5     7     9               124.77283
   44 Bend                     6     5     7               123.35434
   45 Bend                     7     9    10               108.62449
   46 Bend                     7     9    11               108.47074
   47 Bend                     7     9    15               110.89813
   48 Bend                     8     7     9               116.44001
   49 Bend                     9    11    12               109.89241
   50 Bend                     9    11    13               110.27399
   51 Bend                     9    11    14               109.81937
   52 Bend                     9    15    16               119.14510
   53 Bend                     9    15    17               119.54304
   54 Bend                    10     9    11               108.59658
   55 Bend                    10     9    15               108.70347
   56 Bend                    11     9    15               111.47905
   57 Bend                    12    11    13               108.71561
   58 Bend                    12    11    14               109.27660
   59 Bend                    13    11    14               108.83509
   60 Bend                    15    17    18               126.93202
   61 Bend                    15    17    27               122.67435
   62 Bend                    16    15    17               121.31186
   63 Bend                    17    18    19               111.82210
   64 Bend                    17    18    20               109.36437
   65 Bend                    17    18    21               105.89163
   66 Bend                    17    27    24               105.30131
   67 Bend                    17    27    28               109.85959
   68 Bend                    17    27    29               111.38829
   69 Bend                    18    17    27               110.34564
   70 Bend                    18    21    22               109.67387
   71 Bend                    18    21    23               111.77475
   72 Bend                    18    21    24               103.05393
   73 Bend                    19    18    20               110.14462
   74 Bend                    19    18    21               109.79842
   75 Bend                    20    18    21               109.72553
   76 Bend                    21    24    25               111.77394
   77 Bend                    21    24    26               109.34725
   78 Bend                    21    24    27               103.20183
   79 Bend                    22    21    23               110.48822
   80 Bend                    22    21    24               109.74601
   81 Bend                    23    21    24               111.86455
   82 Bend                    24    27    28               109.29111
   83 Bend                    24    27    29               111.96767
   84 Bend                    25    24    26               110.42296
   85 Bend                    25    24    27               112.39012
   86 Bend                    26    24    27               109.45508
   87 Bend                    27    29    30               121.53748
   88 Bend                    27    29    31               117.84354
   89 Bend                    28    27    29               108.96990
   90 Bend                    29    31    32               120.42826
   91 Bend                    29    31    33               117.82783
   92 Bend                    30    29    31               120.58068
   93 Bend                    32    31    33               121.62857
   94 Torsion                  1     2     5     6         119.72544
   95 Torsion                  1     2     5     7         -59.78422
   96 Torsion                  2     5     7     8           1.49356
   97 Torsion                  2     5     7     9        -179.85028
   98 Torsion                  3     2     5     6        -119.82357
   99 Torsion                  3     2     5     7          60.66677
  100 Torsion                  4     2     5     6          -0.13224
  101 Torsion                  4     2     5     7        -179.64190
  102 Torsion                  5     7     9    10         -29.93349
  103 Torsion                  5     7     9    11          87.93055
  104 Torsion                  5     7     9    15        -149.33323
  105 Torsion                  6     5     7     8        -177.99861
  106 Torsion                  6     5     7     9           0.65755
  107 Torsion                  7     9    11    12          60.19083
  108 Torsion                  7     9    11    13        -179.97893
  109 Torsion                  7     9    11    14         -60.04710
  110 Torsion                  7     9    15    16         -27.06333
  111 Torsion                  7     9    15    17         152.92963
  112 Torsion                  8     7     9    10         148.75101
  113 Torsion                  8     7     9    11         -93.38495
  114 Torsion                  8     7     9    15          29.35128
  115 Torsion                  9    15    17    18          -3.10433
  116 Torsion                  9    15    17    27         174.12728
  117 Torsion                 10     9    11    12         178.07264
  118 Torsion                 10     9    11    13         -62.09712
  119 Torsion                 10     9    11    14          57.83472
  120 Torsion                 10     9    15    16        -146.41567
  121 Torsion                 10     9    15    17          33.57728
  122 Torsion                 11     9    15    16          93.91295
  123 Torsion                 11     9    15    17         -86.09410
  124 Torsion                 12    11     9    15         -62.19273
  125 Torsion                 13    11     9    15          57.63751
  126 Torsion                 14    11     9    15         177.56934
  127 Torsion                 15    17    18    19          47.78253
  128 Torsion                 15    17    18    20         -74.49011
  129 Torsion                 15    17    18    21         167.34381
  130 Torsion                 15    17    27    24         170.30006
  131 Torsion                 15    17    27    28          52.71994
  132 Torsion                 15    17    27    29         -68.12102
  133 Torsion                 16    15    17    18         176.88846
  134 Torsion                 16    15    17    27          -5.87993
  135 Torsion                 17    18    21    22         -88.73235
  136 Torsion                 17    18    21    23         148.37303
  137 Torsion                 17    18    21    24          28.08917
  138 Torsion                 17    27    24    21          29.19681
  139 Torsion                 17    27    24    25         149.77551
  140 Torsion                 17    27    24    26         -87.14687
  141 Torsion                 17    27    29    30         -43.07201
  142 Torsion                 17    27    29    31         139.16732
  143 Torsion                 18    17    27    24         -12.05984
  144 Torsion                 18    17    27    28        -129.63996
  145 Torsion                 18    17    27    29         109.51907
  146 Torsion                 18    21    24    25        -155.76480
  147 Torsion                 18    21    24    26          81.65368
  148 Torsion                 18    21    24    27         -34.76656
  149 Torsion                 19    18    17    27        -129.73231
  150 Torsion                 19    18    21    22          32.14938
  151 Torsion                 19    18    21    23         -90.74524
  152 Torsion                 19    18    21    24         148.97090
  153 Torsion                 20    18    17    27         107.99505
  154 Torsion                 20    18    21    22         153.34224
  155 Torsion                 20    18    21    23          30.44762
  156 Torsion                 20    18    21    24         -89.83624
  157 Torsion                 21    18    17    27         -10.17103
  158 Torsion                 21    24    27    28         147.16080
  159 Torsion                 21    24    27    29         -92.00466
  160 Torsion                 22    21    24    25         -38.99446
  161 Torsion                 22    21    24    26        -161.57597
  162 Torsion                 22    21    24    27          82.00379
  163 Torsion                 23    21    24    25          84.01299
  164 Torsion                 23    21    24    26         -38.56852
  165 Torsion                 23    21    24    27        -154.98877
  166 Torsion                 24    27    29    30          74.54672
  167 Torsion                 24    27    29    31        -103.21395
  168 Torsion                 25    24    27    28         -92.26050
  169 Torsion                 25    24    27    29          28.57405
  170 Torsion                 26    24    27    28          30.81712
  171 Torsion                 26    24    27    29         151.65166
  172 Torsion                 27    29    31    32          -3.61305
  173 Torsion                 27    29    31    33        -179.77191
  174 Torsion                 28    27    29    30        -164.43277
  175 Torsion                 28    27    29    31          17.80656
  176 Torsion                 30    29    31    32         178.60386
  177 Torsion                 30    29    31    33           2.44500


            XYZ format geometry
            -------------------
    33
 geometry
 H                    -1.32154848    -4.61652935     1.71259632
 C                    -0.94959842    -4.90607025     0.73150141
 H                    -1.78101083    -5.02791306     0.03943441
 H                    -0.39883062    -5.84238429     0.80934641
 C                    -0.02082667    -3.83422482     0.21171645
 O                     1.14640689    -4.10315099    -0.04201872
 N                    -0.54016194    -2.61777431     0.06431893
 H                    -1.50321541    -2.46635057     0.32321828
 C                     0.19323997    -1.45162994    -0.42661585
 H                     1.24229280    -1.55753154    -0.14843063
 C                     0.09322965    -1.42362088    -1.95981982
 H                    -0.95325631    -1.35237194    -2.26257340
 H                     0.63186633    -0.56346534    -2.35785497
 H                     0.52688515    -2.33342488    -2.37518059
 C                    -0.35654060    -0.15103183     0.19994610
 O                    -1.53514462    -0.11161304     0.56695118
 N                     0.45533171     0.91589936     0.33585114
 C                     1.87281776     0.98514958     0.00562136
 H                     2.07917604     0.57488774    -0.98388886
 H                     2.44683578     0.44869975     0.76175025
 C                     2.23791387     2.46903229     0.03727455
 H                     2.06807198     2.91042625    -0.94677327
 H                     3.27054853     2.62509216     0.35271070
 C                     1.24145163     3.04860967     1.04256410
 H                     1.07482636     4.11426832     0.87875116
 H                     1.60552249     2.87161955     2.05515528
 C                    -0.02212106     2.21669710     0.80199285
 H                    -0.56038553     2.09827074     1.74357533
 C                    -0.95586245     2.87357047    -0.22844657
 O                    -0.69795478     2.86183103    -1.42592927
 N                    -2.03427970     3.49741219     0.22278699
 H                    -2.25505329     3.48790687     1.20371088
 H                    -2.64763748     3.92461456    -0.45267979

 ==============================================================================
                                internuclear distances
 ------------------------------------------------------------------------------
       center one      |      center two      | atomic units |  angstroms
 ------------------------------------------------------------------------------
    2 C                |   1 H                |     2.05688  |     1.08845
    3 H                |   2 C                |     2.05715  |     1.08860
    4 H                |   2 C                |     2.05806  |     1.08908
    5 C                |   2 C                |     2.85445  |     1.51051
    6 O                |   5 C                |     2.31377  |     1.22439
    7 N                |   5 C                |     2.51496  |     1.33086
    8 H                |   7 N                |     1.90612  |     1.00868
    9 C                |   7 N                |     2.76365  |     1.46246
   10 H                |   9 C                |     2.06068  |     1.09047
   11 C                |   9 C                |     2.90398  |     1.53672
   12 H                |  11 C                |     2.06307  |     1.09173
   13 H                |  11 C                |     2.06009  |     1.09015
   14 H                |  11 C                |     2.06000  |     1.09010
   15 C                |   9 C                |     2.91924  |     1.54480
   16 O                |  15 C                |     2.33391  |     1.23505
   17 N                |  15 C                |     2.54654  |     1.34757
   18 C                |  17 N                |     2.75350  |     1.45709
   19 H                |  18 C                |     2.06147  |     1.09088
   20 H                |  18 C                |     2.06059  |     1.09042
   21 C                |  18 C                |     2.88838  |     1.52846
   22 H                |  21 C                |     2.06320  |     1.09180
   23 H                |  21 C                |     2.06161  |     1.09096
   24 C                |  21 C                |     2.89039  |     1.52953
   25 H                |  24 C                |     2.06164  |     1.09098
   26 H                |  24 C                |     2.06077  |     1.09051
   27 C                |  17 N                |     2.76270  |     1.46196
   27 C                |  24 C                |     2.89478  |     1.53185
   28 H                |  27 C                |     2.06173  |     1.09102
   29 C                |  27 C                |     2.90622  |     1.53791
   30 O                |  29 C                |     2.31491  |     1.22500
   31 N                |  29 C                |     2.50399  |     1.32506
   32 H                |  31 N                |     1.90013  |     1.00551
   33 H                |  31 N                |     1.90381  |     1.00745
 ------------------------------------------------------------------------------
                         number of included internuclear distances:         33
 ==============================================================================



 ==============================================================================
                                 internuclear angles
 ------------------------------------------------------------------------------
        center 1       |       center 2       |       center 3       |  degrees
 ------------------------------------------------------------------------------
    1 H                |   2 C                |   3 H                |   109.99
    1 H                |   2 C                |   4 H                |   109.70
    1 H                |   2 C                |   5 C                |   109.36
    3 H                |   2 C                |   4 H                |   109.60
    3 H                |   2 C                |   5 C                |   109.28
    4 H                |   2 C                |   5 C                |   108.89
    2 C                |   5 C                |   6 O                |   120.11
    2 C                |   5 C                |   7 N                |   116.54
    6 O                |   5 C                |   7 N                |   123.35
    5 C                |   7 N                |   8 H                |   118.77
    5 C                |   7 N                |   9 C                |   124.77
    8 H                |   7 N                |   9 C                |   116.44
    7 N                |   9 C                |  10 H                |   108.62
    7 N                |   9 C                |  11 C                |   108.47
    7 N                |   9 C                |  15 C                |   110.90
   10 H                |   9 C                |  11 C                |   108.60
   10 H                |   9 C                |  15 C                |   108.70
   11 C                |   9 C                |  15 C                |   111.48
    9 C                |  11 C                |  12 H                |   109.89
    9 C                |  11 C                |  13 H                |   110.27
    9 C                |  11 C                |  14 H                |   109.82
   12 H                |  11 C                |  13 H                |   108.72
   12 H                |  11 C                |  14 H                |   109.28
   13 H                |  11 C                |  14 H                |   108.84
    9 C                |  15 C                |  16 O                |   119.15
    9 C                |  15 C                |  17 N                |   119.54
   16 O                |  15 C                |  17 N                |   121.31
   15 C                |  17 N                |  18 C                |   126.93
   15 C                |  17 N                |  27 C                |   122.67
   18 C                |  17 N                |  27 C                |   110.35
   17 N                |  18 C                |  19 H                |   111.82
   17 N                |  18 C                |  20 H                |   109.36
   17 N                |  18 C                |  21 C                |   105.89
   19 H                |  18 C                |  20 H                |   110.14
   19 H                |  18 C                |  21 C                |   109.80
   20 H                |  18 C                |  21 C                |   109.73
   18 C                |  21 C                |  22 H                |   109.67
   18 C                |  21 C                |  23 H                |   111.77
   18 C                |  21 C                |  24 C                |   103.05
   22 H                |  21 C                |  23 H                |   110.49
   22 H                |  21 C                |  24 C                |   109.75
   23 H                |  21 C                |  24 C                |   111.86
   21 C                |  24 C                |  25 H                |   111.77
   21 C                |  24 C                |  26 H                |   109.35
   21 C                |  24 C                |  27 C                |   103.20
   25 H                |  24 C                |  26 H                |   110.42
   25 H                |  24 C                |  27 C                |   112.39
   26 H                |  24 C                |  27 C                |   109.46
   17 N                |  27 C                |  24 C                |   105.30
   17 N                |  27 C                |  28 H                |   109.86
   17 N                |  27 C                |  29 C                |   111.39
   24 C                |  27 C                |  28 H                |   109.29
   24 C                |  27 C                |  29 C                |   111.97
   28 H                |  27 C                |  29 C                |   108.97
   27 C                |  29 C                |  30 O                |   121.54
   27 C                |  29 C                |  31 N                |   117.84
   30 O                |  29 C                |  31 N                |   120.58
   29 C                |  31 N                |  32 H                |   120.43
   29 C                |  31 N                |  33 H                |   117.83
   32 H                |  31 N                |  33 H                |   121.63
 ------------------------------------------------------------------------------
                            number of included internuclear angles:         60
 ==============================================================================



  library name resolved from: environment
  library file name is: </opt/rit/el9/20230413/app/linux-rhel9-x86_64_v3/gcc-11.2.1/nwchem-7.2.0-oxtctbuhfuzyfaoziquq6bki22grib3g/share/nwchem/libraries/>
  


 Summary of "ao basis" -> "" (cartesian)
 ------------------------------------------------------------------------------
       Tag                 Description            Shells   Functions and Types
 ---------------- ------------------------------  ------  ---------------------
 *                        aug-cc-pvdz                 on all atoms 


                      Basis "ao basis" -> "ao basis" (cartesian)
                      -----
  H (Hydrogen)
  ------------
            Exponent  Coefficients 
       -------------- ---------------------------------------------------------
  1 S  1.30100000E+01  0.019685
  1 S  1.96200000E+00  0.137977
  1 S  4.44600000E-01  0.478148

  2 S  1.22000000E-01  1.000000

  3 S  2.97400000E-02  1.000000

  4 P  7.27000000E-01  1.000000

  5 P  1.41000000E-01  1.000000

  C (Carbon)
  ----------
            Exponent  Coefficients 
       -------------- ---------------------------------------------------------
  1 S  6.66500000E+03  0.000692
  1 S  1.00000000E+03  0.005329
  1 S  2.28000000E+02  0.027077
  1 S  6.47100000E+01  0.101718
  1 S  2.10600000E+01  0.274740
  1 S  7.49500000E+00  0.448564
  1 S  2.79700000E+00  0.285074
  1 S  5.21500000E-01  0.015204

  2 S  6.66500000E+03 -0.000146
  2 S  1.00000000E+03 -0.001154
  2 S  2.28000000E+02 -0.005725
  2 S  6.47100000E+01 -0.023312
  2 S  2.10600000E+01 -0.063955
  2 S  7.49500000E+00 -0.149981
  2 S  2.79700000E+00 -0.127262
  2 S  5.21500000E-01  0.544529

  3 S  1.59600000E-01  1.000000

  4 S  4.69000000E-02  1.000000

  5 P  9.43900000E+00  0.038109
  5 P  2.00200000E+00  0.209480
  5 P  5.45600000E-01  0.508557

  6 P  1.51700000E-01  1.000000

  7 P  4.04100000E-02  1.000000

  8 D  5.50000000E-01  1.000000

  9 D  1.51000000E-01  1.000000

  O (Oxygen)
  ----------
            Exponent  Coefficients 
       -------------- ---------------------------------------------------------
  1 S  1.17200000E+04  0.000710
  1 S  1.75900000E+03  0.005470
  1 S  4.00800000E+02  0.027837
  1 S  1.13700000E+02  0.104800
  1 S  3.70300000E+01  0.283062
  1 S  1.32700000E+01  0.448719
  1 S  5.02500000E+00  0.270952
  1 S  1.01300000E+00  0.015458

  2 S  1.17200000E+04 -0.000160
  2 S  1.75900000E+03 -0.001263
  2 S  4.00800000E+02 -0.006267
  2 S  1.13700000E+02 -0.025716
  2 S  3.70300000E+01 -0.070924
  2 S  1.32700000E+01 -0.165411
  2 S  5.02500000E+00 -0.116955
  2 S  1.01300000E+00  0.557368

  3 S  3.02300000E-01  1.000000

  4 S  7.89600000E-02  1.000000

  5 P  1.77000000E+01  0.043018
  5 P  3.85400000E+00  0.228913
  5 P  1.04600000E+00  0.508728

  6 P  2.75300000E-01  1.000000

  7 P  6.85600000E-02  1.000000

  8 D  1.18500000E+00  1.000000

  9 D  3.32000000E-01  1.000000

  N (Nitrogen)
  ------------
            Exponent  Coefficients 
       -------------- ---------------------------------------------------------
  1 S  9.04600000E+03  0.000700
  1 S  1.35700000E+03  0.005389
  1 S  3.09300000E+02  0.027406
  1 S  8.77300000E+01  0.103207
  1 S  2.85600000E+01  0.278723
  1 S  1.02100000E+01  0.448540
  1 S  3.83800000E+00  0.278238
  1 S  7.46600000E-01  0.015440

  2 S  9.04600000E+03 -0.000153
  2 S  1.35700000E+03 -0.001208
  2 S  3.09300000E+02 -0.005992
  2 S  8.77300000E+01 -0.024544
  2 S  2.85600000E+01 -0.067459
  2 S  1.02100000E+01 -0.158078
  2 S  3.83800000E+00 -0.121831
  2 S  7.46600000E-01  0.549003

  3 S  2.24800000E-01  1.000000

  4 S  6.12400000E-02  1.000000

  5 P  1.35500000E+01  0.039919
  5 P  2.91700000E+00  0.217169
  5 P  7.97300000E-01  0.510319

  6 P  2.18500000E-01  1.000000

  7 P  5.61100000E-02  1.000000

  8 D  8.17000000E-01  1.000000

  9 D  2.30000000E-01  1.000000



 Summary of "ao basis" -> "ao basis" (cartesian)
 ------------------------------------------------------------------------------
       Tag                 Description            Shells   Functions and Types
 ---------------- ------------------------------  ------  ---------------------
 H                        aug-cc-pvdz                5        9   3s2p
 C                        aug-cc-pvdz                9       25   4s3p2d
 O                        aug-cc-pvdz                9       25   4s3p2d
 N                        aug-cc-pvdz                9       25   4s3p2d


                                 NWChem SCF Module
                                 -----------------



  ao basis        = "ao basis"
  functions       =   553
  atoms           =    33
  closed shells   =    61
  open shells     =     0
  charge          =   0.00
  wavefunction    = RHF 
  input vectors   = atomic
  output vectors  = ./ALA_PRO_5.movecs
  use symmetry    = F
  symmetry adapt  = F


 Summary of "ao basis" -> "ao basis" (cartesian)
 ------------------------------------------------------------------------------
       Tag                 Description            Shells   Functions and Types
 ---------------- ------------------------------  ------  ---------------------
 H                        aug-cc-pvdz                5        9   3s2p
 C                        aug-cc-pvdz                9       25   4s3p2d
 O                        aug-cc-pvdz                9       25   4s3p2d
 N                        aug-cc-pvdz                9       25   4s3p2d



 Forming initial guess at       1.0s


 !! The overlap matrix has   5 vectors deemed linearly dependent with
    eigenvalues:
 2.58D-06 4.08D-06 6.88D-06 7.84D-06 8.76D-06


      Superposition of Atomic Density Guess
      -------------------------------------

 Sum of atomic energies:        -772.36748674

      Non-variational initial energy
      ------------------------------

 Total energy =    -783.170432
 1-e energy   =   -3373.141733
 2-e energy   =    1419.684479
 HOMO         =      -0.286930
 LUMO         =       0.008585


 Starting SCF solution at     248.1s



 ----------------------------------------------
         Quadratically convergent ROHF

 Convergence threshold     :          1.000E-04
 Maximum no. of iterations :           30
 Final Fock-matrix accuracy:          1.000E-10
 ----------------------------------------------


              iter       energy          gnorm     gmax       time
             ----- ------------------- --------- --------- --------
                 1     -776.3109152659  2.40D+00  1.58D-01    462.9
                 2     -776.6239307409  8.24D-01  5.05D-02    967.9
                 3     -776.6835901319  6.44D-02  3.90D-03   1805.0
                 4     -776.6842243299  4.02D-03  4.15D-04   2732.3
                 5     -776.6842272830  9.50D-06  4.86D-07   4362.3


       Final RHF  results 
       ------------------ 

         Total SCF energy =   -776.684227282951
      One-electron energy =  -3385.061192595659
      Two-electron energy =   1438.090142682943
 Nuclear repulsion energy =   1170.286822629765

        Time for solution =   4118.9s


             Final eigenvalues
             -----------------

              1      
    1  -20.5355
    2  -20.5268
    3  -20.5136
    4  -15.6081
    5  -15.6022
    6  -15.5883
    7  -11.3673
    8  -11.3601
    9  -11.3462
   10  -11.3001
   11  -11.2942
   12  -11.2823
   13  -11.2570
   14  -11.2461
   15  -11.2355
   16  -11.2302
   17   -1.3970
   18   -1.3858
   19   -1.3748
   20   -1.2761
   21   -1.2368
   22   -1.2284
   23   -1.0964
   24   -1.0514
   25   -1.0284
   26   -0.9851
   27   -0.9188
   28   -0.8796
   29   -0.8451
   30   -0.8158
   31   -0.7867
   32   -0.7685
   33   -0.7293
   34   -0.7219
   35   -0.7004
   36   -0.6695
   37   -0.6575
   38   -0.6551
   39   -0.6319
   40   -0.6239
   41   -0.6181
   42   -0.5993
   43   -0.5899
   44   -0.5842
   45   -0.5704
   46   -0.5687
   47   -0.5602
   48   -0.5560
   49   -0.5349
   50   -0.5241
   51   -0.5195
   52   -0.5082
   53   -0.5041
   54   -0.4958
   55   -0.4919
   56   -0.4302
   57   -0.4276
   58   -0.4170
   59   -0.4118
   60   -0.3893
   61   -0.3816
   62    0.0253
   63    0.0351
   64    0.0388
   65    0.0425
   66    0.0504
   67    0.0548
   68    0.0585
   69    0.0604
   70    0.0611
   71    0.0705

                       ROHF Final Molecular Orbital Analysis
                       -------------------------------------

 Vector   17  Occ=2.000000D+00  E=-1.396993D+00
              MO Center= -8.3D-01,  1.0D+00, -3.1D-02, r^2= 3.7D+00
   Bfn.  Coefficient  Atom+Function         Bfn.  Coefficient  Atom+Function  
  ----- ------------  ---------------      ----- ------------  ---------------
   250      0.286644  16 O  s               249      0.261280  16 O  s         
   488      0.224892  30 O  s               487      0.202356  30 O  s         
   224      0.191166  15 C  s               139      0.173868   9 C  s         
   462      0.151926  29 C  s         

 Vector   18  Occ=2.000000D+00  E=-1.385804D+00
              MO Center= -8.9D-01,  1.6D+00, -4.3D-01, r^2= 4.8D+00
   Bfn.  Coefficient  Atom+Function         Bfn.  Coefficient  Atom+Function  
  ----- ------------  ---------------      ----- ------------  ---------------
   488      0.305116  30 O  s               487      0.280648  30 O  s         
   250     -0.213574  16 O  s               249     -0.205067  16 O  s         
   462      0.197313  29 C  s         

 Vector   19  Occ=2.000000D+00  E=-1.374765D+00
              MO Center=  5.1D-01, -3.6D+00,  5.8D-02, r^2= 2.4D+00
   Bfn.  Coefficient  Atom+Function         Bfn.  Coefficient  Atom+Function  
  ----- ------------  ---------------      ----- ------------  ---------------
    80      0.340728   6 O  s                79      0.338618   6 O  s         
    54      0.238428   5 C  s                12      0.162580   2 C  s         

 Vector   20  Occ=2.000000D+00  E=-1.276070D+00
              MO Center=  3.1D-01,  9.8D-01,  3.5D-01, r^2= 2.1D+00
   Bfn.  Coefficient  Atom+Function         Bfn.  Coefficient  Atom+Function  
  ----- ------------  ---------------      ----- ------------  ---------------
   275      0.384567  17 N  s               274      0.309021  17 N  s         
   250     -0.213578  16 O  s               249     -0.179085  16 O  s         

 Vector   21  Occ=2.000000D+00  E=-1.236815D+00
              MO Center= -2.3D-01, -2.8D+00,  9.3D-03, r^2= 1.8D+00
   Bfn.  Coefficient  Atom+Function         Bfn.  Coefficient  Atom+Function  
  ----- ------------  ---------------      ----- ------------  ---------------
   105      0.452928   7 N  s               104      0.342777   7 N  s         
    80     -0.214297   6 O  s                79     -0.186040   6 O  s         
   128      0.152764   8 H  s         

 Vector   22  Occ=2.000000D+00  E=-1.228445D+00
              MO Center= -1.7D+00,  3.3D+00, -1.2D-02, r^2= 1.4D+00
   Bfn.  Coefficient  Atom+Function         Bfn.  Coefficient  Atom+Function  
  ----- ------------  ---------------      ----- ------------  ---------------
   513      0.385248  31 N  s               512      0.368374  31 N  s         
   429     -0.253698  27 C  s               488     -0.219757  30 O  s         
   487     -0.188382  30 O  s               536      0.171360  32 H  s         
   467      0.157805  29 C  pz              545      0.155483  33 H  s         

 Vector   23  Occ=2.000000D+00  E=-1.096391D+00
              MO Center=  9.1D-01,  1.7D+00,  4.2D-01, r^2= 4.5D+00
   Bfn.  Coefficient  Atom+Function         Bfn.  Coefficient  Atom+Function  
  ----- ------------  ---------------      ----- ------------  ---------------
   385      0.228475  24 C  s               342      0.194922  21 C  s         
   429      0.194447  27 C  s         

 Vector   24  Occ=2.000000D+00  E=-1.051387D+00
              MO Center=  2.2D-01, -1.3D+00, -3.4D-01, r^2= 7.1D+00
   Bfn.  Coefficient  Atom+Function         Bfn.  Coefficient  Atom+Function  
  ----- ------------  ---------------      ----- ------------  ---------------
   138      0.219598   9 C  s               172      0.187273  11 C  s         
   300      0.185347  18 C  s                12     -0.161524   2 C  s         

 Vector   25  Occ=2.000000D+00  E=-1.028357D+00
              MO Center=  7.3D-01,  1.4D+00,  2.8D-01, r^2= 5.7D+00
   Bfn.  Coefficient  Atom+Function         Bfn.  Coefficient  Atom+Function  
  ----- ------------  ---------------      ----- ------------  ---------------
   428     -0.239060  27 C  s               299      0.234002  18 C  s         
   225     -0.159589  15 C  s         

 Vector   26  Occ=2.000000D+00  E=-9.851325D-01
              MO Center= -5.8D-01, -3.8D+00,  1.6D-01, r^2= 5.1D+00
   Bfn.  Coefficient  Atom+Function         Bfn.  Coefficient  Atom+Function  
  ----- ------------  ---------------      ----- ------------  ---------------
    11      0.316776   2 C  s               146     -0.172263   9 C  pz        
    56     -0.171226   5 C  s                55      0.161955   5 C  s         
   172      0.160892  11 C  s                13      0.153664   2 C  s         
   225      0.154003  15 C  s         

 Vector   27  Occ=2.000000D+00  E=-9.187958D-01
              MO Center=  5.5D-01,  8.5D-01, -8.0D-02, r^2= 6.4D+00
   Bfn.  Coefficient  Atom+Function         Bfn.  Coefficient  Atom+Function  
  ----- ------------  ---------------      ----- ------------  ---------------
   139      0.251558   9 C  s               146      0.202916   9 C  pz        
   434      0.195364  27 C  px              224      0.175315  15 C  s         
   172     -0.173829  11 C  s               385      0.172596  24 C  s         
   231      0.168712  15 C  py              278     -0.156258  17 N  py        
   386     -0.156914  24 C  s               299     -0.155360  18 C  s         

 Vector   28  Occ=2.000000D+00  E=-8.796106D-01
              MO Center= -4.4D-02, -2.1D-01, -4.5D-01, r^2= 8.6D+00
   Bfn.  Coefficient  Atom+Function         Bfn.  Coefficient  Atom+Function  
  ----- ------------  ---------------      ----- ------------  ---------------
   146      0.254884   9 C  pz              225     -0.243793  15 C  s         
   429      0.225428  27 C  s               172     -0.200589  11 C  s         
   434     -0.189366  27 C  px              145      0.177336   9 C  py        
   138      0.154782   9 C  s               139      0.152323   9 C  s         
   180      0.150996  11 C  pz        

 Vector   29  Occ=2.000000D+00  E=-8.450909D-01
              MO Center=  5.6D-01,  2.1D+00,  2.0D-01, r^2= 6.4D+00
   Bfn.  Coefficient  Atom+Function         Bfn.  Coefficient  Atom+Function  
  ----- ------------  ---------------      ----- ------------  ---------------
   429      0.389744  27 C  s               342      0.207841  21 C  s         
   343      0.168468  21 C  s               277     -0.160561  17 N  px        
   386     -0.161229  24 C  s               462      0.154633  29 C  s         
   300     -0.152239  18 C  s               375      0.150569  23 H  s         

 Vector   30  Occ=2.000000D+00  E=-8.158093D-01
              MO Center=  2.7D-01,  1.3D+00,  2.9D-01, r^2= 9.4D+00
   Bfn.  Coefficient  Atom+Function         Bfn.  Coefficient  Atom+Function  
  ----- ------------  ---------------      ----- ------------  ---------------
   300      0.478274  18 C  s               343     -0.454392  21 C  s         
   435      0.224225  27 C  py              139      0.219552   9 C  s         
   386      0.173341  24 C  s               278     -0.168188  17 N  py        
   231      0.164778  15 C  py              301     -0.164836  18 C  s         
   515      0.159644  31 N  px              108     -0.155850   7 N  py        

 Vector   31  Occ=2.000000D+00  E=-7.866664D-01
              MO Center= -4.7D-01, -1.4D+00,  3.6D-02, r^2= 8.1D+00
   Bfn.  Coefficient  Atom+Function         Bfn.  Coefficient  Atom+Function  
  ----- ------------  ---------------      ----- ------------  ---------------
   128     -0.274884   8 H  s               107      0.266044   7 N  px        
   139      0.235746   9 C  s               105     -0.231738   7 N  s         
    55      0.208852   5 C  s               108     -0.172829   7 N  py        
    54      0.160962   5 C  s                80     -0.156645   6 O  s         
   158     -0.152679   9 C  dxz              61      0.150124   5 C  py        

 Vector   32  Occ=2.000000D+00  E=-7.685155D-01
              MO Center= -7.8D-01,  1.6D+00,  1.5D-01, r^2= 8.1D+00
   Bfn.  Coefficient  Atom+Function         Bfn.  Coefficient  Atom+Function  
  ----- ------------  ---------------      ----- ------------  ---------------
   517      0.276245  31 N  pz              536      0.256112  32 H  s         
   463     -0.199111  29 C  s               300      0.189768  18 C  s         
   225      0.156244  15 C  s               465      0.152221  29 C  px        

 Vector   33  Occ=2.000000D+00  E=-7.293000D-01
              MO Center=  2.4D-01,  1.9D+00,  5.4D-01, r^2= 4.7D+00
   Bfn.  Coefficient  Atom+Function         Bfn.  Coefficient  Atom+Function  
  ----- ------------  ---------------      ----- ------------  ---------------
   225      0.351096  15 C  s               300      0.291690  18 C  s         
   452      0.215014  28 H  s               433      0.209093  27 C  pz        
   302      0.183859  18 C  px              517     -0.173890  31 N  pz        
   453      0.170468  28 H  s               145     -0.168524   9 C  py        
   275     -0.158830  17 N  s         

 Vector   34  Occ=2.000000D+00  E=-7.218805D-01
              MO Center= -6.6D-01,  1.3D-01,  1.5D-01, r^2= 1.1D+01
   Bfn.  Coefficient  Atom+Function         Bfn.  Coefficient  Atom+Function  
  ----- ------------  ---------------      ----- ------------  ---------------
   343     -0.277058  21 C  s               300      0.261202  18 C  s         
   142     -0.200727   9 C  py              545     -0.201158  33 H  s         
   517      0.189468  31 N  pz              145     -0.183748   9 C  py        
   228      0.171189  15 C  py        

 Vector   35  Occ=2.000000D+00  E=-7.003690D-01
              MO Center= -3.0D-01,  1.4D+00,  4.9D-02, r^2= 9.9D+00
   Bfn.  Coefficient  Atom+Function         Bfn.  Coefficient  Atom+Function  
  ----- ------------  ---------------      ----- ------------  ---------------
   545     -0.224787  33 H  s               343      0.222293  21 C  s         
   429     -0.205133  27 C  s               139     -0.196234   9 C  s         
   463      0.167813  29 C  s               515      0.166204  31 N  px        
   231     -0.162048  15 C  py              300     -0.162604  18 C  s         
   517      0.152364  31 N  pz              465     -0.151416  29 C  px        

 Vector   36  Occ=2.000000D+00  E=-6.694617D-01
              MO Center= -3.6D-01, -6.6D-01,  9.4D-02, r^2= 6.3D+00
   Bfn.  Coefficient  Atom+Function         Bfn.  Coefficient  Atom+Function  
  ----- ------------  ---------------      ----- ------------  ---------------
   252      0.269913  16 O  px              250     -0.210595  16 O  s         
   141     -0.184955   9 C  px              227     -0.184524  15 C  px        
   386      0.185272  24 C  s               162     -0.161898  10 H  s         
   225      0.162179  15 C  s               343     -0.158813  21 C  s         

 Vector   37  Occ=2.000000D+00  E=-6.575251D-01
              MO Center=  6.8D-02, -2.4D+00,  1.8D-01, r^2= 1.0D+01
   Bfn.  Coefficient  Atom+Function         Bfn.  Coefficient  Atom+Function  
  ----- ------------  ---------------      ----- ------------  ---------------
    82      0.250737   6 O  px               58      0.248158   5 C  py        
   343      0.223986  21 C  s                80      0.199911   6 O  s         
   300     -0.189359  18 C  s                14     -0.180714   2 C  px        

 Vector   38  Occ=2.000000D+00  E=-6.551289D-01
              MO Center=  6.0D-01,  1.0D+00, -2.5D-01, r^2= 9.4D+00
   Bfn.  Coefficient  Atom+Function         Bfn.  Coefficient  Atom+Function  
  ----- ------------  ---------------      ----- ------------  ---------------
   343      0.258515  21 C  s               492     -0.229287  30 O  pz        
   304     -0.187840  18 C  pz              386     -0.173772  24 C  s         
   488      0.166588  30 O  s               300     -0.164923  18 C  s         
   347     -0.161567  21 C  pz              148     -0.157460   9 C  py        
   376     -0.151991  23 H  s         

 Vector   39  Occ=2.000000D+00  E=-6.319478D-01
              MO Center=  2.8D-01,  3.2D-01,  4.3D-02, r^2= 8.7D+00
   Bfn.  Coefficient  Atom+Function         Bfn.  Coefficient  Atom+Function  
  ----- ------------  ---------------      ----- ------------  ---------------
   173     -0.321560  11 C  s               139      0.312483   9 C  s         
   386      0.221621  24 C  s               418      0.162611  26 H  s         

 Vector   40  Occ=2.000000D+00  E=-6.239101D-01
              MO Center= -1.2D-01, -1.5D+00,  4.2D-02, r^2= 9.1D+00
   Bfn.  Coefficient  Atom+Function         Bfn.  Coefficient  Atom+Function  
  ----- ------------  ---------------      ----- ------------  ---------------
   386      0.174513  24 C  s               252      0.172428  16 O  px        
   173      0.169290  11 C  s               343     -0.166452  21 C  s         
    59      0.162083   5 C  pz              435     -0.160624  27 C  py        
    35     -0.157260   3 H  s               109      0.157350   7 N  pz        

 Vector   41  Occ=2.000000D+00  E=-6.181135D-01
              MO Center= -9.1D-02, -1.6D+00,  1.1D-01, r^2= 1.0D+01
   Bfn.  Coefficient  Atom+Function         Bfn.  Coefficient  Atom+Function  
  ----- ------------  ---------------      ----- ------------  ---------------
   139      0.412207   9 C  s               173     -0.242170  11 C  s         
    16     -0.186622   2 C  pz              343     -0.180445  21 C  s         
   231      0.168853  15 C  py              252      0.163592  16 O  px        
   300      0.159435  18 C  s         

 Vector   42  Occ=2.000000D+00  E=-5.992636D-01
              MO Center= -2.1D-02,  2.0D+00, -3.9D-01, r^2= 7.1D+00
   Bfn.  Coefficient  Atom+Function         Bfn.  Coefficient  Atom+Function  
  ----- ------------  ---------------      ----- ------------  ---------------
   492      0.341211  30 O  pz              467     -0.276433  29 C  pz        
   343      0.244228  21 C  s               488     -0.236972  30 O  s         
   300     -0.177462  18 C  s               324      0.176910  19 H  s         
   386     -0.173608  24 C  s               301      0.170349  18 C  s         
   284     -0.157664  17 N  py              495      0.157495  30 O  pz        

 Vector   43  Occ=2.000000D+00  E=-5.898539D-01
              MO Center=  5.9D-01,  1.7D+00,  4.0D-01, r^2= 7.1D+00
   Bfn.  Coefficient  Atom+Function         Bfn.  Coefficient  Atom+Function  
  ----- ------------  ---------------      ----- ------------  ---------------
   389      0.254092  24 C  py              429      0.214145  27 C  s         
   409      0.207526  25 H  s               300      0.160986  18 C  s         
   346      0.154995  21 C  py              432     -0.151317  27 C  py        

 Vector   44  Occ=2.000000D+00  E=-5.842470D-01
              MO Center= -1.6D-01, -2.0D+00, -2.7D-01, r^2= 1.2D+01
   Bfn.  Coefficient  Atom+Function         Bfn.  Coefficient  Atom+Function  
  ----- ------------  ---------------      ----- ------------  ---------------
    15      0.186550   2 C  py               82      0.178395   6 O  px        
   205     -0.162546  13 H  s                57     -0.158406   5 C  px        
   177      0.154549  11 C  pz               35     -0.152510   3 H  s         

 Vector   45  Occ=2.000000D+00  E=-5.703877D-01
              MO Center=  5.1D-02, -3.9D-02, -3.9D-01, r^2= 1.1D+01
   Bfn.  Coefficient  Atom+Function         Bfn.  Coefficient  Atom+Function  
  ----- ------------  ---------------      ----- ------------  ---------------
   176      0.194432  11 C  py              215     -0.175740  14 H  s         
   214     -0.174075  14 H  s               491      0.158338  30 O  py        
   466      0.156128  29 C  py               57      0.154014   5 C  px        
    82     -0.150049   6 O  px        

 Vector   46  Occ=2.000000D+00  E=-5.686687D-01
              MO Center=  3.1D-01,  2.1D+00, -7.6D-02, r^2= 7.4D+00
   Bfn.  Coefficient  Atom+Function         Bfn.  Coefficient  Atom+Function  
  ----- ------------  ---------------      ----- ------------  ---------------
   429      0.261520  27 C  s               345      0.216496  21 C  px        
   375      0.201947  23 H  s               516      0.200989  31 N  py        
   390      0.163349  24 C  pz              376      0.156664  23 H  s         
   491      0.154031  30 O  py        

 Vector   47  Occ=2.000000D+00  E=-5.602353D-01
              MO Center= -1.7D-01, -3.4D+00,  1.8D-02, r^2= 7.1D+00
   Bfn.  Coefficient  Atom+Function         Bfn.  Coefficient  Atom+Function  
  ----- ------------  ---------------      ----- ------------  ---------------
    82      0.231117   6 O  px               45      0.228311   4 H  s         
     1     -0.208556   1 H  s                14      0.196486   2 C  px        
    44      0.192602   4 H  s                57     -0.189431   5 C  px        
   215     -0.166103  14 H  s               176      0.151259  11 C  py        

 Vector   48  Occ=2.000000D+00  E=-5.559776D-01
              MO Center= -3.9D-01, -2.3D+00,  8.1D-02, r^2= 1.1D+01
   Bfn.  Coefficient  Atom+Function         Bfn.  Coefficient  Atom+Function  
  ----- ------------  ---------------      ----- ------------  ---------------
    44     -0.255353   4 H  s                13      0.241737   2 C  s         
   343     -0.236665  21 C  s                15      0.216586   2 C  py        
    45     -0.207662   4 H  s               386      0.177094  24 C  s         
    14     -0.162120   2 C  px               35      0.156728   3 H  s         
    64      0.150365   5 C  py              143      0.150990   9 C  pz        

 Vector   49  Occ=2.000000D+00  E=-5.349058D-01
              MO Center= -5.6D-02, -1.2D+00, -5.7D-01, r^2= 8.0D+00
   Bfn.  Coefficient  Atom+Function         Bfn.  Coefficient  Atom+Function  
  ----- ------------  ---------------      ----- ------------  ---------------
   176      0.261180  11 C  py              215     -0.235193  14 H  s         
   214     -0.221003  14 H  s               343      0.215749  21 C  s         
   206      0.209239  13 H  s               205      0.183082  13 H  s         
   253      0.174735  16 O  py              163      0.152699  10 H  s         

 Vector   50  Occ=2.000000D+00  E=-5.240989D-01
              MO Center= -2.1D-01, -2.0D-01,  4.0D-02, r^2= 9.4D+00
   Bfn.  Coefficient  Atom+Function         Bfn.  Coefficient  Atom+Function  
  ----- ------------  ---------------      ----- ------------  ---------------
   386      0.403860  24 C  s               254      0.243126  16 O  pz        
   410     -0.223794  25 H  s               257      0.186735  16 O  pz        
   343     -0.185250  21 C  s               229      0.179480  15 C  pz        
   429     -0.162899  27 C  s               490      0.156079  30 O  px        

 Vector   51  Occ=2.000000D+00  E=-5.194979D-01
              MO Center= -9.0D-02, -1.8D+00, -7.7D-01, r^2= 5.7D+00
   Bfn.  Coefficient  Atom+Function         Bfn.  Coefficient  Atom+Function  
  ----- ------------  ---------------      ----- ------------  ---------------
   163      0.335458  10 H  s               197      0.260530  12 H  s         
   175     -0.257186  11 C  px              196      0.233308  12 H  s         
   139     -0.214435   9 C  s               206     -0.215083  13 H  s         
   205     -0.205214  13 H  s               141      0.190709   9 C  px        
   162      0.186988  10 H  s         

 Vector   52  Occ=2.000000D+00  E=-5.081753D-01
              MO Center=  1.2D+00,  1.8D+00,  2.6D-01, r^2= 6.0D+00
   Bfn.  Coefficient  Atom+Function         Bfn.  Coefficient  Atom+Function  
  ----- ------------  ---------------      ----- ------------  ---------------
   303      0.277843  18 C  py              301      0.245732  18 C  s         
   346     -0.231859  21 C  py              349     -0.231663  21 C  py        
   389      0.213794  24 C  py              434     -0.211229  27 C  px        
   376     -0.208048  23 H  s               431     -0.207141  27 C  px        
   343      0.174012  21 C  s               324     -0.170254  19 H  s         

 Vector   53  Occ=2.000000D+00  E=-5.041308D-01
              MO Center=  1.3D+00,  1.8D+00,  1.2D-01, r^2= 6.1D+00
   Bfn.  Coefficient  Atom+Function         Bfn.  Coefficient  Atom+Function  
  ----- ------------  ---------------      ----- ------------  ---------------
   410      0.350083  25 H  s               367     -0.302913  22 H  s         
   376      0.275937  23 H  s               387     -0.267001  24 C  s         
   366     -0.259910  22 H  s               300     -0.246515  18 C  s         
   343      0.240372  21 C  s               349     -0.207861  21 C  py        
   301      0.195542  18 C  s               347      0.190051  21 C  pz        

 Vector   54  Occ=2.000000D+00  E=-4.957816D-01
              MO Center=  1.1D+00,  2.2D+00,  4.2D-01, r^2= 4.8D+00
   Bfn.  Coefficient  Atom+Function         Bfn.  Coefficient  Atom+Function  
  ----- ------------  ---------------      ----- ------------  ---------------
   388      0.288117  24 C  px              453      0.251398  28 H  s         
   391      0.246502  24 C  px              347      0.232879  21 C  pz        
   390     -0.201680  24 C  pz              464     -0.195757  29 C  s         
   345     -0.191132  21 C  px              431     -0.187728  27 C  px        
   324      0.182677  19 H  s               386     -0.178943  24 C  s         

 Vector   55  Occ=2.000000D+00  E=-4.918820D-01
              MO Center=  3.1D-01, -2.1D+00, -2.0D-01, r^2= 7.8D+00
   Bfn.  Coefficient  Atom+Function         Bfn.  Coefficient  Atom+Function  
  ----- ------------  ---------------      ----- ------------  ---------------
    84      0.267879   6 O  pz              143     -0.197492   9 C  pz        
    87      0.195292   6 O  pz              177      0.189077  11 C  pz        
    59      0.168175   5 C  pz              162     -0.156429  10 H  s         

 Vector   56  Occ=2.000000D+00  E=-4.302178D-01
              MO Center= -7.8D-01, -1.9D-01,  1.7D-01, r^2= 4.2D+00
   Bfn.  Coefficient  Atom+Function         Bfn.  Coefficient  Atom+Function  
  ----- ------------  ---------------      ----- ------------  ---------------
   253      0.448400  16 O  py              256      0.370704  16 O  py        
   254      0.189548  16 O  pz              139     -0.170426   9 C  s         
   142      0.166507   9 C  py              275     -0.165422  17 N  s         
   231     -0.154220  15 C  py        

 Vector   57  Occ=2.000000D+00  E=-4.276441D-01
              MO Center= -4.8D-01,  2.3D+00, -6.6D-01, r^2= 3.9D+00
   Bfn.  Coefficient  Atom+Function         Bfn.  Coefficient  Atom+Function  
  ----- ------------  ---------------      ----- ------------  ---------------
   490      0.422793  30 O  px              493      0.337441  30 O  px        
   386      0.263305  24 C  s               419     -0.239469  26 H  s         
   491     -0.235619  30 O  py              494     -0.187011  30 O  py        
   253      0.160711  16 O  py              463     -0.152033  29 C  s         

 Vector   58  Occ=2.000000D+00  E=-4.170335D-01
              MO Center= -1.4D+00,  3.1D+00, -4.6D-01, r^2= 2.7D+00
   Bfn.  Coefficient  Atom+Function         Bfn.  Coefficient  Atom+Function  
  ----- ------------  ---------------      ----- ------------  ---------------
   491      0.366647  30 O  py              516     -0.359712  31 N  py        
   519     -0.324274  31 N  py              494      0.292524  30 O  py        
   515     -0.237026  31 N  px              518     -0.185197  31 N  px        
   490      0.166448  30 O  px        

 Vector   59  Occ=2.000000D+00  E=-4.117618D-01
              MO Center=  6.0D-01, -4.0D+00,  9.3D-02, r^2= 2.4D+00
   Bfn.  Coefficient  Atom+Function         Bfn.  Coefficient  Atom+Function  
  ----- ------------  ---------------      ----- ------------  ---------------
    83      0.506263   6 O  py               86      0.403944   6 O  py        
    13     -0.296272   2 C  s               105     -0.245091   7 N  s         
    64     -0.197873   5 C  py               17      0.181062   2 C  px        
    14      0.179207   2 C  px               84     -0.176186   6 O  pz        
   145     -0.174976   9 C  py              464      0.167226  29 C  s         

 Vector   60  Occ=2.000000D+00  E=-3.893353D-01
              MO Center=  8.5D-03, -1.6D+00,  1.9D-02, r^2= 6.5D+00
   Bfn.  Coefficient  Atom+Function         Bfn.  Coefficient  Atom+Function  
  ----- ------------  ---------------      ----- ------------  ---------------
   109      0.337823   7 N  pz              112      0.318819   7 N  pz        
    84     -0.263135   6 O  pz              139     -0.249305   9 C  s         
   279     -0.227374  17 N  pz              148      0.209258   9 C  py        
   282     -0.209854  17 N  pz               87     -0.203156   6 O  pz        
   174     -0.182151  11 C  s               114      0.155132   7 N  py        

 Vector   61  Occ=2.000000D+00  E=-3.815560D-01
              MO Center=  2.9D-02, -2.8D-01,  1.5D-01, r^2= 6.5D+00
   Bfn.  Coefficient  Atom+Function         Bfn.  Coefficient  Atom+Function  
  ----- ------------  ---------------      ----- ------------  ---------------
   279      0.336254  17 N  pz              282      0.310952  17 N  pz        
   109      0.246149   7 N  pz              112      0.232560   7 N  pz        
   254     -0.227745  16 O  pz               84     -0.184689   6 O  pz        
   257     -0.180667  16 O  pz              148      0.167374   9 C  py        

 Vector   62  Occ=0.000000D+00  E= 2.530761D-02
              MO Center= -6.3D-01,  3.8D+00,  2.4D+00, r^2= 2.2D+01
   Bfn.  Coefficient  Atom+Function         Bfn.  Coefficient  Atom+Function  
  ----- ------------  ---------------      ----- ------------  ---------------
   464      6.760684  29 C  s               301      4.208925  18 C  s         
   514     -3.662105  31 N  s               387     -2.686104  24 C  s         
   309      1.948087  18 C  py              420     -1.951591  26 H  s         
   226      1.930506  15 C  s               234      1.789856  15 C  py        
    56      1.751748   5 C  s               411     -1.678674  25 H  s         

 Vector   63  Occ=0.000000D+00  E= 3.511877D-02
              MO Center=  1.0D+00,  3.1D+00,  1.3D+00, r^2= 3.2D+01
   Bfn.  Coefficient  Atom+Function         Bfn.  Coefficient  Atom+Function  
  ----- ------------  ---------------      ----- ------------  ---------------
   471     -2.993944  29 C  px              377      2.816326  23 H  s         
   514     -2.426417  31 N  s               420      1.824232  26 H  s         
    13     -1.707647   2 C  s               437     -1.707650  27 C  px        
   547     -1.636316  33 H  s               351     -1.579123  21 C  px        
   387      1.534979  24 C  s               538     -1.448613  32 H  s         

 Vector   64  Occ=0.000000D+00  E= 3.877146D-02
              MO Center= -1.3D+00, -2.8D+00,  1.3D+00, r^2= 3.7D+01
   Bfn.  Coefficient  Atom+Function         Bfn.  Coefficient  Atom+Function  
  ----- ------------  ---------------      ----- ------------  ---------------
   148      6.046528   9 C  py              174     -3.926678  11 C  s         
    64      3.579181   5 C  py              344     -2.567597  21 C  s         
   106      2.412765   7 N  s               309      2.195220  18 C  py        
   454      2.174058  28 H  s                12     -2.062131   2 C  s         
   411     -2.070396  25 H  s                 3      2.025616   1 H  s         

 Vector   65  Occ=0.000000D+00  E= 4.249506D-02
              MO Center=  5.0D-01,  1.2D+00, -3.0D-01, r^2= 3.9D+01
   Bfn.  Coefficient  Atom+Function         Bfn.  Coefficient  Atom+Function  
  ----- ------------  ---------------      ----- ------------  ---------------
   420     -2.480108  26 H  s               377      2.425772  23 H  s         
   454     -2.366110  28 H  s               301     -1.822469  18 C  s         
   351     -1.713753  21 C  px              173     -1.697426  11 C  s         
   439      1.460445  27 C  pz              547      1.381225  33 H  s         
   438     -1.312781  27 C  py               37      1.254233   3 H  s         

 Vector   66  Occ=0.000000D+00  E= 5.036524D-02
              MO Center=  1.1D+00,  1.6D+00,  3.9D-01, r^2= 4.2D+01
   Bfn.  Coefficient  Atom+Function         Bfn.  Coefficient  Atom+Function  
  ----- ------------  ---------------      ----- ------------  ---------------
   411      4.896668  25 H  s               309     -3.422270  18 C  py        
   395     -2.887587  24 C  py              464     -2.841959  29 C  s         
   344      2.786300  21 C  s               437     -2.728030  27 C  px        
    64      2.576630   5 C  py              387      2.522484  24 C  s         
   334     -2.133277  20 H  s               149     -1.661655   9 C  pz        

 Vector   67  Occ=0.000000D+00  E= 5.480038D-02
              MO Center= -5.3D-01, -1.5D+00, -5.8D-01, r^2= 4.0D+01
   Bfn.  Coefficient  Atom+Function         Bfn.  Coefficient  Atom+Function  
  ----- ------------  ---------------      ----- ------------  ---------------
   149      2.816029   9 C  pz              284      2.642975  17 N  py        
     3     -2.266126   1 H  s               173     -2.015485  11 C  s         
   420      2.024763  26 H  s                64     -1.998230   5 C  py        
   216      1.974284  14 H  s                37      1.643080   3 H  s         
   547     -1.610801  33 H  s               215      1.575404  14 H  s         

 Vector   68  Occ=0.000000D+00  E= 5.850003D-02
              MO Center=  3.6D-02,  1.2D+00,  6.4D-02, r^2= 3.9D+01
   Bfn.  Coefficient  Atom+Function         Bfn.  Coefficient  Atom+Function  
  ----- ------------  ---------------      ----- ------------  ---------------
   454      3.605044  28 H  s               420     -2.710738  26 H  s         
   334     -2.449642  20 H  s               387      2.096680  24 C  s         
   439     -2.051513  27 C  pz              471     -2.060199  29 C  px        
   547     -2.048799  33 H  s                37     -2.021243   3 H  s         
   198     -1.929831  12 H  s               174     -1.865192  11 C  s         

 Vector   69  Occ=0.000000D+00  E= 6.043457D-02
              MO Center= -7.6D-01, -3.4D+00,  4.1D-01, r^2= 3.9D+01
   Bfn.  Coefficient  Atom+Function         Bfn.  Coefficient  Atom+Function  
  ----- ------------  ---------------      ----- ------------  ---------------
    46      4.226848   4 H  s               234     -3.407410  15 C  py        
    56      3.294122   5 C  s               106     -3.051861   7 N  s         
   325      2.877986  19 H  s               454     -2.805308  28 H  s         
   130     -2.745344   8 H  s               538      2.375841  32 H  s         
     3     -2.346240   1 H  s               174     -2.298374  11 C  s         

 Vector   70  Occ=0.000000D+00  E= 6.112027D-02
              MO Center=  3.9D-01,  1.2D+00,  1.1D-01, r^2= 4.3D+01
   Bfn.  Coefficient  Atom+Function         Bfn.  Coefficient  Atom+Function  
  ----- ------------  ---------------      ----- ------------  ---------------
   377      5.173646  23 H  s               351     -3.029000  21 C  px        
   538      2.798568  32 H  s               334     -2.743296  20 H  s         
   325      2.600213  19 H  s               207     -2.385301  13 H  s         
    37      2.277429   3 H  s               411     -2.249633  25 H  s         
   368     -2.027838  22 H  s               174      1.948193  11 C  s         

 Vector   71  Occ=0.000000D+00  E= 7.050544D-02
              MO Center=  1.5D+00,  5.3D-01,  5.3D-01, r^2= 4.3D+01
   Bfn.  Coefficient  Atom+Function         Bfn.  Coefficient  Atom+Function  
  ----- ------------  ---------------      ----- ------------  ---------------
   411      5.799389  25 H  s               334      4.188450  20 H  s         
   420     -3.776906  26 H  s               395     -3.252829  24 C  py        
    64     -3.074479   5 C  py              368     -3.076853  22 H  s         
   309      2.856814  18 C  py               46     -2.730120   4 H  s         
    56     -2.523974   5 C  s               106      2.519527   7 N  s         

 Vector   72  Occ=0.000000D+00  E= 7.469754D-02
              MO Center=  4.8D-01, -5.3D-01, -4.6D-01, r^2= 4.4D+01
   Bfn.  Coefficient  Atom+Function         Bfn.  Coefficient  Atom+Function  
  ----- ------------  ---------------      ----- ------------  ---------------
   368      5.025883  22 H  s               377     -4.304480  23 H  s         
    37      3.450423   3 H  s                 3     -3.277559   1 H  s         
   234     -3.163132  15 C  py              454      3.042203  28 H  s         
   334      2.891677  20 H  s               353      2.713934  21 C  pz        
   106     -2.677447   7 N  s               351      2.533835  21 C  px        

 Vector   73  Occ=0.000000D+00  E= 7.848818D-02
              MO Center= -1.7D-01, -1.1D+00, -2.5D-01, r^2= 4.4D+01
   Bfn.  Coefficient  Atom+Function         Bfn.  Coefficient  Atom+Function  
  ----- ------------  ---------------      ----- ------------  ---------------
   325      5.239972  19 H  s               420      5.245926  26 H  s         
   454     -4.582010  28 H  s               198     -4.236522  12 H  s         
    13     -4.058816   2 C  s               234     -3.587086  15 C  py        
    46     -3.384313   4 H  s               437     -2.909761  27 C  px        
   438     -2.889053  27 C  py              114     -2.656287   7 N  py        

 Vector   74  Occ=0.000000D+00  E= 8.352030D-02
              MO Center= -2.5D-01,  3.9D-01, -5.9D-01, r^2= 4.0D+01
   Bfn.  Coefficient  Atom+Function         Bfn.  Coefficient  Atom+Function  
  ----- ------------  ---------------      ----- ------------  ---------------
   454      8.359910  28 H  s               148     -6.502653   9 C  py        
   216      5.583476  14 H  s               207     -5.231115  13 H  s         
   538     -4.617506  32 H  s               439     -3.691680  27 C  pz        
   182      3.596810  11 C  py              174      3.474377  11 C  s         
   301      3.482669  18 C  s               334     -3.262862  20 H  s         

 Vector   75  Occ=0.000000D+00  E= 8.779107D-02
              MO Center=  1.0D+00, -3.4D-01, -1.3D+00, r^2= 3.8D+01
   Bfn.  Coefficient  Atom+Function         Bfn.  Coefficient  Atom+Function  
  ----- ------------  ---------------      ----- ------------  ---------------
   325      8.879764  19 H  s               368     -5.492473  22 H  s         
   464     -5.274871  29 C  s                13      5.164419   2 C  s         
   334     -4.871734  20 H  s               216     -4.842752  14 H  s         
   310      4.085620  18 C  pz              148      4.002654   9 C  py        
    64      3.420224   5 C  py              164      3.050162  10 H  s         

 Vector   76  Occ=0.000000D+00  E= 9.236058D-02
              MO Center= -7.3D-01, -1.2D+00,  6.0D-01, r^2= 4.1D+01
   Bfn.  Coefficient  Atom+Function         Bfn.  Coefficient  Atom+Function  
  ----- ------------  ---------------      ----- ------------  ---------------
   454      7.327858  28 H  s               420     -6.265499  26 H  s         
    56      5.582488   5 C  s               130     -5.572035   8 H  s         
   234     -5.569463  15 C  py              164     -4.425470  10 H  s         
   368     -4.379591  22 H  s               106     -3.209048   7 N  s         
   283     -3.144001  17 N  px              411      3.083956  25 H  s         

 Vector   77  Occ=0.000000D+00  E= 1.001067D-01
              MO Center= -1.2D-01, -8.5D-01, -1.3D+00, r^2= 3.7D+01
   Bfn.  Coefficient  Atom+Function         Bfn.  Coefficient  Atom+Function  
  ----- ------------  ---------------      ----- ------------  ---------------
   207     12.181022  13 H  s               325     -8.055956  19 H  s         
   148      7.807603   9 C  py              198     -6.201037  12 H  s         
   174     -5.164210  11 C  s               130      4.664003   8 H  s         
   420     -4.035017  26 H  s               147      3.894234   9 C  px        
    56      3.720537   5 C  s               182     -3.654815  11 C  py        

 Vector   78  Occ=0.000000D+00  E= 1.087463D-01
              MO Center=  1.7D+00, -6.9D-01,  5.0D-01, r^2= 3.5D+01
   Bfn.  Coefficient  Atom+Function         Bfn.  Coefficient  Atom+Function  
  ----- ------------  ---------------      ----- ------------  ---------------
   164     13.265139  10 H  s               387     -9.820889  24 C  s         
   464      8.125404  29 C  s               301      6.567882  18 C  s         
   207      6.258599  13 H  s               334     -5.849521  20 H  s         
   147     -5.399569   9 C  px              325     -4.989180  19 H  s         
   216     -4.947878  14 H  s               344     -4.596451  21 C  s         

 Vector   79  Occ=0.000000D+00  E= 1.160637D-01
              MO Center=  5.7D-01, -3.2D-01,  1.5D-01, r^2= 3.4D+01
   Bfn.  Coefficient  Atom+Function         Bfn.  Coefficient  Atom+Function  
  ----- ------------  ---------------      ----- ------------  ---------------
    13      7.754268   2 C  s               164     -7.697284  10 H  s         
   344     -6.129769  21 C  s                64      5.723835   5 C  py        
   325      5.002909  19 H  s               174      4.949163  11 C  s         
   106     -4.718083   7 N  s               276     -4.576535  17 N  s         
   464      4.368684  29 C  s               234      4.244092  15 C  py        

 Vector   80  Occ=0.000000D+00  E= 1.188933D-01
              MO Center= -7.3D-02, -1.2D-01,  9.6D-02, r^2= 4.3D+01
   Bfn.  Coefficient  Atom+Function         Bfn.  Coefficient  Atom+Function  
  ----- ------------  ---------------      ----- ------------  ---------------
   464     26.067818  29 C  s                56     16.418450   5 C  s         
    13    -14.629895   2 C  s               344    -12.230033  21 C  s         
   514     -9.872255  31 N  s               174     -9.060264  11 C  s         
   387     -7.519976  24 C  s               473      7.359348  29 C  pz        
   437      7.141402  27 C  px              301      6.024175  18 C  s         

 Vector   81  Occ=0.000000D+00  E= 1.272385D-01
              MO Center= -3.9D-01,  2.3D+00,  1.8D+00, r^2= 2.5D+01
   Bfn.  Coefficient  Atom+Function         Bfn.  Coefficient  Atom+Function  
  ----- ------------  ---------------      ----- ------------  ---------------
   464     16.347495  29 C  s               301     15.877172  18 C  s         
   387    -13.240317  24 C  s               514     -9.269985  31 N  s         
   439      7.616171  27 C  pz              148     -7.336763   9 C  py        
   174      6.609447  11 C  s               325      5.663298  19 H  s         
   454     -5.244713  28 H  s               106     -5.007844   7 N  s         

 Vector   82  Occ=0.000000D+00  E= 1.341654D-01
              MO Center= -4.0D-01,  2.0D+00,  4.9D-01, r^2= 3.1D+01
   Bfn.  Coefficient  Atom+Function         Bfn.  Coefficient  Atom+Function  
  ----- ------------  ---------------      ----- ------------  ---------------
   387     21.483419  24 C  s               464    -11.700217  29 C  s         
   301    -10.922403  18 C  s               309     -9.446038  18 C  py        
   148     -8.450743   9 C  py               56     -7.336762   5 C  s         
   396     -7.232186  24 C  pz              352     -7.073762  21 C  py        
   226     -6.856687  15 C  s               344      6.260432  21 C  s         

 Vector   83  Occ=0.000000D+00  E= 1.362273D-01
              MO Center=  1.2D+00,  1.4D+00,  9.1D-01, r^2= 3.4D+01
   Bfn.  Coefficient  Atom+Function         Bfn.  Coefficient  Atom+Function  
  ----- ------------  ---------------      ----- ------------  ---------------
    13     11.452940   2 C  s               387    -10.368328  24 C  s         
   438     10.346232  27 C  py              344     -8.810965  21 C  s         
    64      8.092411   5 C  py              394      7.758746  24 C  px        
   234      7.394756  15 C  py              148      7.323066   9 C  py        
   226      5.855736  15 C  s               276      5.159426  17 N  s         

 Vector   84  Occ=0.000000D+00  E= 1.409763D-01
              MO Center= -1.6D-01,  2.2D+00, -4.9D-01, r^2= 2.8D+01
   Bfn.  Coefficient  Atom+Function         Bfn.  Coefficient  Atom+Function  
  ----- ------------  ---------------      ----- ------------  ---------------
   387      8.450102  24 C  s               148     -7.096148   9 C  py        
   234     -6.956321  15 C  py              464     -6.789653  29 C  s         
   164     -6.012882  10 H  s               309     -5.461139  18 C  py        
   344      5.450126  21 C  s               472     -5.339441  29 C  py        
   226     -4.667906  15 C  s               276      4.356324  17 N  s         

 Vector   85  Occ=0.000000D+00  E= 1.433174D-01
              MO Center= -9.4D-01,  2.0D+00,  7.0D-01, r^2= 2.9D+01
   Bfn.  Coefficient  Atom+Function         Bfn.  Coefficient  Atom+Function  
  ----- ------------  ---------------      ----- ------------  ---------------
   514     12.485374  31 N  s               471      7.751158  29 C  px        
   464     -6.581198  29 C  s               344      6.319156  21 C  s         
[...]
   Bfn.  Coefficient  Atom+Function         Bfn.  Coefficient  Atom+Function  
  ----- ------------  ---------------      ----- ------------  ---------------
   148     17.466672   9 C  py              344    -10.934343  21 C  s         
    13     10.779445   2 C  s               437     10.524230  27 C  px        
   301     -9.779173  18 C  s                64      9.199488   5 C  py        
   438      8.689091  27 C  py              439      8.323351  27 C  pz        
   343     -7.693868  21 C  s               394      7.592760  24 C  px        

 Vector  156  Occ=0.000000D+00  E= 4.354825D-01
              MO Center= -1.8D-01, -7.3D-01,  1.5D-02, r^2= 2.1D+01
   Bfn.  Coefficient  Atom+Function         Bfn.  Coefficient  Atom+Function  
  ----- ------------  ---------------      ----- ------------  ---------------
   387     14.261128  24 C  s               234    -10.782727  15 C  py        
   301    -10.597040  18 C  s                56     10.293254   5 C  s         
   514     -9.650443  31 N  s                13     -8.865444   2 C  s         
   148      8.328517   9 C  py              430      6.843139  27 C  s         
   174     -6.623285  11 C  s               439     -5.469622  27 C  pz        

 Vector  157  Occ=0.000000D+00  E= 4.418694D-01
              MO Center=  1.1D-01,  6.5D-01,  3.8D-02, r^2= 2.2D+01
   Bfn.  Coefficient  Atom+Function         Bfn.  Coefficient  Atom+Function  
  ----- ------------  ---------------      ----- ------------  ---------------
   276     11.587378  17 N  s               301     -9.226713  18 C  s         
   344     -9.119060  21 C  s               148     -8.596028   9 C  py        
   233     -7.242223  15 C  px              106     -7.112822   7 N  s         
   284     -6.535004  17 N  py              514      6.162280  31 N  s         
   437      6.093147  27 C  px              394      5.864408  24 C  px        

 Vector  158  Occ=0.000000D+00  E= 4.464951D-01
              MO Center= -9.5D-02, -7.7D-01, -1.4D-01, r^2= 2.2D+01
   Bfn.  Coefficient  Atom+Function         Bfn.  Coefficient  Atom+Function  
  ----- ------------  ---------------      ----- ------------  ---------------
   148     28.558323   9 C  py              234    -16.533726  15 C  py        
   284     14.043604  17 N  py              464     13.757758  29 C  s         
    56     12.453893   5 C  s               276    -11.348452  17 N  s         
    13    -10.637919   2 C  s               140      9.703232   9 C  s         
   309      9.632811  18 C  py              387     -9.577747  24 C  s         

 Vector  159  Occ=0.000000D+00  E= 4.489615D-01
              MO Center=  1.0D-01, -1.4D+00,  1.3D-01, r^2= 2.3D+01
   Bfn.  Coefficient  Atom+Function         Bfn.  Coefficient  Atom+Function  
  ----- ------------  ---------------      ----- ------------  ---------------
   387     12.874841  24 C  s               464    -11.485783  29 C  s         
   173    -10.000570  11 C  s               309     -8.506372  18 C  py        
   301     -8.147593  18 C  s               206      7.619718  13 H  s         
   344      7.478823  21 C  s               215      7.185499  14 H  s         
   148     -6.528727   9 C  py              226     -6.548779  15 C  s         

 Vector  160  Occ=0.000000D+00  E= 4.513182D-01
              MO Center=  1.7D-02, -6.7D-02,  2.7D-01, r^2= 2.2D+01
   Bfn.  Coefficient  Atom+Function         Bfn.  Coefficient  Atom+Function  
  ----- ------------  ---------------      ----- ------------  ---------------
    13      9.255100   2 C  s               283      8.372447  17 N  px        
   464     -8.113916  29 C  s               106      7.993109   7 N  s         
   438      7.507447  27 C  py               12      7.323766   2 C  s         
   514      7.157916  31 N  s               234      7.107063  15 C  py        
     2     -6.367898   1 H  s               233     -6.284470  15 C  px        

 Vector  161  Occ=0.000000D+00  E= 4.529847D-01
              MO Center= -4.1D-01, -7.1D-01,  3.2D-01, r^2= 2.5D+01
   Bfn.  Coefficient  Atom+Function         Bfn.  Coefficient  Atom+Function  
  ----- ------------  ---------------      ----- ------------  ---------------
    13      7.659921   2 C  s               343     -7.376269  21 C  s         
   301     -7.332592  18 C  s                64      6.345792   5 C  py        
   164     -5.960343  10 H  s               114      5.456094   7 N  py        
   233     -4.587251  15 C  px              283      4.601086  17 N  px        
   410     -4.451203  25 H  s               147      4.371175   9 C  px        

 Vector  162  Occ=0.000000D+00  E= 4.553817D-01
              MO Center=  5.9D-01,  5.0D-01,  2.1D-01, r^2= 2.3D+01
   Bfn.  Coefficient  Atom+Function         Bfn.  Coefficient  Atom+Function  
  ----- ------------  ---------------      ----- ------------  ---------------
   387     18.474639  24 C  s               148    -15.303778   9 C  py        
    13    -13.688824   2 C  s               438    -12.921827  27 C  py        
   284    -11.199823  17 N  py              226     -9.699032  15 C  s         
   410     -9.055045  25 H  s                12     -8.654646   2 C  s         
   147     -8.058915   9 C  px              386      8.042242  24 C  s         

 Vector  163  Occ=0.000000D+00  E= 4.608027D-01
              MO Center=  4.2D-01, -5.9D-02, -5.7D-03, r^2= 2.2D+01
   Bfn.  Coefficient  Atom+Function         Bfn.  Coefficient  Atom+Function  
  ----- ------------  ---------------      ----- ------------  ---------------
   174     24.689268  11 C  s                56    -20.382778   5 C  s         
   148    -15.477744   9 C  py              301     12.105119  18 C  s         
   234     11.973577  15 C  py              149     11.192990   9 C  pz        
    13      7.561777   2 C  s               215     -6.754463  14 H  s         
   344      6.525331  21 C  s               430     -6.354021  27 C  s         

 Vector  164  Occ=0.000000D+00  E= 4.644222D-01
              MO Center=  6.0D-02, -3.3D-01, -1.6D-01, r^2= 2.4D+01
   Bfn.  Coefficient  Atom+Function         Bfn.  Coefficient  Atom+Function  
  ----- ------------  ---------------      ----- ------------  ---------------
   148     13.214027   9 C  py              464    -10.155520  29 C  s         
   147     -9.239906   9 C  px               13      7.140880   2 C  s         
   387      6.977150  24 C  s               174     -6.448675  11 C  s         
   301     -6.173748  18 C  s                56      6.073189   5 C  s         
   226     -5.194111  15 C  s               284      4.805986  17 N  py        

 Vector  165  Occ=0.000000D+00  E= 4.706711D-01
              MO Center=  3.6D-01,  3.4D-01, -1.7D-01, r^2= 2.3D+01
   Bfn.  Coefficient  Atom+Function         Bfn.  Coefficient  Atom+Function  
  ----- ------------  ---------------      ----- ------------  ---------------
   301      7.916048  18 C  s               233     -6.263367  15 C  px        
   148     -6.212686   9 C  py              284     -6.223502  17 N  py        
   344      6.187090  21 C  s               514      5.824000  31 N  s         
   387     -5.702204  24 C  s               197      5.615542  12 H  s         
   410      5.599109  25 H  s               173     -5.360556  11 C  s         

 Vector  166  Occ=0.000000D+00  E= 4.750854D-01
              MO Center=  4.2D-01,  3.7D-01, -2.3D-01, r^2= 2.0D+01
   Bfn.  Coefficient  Atom+Function         Bfn.  Coefficient  Atom+Function  
  ----- ------------  ---------------      ----- ------------  ---------------
   174     15.813320  11 C  s                56    -13.788509   5 C  s         
   438      9.860854  27 C  py               13      9.179726   2 C  s         
   284      8.790066  17 N  py              149      7.707556   9 C  pz        
   276      7.002011  17 N  s               344     -6.649269  21 C  s         
   206     -6.075512  13 H  s               301     -5.850886  18 C  s         

 Vector  167  Occ=0.000000D+00  E= 4.804296D-01
              MO Center=  7.2D-01,  7.3D-02, -1.4D-01, r^2= 2.2D+01
   Bfn.  Coefficient  Atom+Function         Bfn.  Coefficient  Atom+Function  
  ----- ------------  ---------------      ----- ------------  ---------------
   386     -9.024526  24 C  s               234      8.802370  15 C  py        
   367      8.576909  22 H  s               419      7.658977  26 H  s         
   106      7.563853   7 N  s               344     -7.100825  21 C  s         
    12      6.701968   2 C  s               343     -6.434540  21 C  s         
   114     -6.056775   7 N  py              301     -5.892806  18 C  s         

 Vector  168  Occ=0.000000D+00  E= 4.855194D-01
              MO Center=  3.9D-01,  6.5D-01,  1.4D-01, r^2= 1.9D+01
   Bfn.  Coefficient  Atom+Function         Bfn.  Coefficient  Atom+Function  
  ----- ------------  ---------------      ----- ------------  ---------------
   387     20.228910  24 C  s               464    -14.596528  29 C  s         
   344     10.662336  21 C  s               301     -9.729802  18 C  s         
   197     -8.523198  12 H  s               173      8.397411  11 C  s         
   309     -7.544334  18 C  py               56     -7.491106   5 C  s         
   419     -5.695159  26 H  s               438     -5.563774  27 C  py        

 Vector  169  Occ=0.000000D+00  E= 4.908015D-01
              MO Center= -7.8D-01, -7.0D-01,  3.7D-01, r^2= 2.2D+01
   Bfn.  Coefficient  Atom+Function         Bfn.  Coefficient  Atom+Function  
  ----- ------------  ---------------      ----- ------------  ---------------
   148     13.560514   9 C  py              301    -10.994525  18 C  s         
    13     10.911921   2 C  s               234      6.960089  15 C  py        
   284      6.607429  17 N  py              514     -6.487024  31 N  s         
    81      6.366590   6 O  s               437      6.066767  27 C  px        
   344     -5.962050  21 C  s               114      5.519222   7 N  py        

 Vector  170  Occ=0.000000D+00  E= 4.955332D-01
              MO Center=  5.5D-01,  6.3D-01,  2.8D-01, r^2= 1.8D+01
   Bfn.  Coefficient  Atom+Function         Bfn.  Coefficient  Atom+Function  
  ----- ------------  ---------------      ----- ------------  ---------------
   387     17.164778  24 C  s               464    -13.055189  29 C  s         
   301    -12.140972  18 C  s                12      8.113647   2 C  s         
   174      7.739695  11 C  s               419     -7.395297  26 H  s         
   114     -6.529362   7 N  py              300     -6.540704  18 C  s         
   438     -6.480865  27 C  py              149      6.410131   9 C  pz        

 Vector  171  Occ=0.000000D+00  E= 4.978894D-01
              MO Center=  2.5D-01, -9.5D-02, -3.2D-01, r^2= 1.8D+01
   Bfn.  Coefficient  Atom+Function         Bfn.  Coefficient  Atom+Function  
  ----- ------------  ---------------      ----- ------------  ---------------
   148     17.898463   9 C  py              234    -15.180920  15 C  py        
   301    -12.331969  18 C  s                56     12.128665   5 C  s         
   309     11.682181  18 C  py              344    -10.257709  21 C  s         
   140     10.178033   9 C  s               147     10.166343   9 C  px        
   284      9.653101  17 N  py              163     -8.357434  10 H  s         

 Vector  172  Occ=0.000000D+00  E= 5.041229D-01
              MO Center=  4.9D-01, -6.3D-01, -3.9D-01, r^2= 2.0D+01
   Bfn.  Coefficient  Atom+Function         Bfn.  Coefficient  Atom+Function  
  ----- ------------  ---------------      ----- ------------  ---------------
    56     17.463585   5 C  s               174    -11.343398  11 C  s         
   276     -8.510502  17 N  s               438     -8.309063  27 C  py        
   215      7.307230  14 H  s               324     -7.177031  19 H  s         
   300      6.874329  18 C  s               344      6.075650  21 C  s         
   173     -5.828534  11 C  s               148      5.534121   9 C  py        


 center of mass
 --------------
 x =  -0.02910779 y =   0.00591622 z =  -0.00285886

 moments of inertia (a.u.)
 ------------------
        6677.423955879165          -0.000000000002          -0.000000000000
          -0.000000000002        1706.739789969305          -0.000000000000
          -0.000000000000          -0.000000000000        7315.060343267575

  Mulliken analysis of the total density
  --------------------------------------

    Atom       Charge   Shell Charges
 -----------   ------   -------------------------------------------------------
    1 H    1     0.86   0.76  0.12 -0.00  0.03 -0.06
    2 C    6     6.27   2.01  0.66  0.21  0.14  2.06  1.04 -0.00  0.06  0.09
    3 H    1     0.86   0.76  0.13 -0.00  0.03 -0.06
    4 H    1     1.01   0.76  0.26  0.01  0.03 -0.05
    5 C    6     5.21   2.01  0.68  0.09 -0.07  1.89  0.30  0.02  0.24  0.04
    6 O    8     8.71   2.01  0.82  0.99  0.15  2.79  1.82  0.14  0.01 -0.02
    7 N    7     7.62   2.01  0.72  0.88 -0.04  2.46  1.46  0.03  0.05  0.06
    8 H    1     1.01   0.76  0.22  0.01  0.06 -0.03
    9 C    6     6.71   2.01  0.66  0.29  0.03  2.00  1.47 -0.05  0.14  0.17
   10 H    1     0.95   0.78  0.22 -0.05  0.03 -0.02
   11 C    6     5.63   2.01  0.67  0.23  0.18  2.04  0.43 -0.01  0.07  0.02
   12 H    1     0.83   0.77  0.12 -0.01  0.03 -0.09
   13 H    1     0.94   0.77  0.15  0.06  0.03 -0.07
   14 H    1     0.98   0.77  0.26 -0.00  0.03 -0.07
   15 C    6     4.74   2.01  0.68 -0.01  0.05  1.88  0.18  0.06  0.23 -0.34
   16 O    8     8.90   2.01  0.82  1.04  0.20  2.78  1.88  0.17  0.01 -0.00
   17 N    7     7.40   2.01  0.71  0.78 -0.10  2.44  1.59 -0.21  0.06  0.11
   18 C    6     5.77   2.01  0.67  0.69 -0.23  2.01  0.32  0.03  0.12  0.14
   19 H    1     0.90   0.79  0.26 -0.06  0.03 -0.11
   20 H    1     0.91   0.80  0.16 -0.00  0.03 -0.07
   21 C    6     5.97   2.01  0.66  0.17  0.11  2.04  0.83  0.09  0.09 -0.03
   22 H    1     0.96   0.78  0.25 -0.02  0.03 -0.08
   23 H    1     0.96   0.78  0.25  0.01  0.03 -0.11
   24 C    6     5.89   2.01  0.66  0.24 -0.09  2.04  0.77  0.10  0.09  0.07
   25 H    1     1.07   0.78  0.36 -0.01  0.03 -0.09
   26 H    1     0.94   0.79  0.23 -0.02  0.03 -0.08
   27 C    6     6.33   2.01  0.66  0.19 -0.07  2.01  1.21  0.08  0.14  0.10
   28 H    1     1.28   0.79  0.48 -0.02  0.03  0.01
   29 C    6     4.24   2.01  0.68 -0.09  0.04  1.89 -0.29 -0.01  0.23 -0.22
   30 O    8     8.86   2.01  0.82  1.04  0.18  2.79  1.86  0.15  0.01  0.00
   31 N    7     7.32   2.01  0.72  0.84 -0.12  2.46  1.29  0.09  0.04 -0.00
   32 H    1     0.99   0.76  0.22 -0.01  0.05 -0.04
   33 H    1     0.97   0.75  0.20 -0.01  0.05 -0.02

       Multipole analysis of the density wrt the origin
       ------------------------------------------------

     L   x y z        total         open         nuclear
     -   - - -        -----         ----         -------
     0   0 0 0      0.000000      0.000000    122.000000

     1   1 0 0     -0.366515      0.000000     -0.000000
     1   0 1 0      1.471366      0.000000     -0.000000
     1   0 0 1      1.248196      0.000000      0.000000

     2   2 0 0    -68.761341      0.000000    678.131890
     2   1 1 0      7.573283      0.000000     44.876987
     2   1 0 1     -0.780057      0.000000     -5.561627
     2   0 2 0    -70.851239      0.000000   3372.481937
     2   0 1 1      6.893104      0.000000     17.806525
     2   0 0 2    -72.257973      0.000000    324.510058


 Task  times  cpu:     4367.3s     wall:     4714.3s


                                NWChem Input Module
                                -------------------


 Summary of allocated global arrays
-----------------------------------
  No active global arrays


MA_summarize_allocated_blocks: starting scan ...
MA_summarize_allocated_blocks: scan completed: 0 heap blocks, 0 stack blocks
MA usage statistics:

	allocation statistics:
					      heap	     stack
					      ----	     -----
	current number of blocks	         0	         0
	maximum number of blocks	        16	        14
	current total bytes		         0	         0
	maximum total bytes		    116888	  26223304
	maximum total K-bytes		       117	     26224
	maximum total M-bytes		         1	        27


                                     CITATION
                                     --------
                Please cite the following reference when publishing
                           results obtained with NWChem:

          E. Apra, E. J. Bylaska, W. A. de Jong, N. Govind, K. Kowalski,
       T. P. Straatsma, M. Valiev, H. J. J. van Dam, Y. Alexeev, J. Anchell,
       V. Anisimov, F. W. Aquino, R. Atta-Fynn, J. Autschbach, N. P. Bauman,
     J. C. Becca, D. E. Bernholdt, K. Bhaskaran-Nair, S. Bogatko, P. Borowski,
         J. Boschen, J. Brabec, A. Bruner, E. Cauet, Y. Chen, G. N. Chuev,
      C. J. Cramer, J. Daily, M. J. O. Deegan, T. H. Dunning Jr., M. Dupuis,
   K. G. Dyall, G. I. Fann, S. A. Fischer, A. Fonari, H. Fruchtl, L. Gagliardi,
      J. Garza, N. Gawande, S. Ghosh, K. Glaesemann, A. W. Gotz, J. Hammond,
       V. Helms, E. D. Hermes, K. Hirao, S. Hirata, M. Jacquelin, L. Jensen,
   B. G. Johnson, H. Jonsson, R. A. Kendall, M. Klemm, R. Kobayashi, V. Konkov,
      S. Krishnamoorthy, M. Krishnan, Z. Lin, R. D. Lins, R. J. Littlefield,
      A. J. Logsdail, K. Lopata, W. Ma, A. V. Marenich, J. Martin del Campo,
   D. Mejia-Rodriguez, J. E. Moore, J. M. Mullin, T. Nakajima, D. R. Nascimento,
    J. A. Nichols, P. J. Nichols, J. Nieplocha, A. Otero-de-la-Roza, B. Palmer,
    A. Panyala, T. Pirojsirikul, B. Peng, R. Peverati, J. Pittner, L. Pollack,
   R. M. Richard, P. Sadayappan, G. C. Schatz, W. A. Shelton, D. W. Silverstein,
   D. M. A. Smith, T. A. Soares, D. Song, M. Swart, H. L. Taylor, G. S. Thomas,
            V. Tipparaju, D. G. Truhlar, K. Tsemekhman, T. Van Voorhis,
      A. Vazquez-Mayagoitia, P. Verma, O. Villa, A. Vishnu, K. D. Vogiatzis,
        D. Wang, J. H. Weare, M. J. Williamson, T. L. Windus, K. Wolinski,
        A. T. Wong, Q. Wu, C. Yang, Q. Yu, M. Zacharias, Z. Zhang, Y. Zhao,
                                and R. J. Harrison
                        "NWChem: Past, present, and future
                         J. Chem. Phys. 152, 184102 (2020)
                               doi:10.1063/5.0004997

                                      AUTHORS
                                      -------
  E. Apra, E. J. Bylaska, N. Govind, K. Kowalski, M. Valiev, D. Mejia-Rodriguez,
       A. Kunitsa, N. P. Bauman, A. Panyala, W. A. de Jong, T. P. Straatsma,
   H. J. J. van Dam, D. Wang, T. L. Windus, J. Hammond, J. Autschbach, A. Woods,
    K. Bhaskaran-Nair, J. Brabec, K. Lopata, S. A. Fischer, S. Krishnamoorthy,
     M. Jacquelin, W. Ma, M. Klemm, O. Villa, Y. Chen, V. Anisimov, F. Aquino,
     S. Hirata, M. T. Hackler, E. Hermes, L. Jensen, J. E. Moore, J. C. Becca,
      V. Konjkov, T. Risthaus, M. Malagoli, A. Marenich, A. Otero-de-la-Roza,
        J. Mullin, P. Nichols, R. Peverati, J. Pittner, Y. Zhao, P.-D. Fan,
        A. Fonari, M. J. Williamson, R. J. Harrison, J. R. Rehr, M. Dupuis,
     D. Silverstein, D. M. A. Smith, J. Nieplocha, V. Tipparaju, M. Krishnan,
     B. E. Van Kuiken, A. Vazquez-Mayagoitia, M. Swart, Q. Wu, T. Van Voorhis,
     A. A. Auer, M. Nooijen, L. D. Crosby, E. Brown, G. Cisneros, G. I. Fann,
   H. Fruchtl, J. Garza, K. Hirao, R. A. Kendall, J. A. Nichols, K. Tsemekhman,
    K. Wolinski, J. Anchell, D. E. Bernholdt, P. Borowski, T. Clark, D. Clerc,
   H. Dachsel, M. J. O. Deegan, K. Dyall, D. Elwood, E. Glendening, M. Gutowski,
   A. C. Hess, J. Jaffe, B. G. Johnson, J. Ju, R. Kobayashi, R. Kutteh, Z. Lin,
   R. Littlefield, X. Long, B. Meng, T. Nakajima, S. Niu, L. Pollack, M. Rosing,
   K. Glaesemann, G. Sandrone, M. Stave, H. Taylor, G. Thomas, J. H. van Lenthe,
                               A. T. Wong, Z. Zhang.

 Total times  cpu:     4367.3s     wall:     4714.8s
