export TMOUT=5400
export TMPDIR=/tmp
export PTMPDIR=/tmp/ptmp
 argument  1 = ALA_THR_5.nw
                                         
                                         


             Northwest Computational Chemistry Package (NWChem) 7.2.0
             --------------------------------------------------------


                    Environmental Molecular Sciences Laboratory
                       Pacific Northwest National Laboratory
                                Richland, WA 99352

                              Copyright (c) 1994-2022
                       Pacific Northwest National Laboratory
                            Battelle Memorial Institute

             NWChem is an open-source computational chemistry package
                        distributed under the terms of the
                      Educational Community License (ECL) 2.0
             A copy of the license is included with this distribution
                              in the LICENSE.TXT file

                                  ACKNOWLEDGMENT
                                  --------------

            This software and its documentation were developed at the
            EMSL at Pacific Northwest National Laboratory, a multiprogram
            national laboratory, operated for the U.S. Department of Energy
            by Battelle under Contract Number DE-AC05-76RL01830. Support
            for this work was provided by the Department of Energy Office
            of Biological and Environmental Research, Office of Basic
            Energy Sciences, and the Office of Advanced Scientific Computing.


           Job information
           ---------------

    hostname        = nova18-41
    program         = /opt/rit/el9/20230413/app/linux-rhel9-x86_64_v3/gcc-11.2.1/nwchem-7.2.0-oxtctbuhfuzyfaoziquq6bki22grib3g/bin/nwchem
    date            = Mon Jun 30 15:37:34 2025

    compiled        = Wed_May_17_23:46:39_2023
    source          = /tmp/root/spack-stage/spack-stage-nwchem-7.2.0-oxtctbuhfuzyfaoziquq6bki22grib3g/spack-src
    nwchem branch   = 7.2.0
    nwchem revision = d0d141fd
    ga revision     = 5.8.0
    use scalapack   = T
    input           = ALA_THR_5.nw
    prefix          = ALA_THR_5.
    data base       = ./ALA_THR_5.db
    status          = startup
    nproc           =        8
    time left       =     -1s



           Memory information
           ------------------

    heap     =   26214396 doubles =    200.0 Mbytes
    stack    =   26214401 doubles =    200.0 Mbytes
    global   =   52428800 doubles =    400.0 Mbytes (distinct from heap & stack)
    total    =  104857597 doubles =    800.0 Mbytes
    verify   = yes
    hardfail = no 


           Directory information
           ---------------------

  0 permanent = .
  0 scratch   = .




                                NWChem Input Module
                                -------------------



 Scaling coordinates for geometry "geometry" by  1.889725989
 (inverse scale =  0.529177249)

 C1  symmetry detected

          ------
          auto-z
          ------
  no constraints, skipping    0.0000000000000000     
  no constraints, skipping    0.0000000000000000     


                             Geometry "geometry" -> ""
                             -------------------------

 Output coordinates in angstroms (scale by  1.889725989 to convert to a.u.)

  No.       Tag          Charge          X              Y              Z
 ---- ---------------- ---------- -------------- -------------- --------------
    1 H                    1.0000     2.83771796     3.65552464     0.23037061
    2 C                    6.0000     1.81845347     3.90595411    -0.06258328
    3 H                    1.0000     1.77199523     4.02934908    -1.14340534
    4 H                    1.0000     1.51269522     4.82706091     0.43152111
    5 C                    6.0000     0.89998958     2.78239100     0.35087533
    6 O                    8.0000     1.35313181     1.78752151     0.90988679
    7 N                    7.0000    -0.39478225     2.93022243     0.07131356
    8 H                    1.0000    -0.68790399     3.75297450    -0.42826693
    9 C                    6.0000    -1.39552886     1.90022444     0.34723628
   10 H                    1.0000    -1.38102448     1.68225026     1.41632275
   11 C                    6.0000    -2.78315303     2.44874354    -0.00899250
   12 H                    1.0000    -2.82820048     2.69271932    -1.07136793
   13 H                    1.0000    -3.54082004     1.69638388     0.21170107
   14 H                    1.0000    -2.99266906     3.34365286     0.57819856
   15 C                    6.0000    -1.06231117     0.60449729    -0.41785073
   16 O                    8.0000    -1.12140124     0.56563566    -1.64542848
   17 N                    7.0000    -0.69123297    -0.44620007     0.31894641
   18 H                    1.0000    -0.69918123    -0.35186576     1.32272370
   19 C                    6.0000    -0.05417017    -1.65731314    -0.22184481
   20 H                    1.0000    -0.14806700    -1.66403351    -1.30828635
   21 C                    6.0000     1.44887668    -1.66036129     0.11594341
   22 H                    1.0000     1.57614950    -1.63315214     1.19860970
   23 C                    6.0000     2.19214872    -2.87818964    -0.43564137
   24 H                    1.0000     3.26043693    -2.76030084    -0.24900926
   25 H                    1.0000     1.85517845    -3.78618608     0.06327597
   26 H                    1.0000     2.02680891    -2.95984135    -1.50982745
   27 O                    8.0000     2.08000019    -0.53360796    -0.44238180
   28 H                    1.0000     1.81319536     0.25087709     0.06679341
   29 C                    6.0000    -0.73311981    -2.91092035     0.32659329
   30 O                    8.0000    -1.03306206    -2.99558027     1.51182464
   31 N                    7.0000    -0.97659464    -3.91326578    -0.50753659
   32 H                    1.0000    -0.73074516    -3.83579664    -1.48105524
   33 H                    1.0000    -1.42375910    -4.73681956    -0.14098496

      Atomic Mass 
      ----------- 

      H                  1.007825
      C                 12.000000
      O                 15.994910
      N                 14.003070


 Effective nuclear repulsion energy (a.u.)    1214.3810443750

            Nuclear Dipole moment (a.u.) 
            ----------------------------
        X                 Y               Z
 ---------------- ---------------- ----------------
    -0.0000000000     0.0000000000    -0.0000000000



                                Z-matrix (autoz)
                                -------- 

 Units are Angstrom for bonds and degrees for angles

      Type          Name      I     J     K     L     M      Value
      ----------- --------  ----- ----- ----- ----- ----- ----------
    1 Stretch                  1     2                       1.08970
    2 Stretch                  2     3                       1.08883
    3 Stretch                  2     4                       1.08907
    4 Stretch                  2     5                       1.50895
    5 Stretch                  5     6                       1.22784
    6 Stretch                  5     7                       1.33283
    7 Stretch                  7     8                       1.00619
    8 Stretch                  7     9                       1.46237
    9 Stretch                  9    10                       1.09118
   10 Stretch                  9    11                       1.53404
   11 Stretch                  9    15                       1.54120
   12 Stretch                 11    12                       1.09096
   13 Stretch                 11    13                       1.09033
   14 Stretch                 11    14                       1.09067
   15 Stretch                 15    16                       1.22961
   16 Stretch                 15    17                       1.33586
   17 Stretch                 17    18                       1.00823
   18 Stretch                 17    19                       1.47143
   19 Stretch                 19    20                       1.09051
   20 Stretch                 19    21                       1.54054
   21 Stretch                 19    29                       1.52751
   22 Stretch                 21    22                       1.09046
   23 Stretch                 21    23                       1.52964
   24 Stretch                 21    27                       1.40699
   25 Stretch                 23    24                       1.09086
   26 Stretch                 23    25                       1.08946
   27 Stretch                 23    26                       1.08990
   28 Stretch                 27    28                       0.97255
   29 Stretch                 29    30                       1.22552
   30 Stretch                 29    31                       1.32656
   31 Stretch                 31    32                       1.00707
   32 Stretch                 31    33                       1.00626
   33 Bend                     1     2     3               109.43980
   34 Bend                     1     2     4               109.57302
   35 Bend                     1     2     5               108.93850
   36 Bend                     2     5     6               120.22730
   37 Bend                     2     5     7               116.82309
   38 Bend                     3     2     4               110.03096
   39 Bend                     3     2     5               109.29314
   40 Bend                     4     2     5               109.54599
   41 Bend                     5     7     8               118.54412
   42 Bend                     5     7     9               123.16780
   43 Bend                     6     5     7               122.94827
   44 Bend                     7     9    10               108.44921
   45 Bend                     7     9    11               108.86603
   46 Bend                     7     9    15               110.51970
   47 Bend                     8     7     9               118.05057
   48 Bend                     9    11    12               110.08697
   49 Bend                     9    11    13               109.56289
   50 Bend                     9    11    14               110.00685
   51 Bend                     9    15    16               120.78258
   52 Bend                     9    15    17               116.58414
   53 Bend                    10     9    11               108.11747
   54 Bend                    10     9    15               108.39430
   55 Bend                    11     9    15               112.38994
   56 Bend                    12    11    13               108.82800
   57 Bend                    12    11    14               109.44152
   58 Bend                    13    11    14               108.88800
   59 Bend                    15    17    18               118.25088
   60 Bend                    15    17    19               124.39806
   61 Bend                    16    15    17               122.62434
   62 Bend                    17    19    20               109.50868
   63 Bend                    17    19    21               110.08787
   64 Bend                    17    19    29               110.55451
   65 Bend                    18    17    19               116.50841
   66 Bend                    19    21    22               109.36129
   67 Bend                    19    21    23               113.36550
   68 Bend                    19    21    27               110.42936
   69 Bend                    19    29    30               120.84485
   70 Bend                    19    29    31               118.41980
   71 Bend                    20    19    21               107.60443
   72 Bend                    20    19    29               108.32287
   73 Bend                    21    19    29               110.69018
   74 Bend                    21    23    24               109.15504
   75 Bend                    21    23    25               110.37204
   76 Bend                    21    23    26               109.95792
   77 Bend                    21    27    28               108.37016
   78 Bend                    22    21    23               108.73383
   79 Bend                    22    21    27               108.76275
   80 Bend                    23    21    27               106.05286
   81 Bend                    24    23    25               108.33793
   82 Bend                    24    23    26               108.98258
   83 Bend                    25    23    26               109.99797
   84 Bend                    29    31    32               120.32579
   85 Bend                    29    31    33               118.09382
   86 Bend                    30    29    31               120.73067
   87 Bend                    32    31    33               121.57271
   88 Torsion                  1     2     5     6          -0.70907
   89 Torsion                  1     2     5     7         179.69860
   90 Torsion                  2     5     7     8           2.48356
   91 Torsion                  2     5     7     9         176.76901
   92 Torsion                  3     2     5     6         118.82329
   93 Torsion                  3     2     5     7         -60.76904
   94 Torsion                  4     2     5     6        -120.55417
   95 Torsion                  4     2     5     7          59.85350
   96 Torsion                  5     7     9    10          58.59998
   97 Torsion                  5     7     9    11         176.01449
   98 Torsion                  5     7     9    15         -60.08869
   99 Torsion                  6     5     7     8        -177.09669
  100 Torsion                  6     5     7     9          -2.81124
  101 Torsion                  7     9    11    12          61.50070
  102 Torsion                  7     9    11    13        -178.85385
  103 Torsion                  7     9    11    14         -59.18398
  104 Torsion                  7     9    15    16         -67.13662
  105 Torsion                  7     9    15    17         111.80391
  106 Torsion                  8     7     9    10        -127.08804
  107 Torsion                  8     7     9    11          -9.67353
  108 Torsion                  8     7     9    15         114.22329
  109 Torsion                  9    15    17    18           3.33877
  110 Torsion                  9    15    17    19        -165.76171
  111 Torsion                 10     9    11    12         179.12558
  112 Torsion                 10     9    11    13         -61.22896
  113 Torsion                 10     9    11    14          58.44091
  114 Torsion                 10     9    15    16         174.14132
  115 Torsion                 10     9    15    17          -6.91815
  116 Torsion                 11     9    15    16          54.70696
  117 Torsion                 11     9    15    17        -126.35251
  118 Torsion                 12    11     9    15         -61.27875
  119 Torsion                 13    11     9    15          58.36670
  120 Torsion                 14    11     9    15         178.03657
  121 Torsion                 15    17    19    20         -13.19648
  122 Torsion                 15    17    19    21         104.91664
  123 Torsion                 15    17    19    29        -132.47410
  124 Torsion                 16    15    17    18        -177.74195
  125 Torsion                 16    15    17    19          13.15757
  126 Torsion                 17    19    21    22          59.57011
  127 Torsion                 17    19    21    23        -178.91993
  128 Torsion                 17    19    21    27         -60.07998
  129 Torsion                 17    19    29    30         -43.35135
  130 Torsion                 17    19    29    31         137.42984
  131 Torsion                 18    17    19    20         177.53067
  132 Torsion                 18    17    19    21         -64.35622
  133 Torsion                 18    17    19    29          58.25305
  134 Torsion                 19    21    23    24         174.14509
  135 Torsion                 19    21    23    25         -66.89016
  136 Torsion                 19    21    23    26          54.64098
  137 Torsion                 19    21    27    28          72.70043
  138 Torsion                 19    29    31    32          -1.01242
  139 Torsion                 19    29    31    33         179.98027
  140 Torsion                 20    19    21    22         178.85104
  141 Torsion                 20    19    21    23         -59.63900
  142 Torsion                 20    19    21    27          59.20096
  143 Torsion                 20    19    29    30        -163.34330
  144 Torsion                 20    19    29    31          17.43789
  145 Torsion                 21    19    29    30          78.90560
  146 Torsion                 21    19    29    31        -100.31321
  147 Torsion                 22    21    19    29         -62.95923
  148 Torsion                 22    21    23    24         -63.99399
  149 Torsion                 22    21    23    25          54.97077
  150 Torsion                 22    21    23    26         176.50190
  151 Torsion                 22    21    27    28         -47.31034
  152 Torsion                 23    21    19    29          58.55073
  153 Torsion                 23    21    27    28        -164.09946
  154 Torsion                 24    23    21    27          52.81456
  155 Torsion                 25    23    21    27         171.77932
  156 Torsion                 26    23    21    27         -66.68955
  157 Torsion                 27    21    19    29         177.39069
  158 Torsion                 30    29    31    32         179.76784
  159 Torsion                 30    29    31    33           0.76053


            XYZ format geometry
            -------------------
    33
 geometry
 H                     2.83771796     3.65552464     0.23037061
 C                     1.81845347     3.90595411    -0.06258328
 H                     1.77199523     4.02934908    -1.14340534
 H                     1.51269522     4.82706091     0.43152111
 C                     0.89998958     2.78239100     0.35087533
 O                     1.35313181     1.78752151     0.90988679
 N                    -0.39478225     2.93022243     0.07131356
 H                    -0.68790399     3.75297450    -0.42826693
 C                    -1.39552886     1.90022444     0.34723628
 H                    -1.38102448     1.68225026     1.41632275
 C                    -2.78315303     2.44874354    -0.00899250
 H                    -2.82820048     2.69271932    -1.07136793
 H                    -3.54082004     1.69638388     0.21170107
 H                    -2.99266906     3.34365286     0.57819856
 C                    -1.06231117     0.60449729    -0.41785073
 O                    -1.12140124     0.56563566    -1.64542848
 N                    -0.69123297    -0.44620007     0.31894641
 H                    -0.69918123    -0.35186576     1.32272370
 C                    -0.05417017    -1.65731314    -0.22184481
 H                    -0.14806700    -1.66403351    -1.30828635
 C                     1.44887668    -1.66036129     0.11594341
 H                     1.57614950    -1.63315214     1.19860970
 C                     2.19214872    -2.87818964    -0.43564137
 H                     3.26043693    -2.76030084    -0.24900926
 H                     1.85517845    -3.78618608     0.06327597
 H                     2.02680891    -2.95984135    -1.50982745
 O                     2.08000019    -0.53360796    -0.44238180
 H                     1.81319536     0.25087709     0.06679341
 C                    -0.73311981    -2.91092035     0.32659329
 O                    -1.03306206    -2.99558027     1.51182464
 N                    -0.97659464    -3.91326578    -0.50753659
 H                    -0.73074516    -3.83579664    -1.48105524
 H                    -1.42375910    -4.73681956    -0.14098496

 ==============================================================================
                                internuclear distances
 ------------------------------------------------------------------------------
       center one      |      center two      | atomic units |  angstroms
 ------------------------------------------------------------------------------
    2 C                |   1 H                |     2.05923  |     1.08970
    3 H                |   2 C                |     2.05760  |     1.08883
    4 H                |   2 C                |     2.05804  |     1.08907
    5 C                |   2 C                |     2.85149  |     1.50895
    6 O                |   5 C                |     2.32029  |     1.22784
    7 N                |   5 C                |     2.51869  |     1.33283
    8 H                |   7 N                |     1.90143  |     1.00619
    9 C                |   7 N                |     2.76348  |     1.46237
   10 H                |   9 C                |     2.06203  |     1.09118
   11 C                |   9 C                |     2.89891  |     1.53404
   12 H                |  11 C                |     2.06162  |     1.09096
   13 H                |  11 C                |     2.06042  |     1.09033
   14 H                |  11 C                |     2.06106  |     1.09067
   15 C                |   9 C                |     2.91245  |     1.54120
   16 O                |  15 C                |     2.32363  |     1.22961
   17 N                |  15 C                |     2.52442  |     1.33586
   18 H                |  17 N                |     1.90528  |     1.00823
   19 C                |  17 N                |     2.78059  |     1.47143
   20 H                |  19 C                |     2.06077  |     1.09051
   21 C                |  19 C                |     2.91120  |     1.54054
   22 H                |  21 C                |     2.06067  |     1.09046
   23 C                |  21 C                |     2.89060  |     1.52964
   24 H                |  23 C                |     2.06142  |     1.09086
   25 H                |  23 C                |     2.05878  |     1.08946
   26 H                |  23 C                |     2.05961  |     1.08990
   27 O                |  21 C                |     2.65882  |     1.40699
   28 H                |  27 O                |     1.83786  |     0.97255
   29 C                |  19 C                |     2.88658  |     1.52751
   30 O                |  29 C                |     2.31590  |     1.22552
   31 N                |  29 C                |     2.50683  |     1.32656
   32 H                |  31 N                |     1.90308  |     1.00707
   33 H                |  31 N                |     1.90155  |     1.00626
 ------------------------------------------------------------------------------
                         number of included internuclear distances:         32
 ==============================================================================



 ==============================================================================
                                 internuclear angles
 ------------------------------------------------------------------------------
        center 1       |       center 2       |       center 3       |  degrees
 ------------------------------------------------------------------------------
    1 H                |   2 C                |   3 H                |   109.44
    1 H                |   2 C                |   4 H                |   109.57
    1 H                |   2 C                |   5 C                |   108.94
    3 H                |   2 C                |   4 H                |   110.03
    3 H                |   2 C                |   5 C                |   109.29
    4 H                |   2 C                |   5 C                |   109.55
    2 C                |   5 C                |   6 O                |   120.23
    2 C                |   5 C                |   7 N                |   116.82
    6 O                |   5 C                |   7 N                |   122.95
    5 C                |   7 N                |   8 H                |   118.54
    5 C                |   7 N                |   9 C                |   123.17
    8 H                |   7 N                |   9 C                |   118.05
    7 N                |   9 C                |  10 H                |   108.45
    7 N                |   9 C                |  11 C                |   108.87
    7 N                |   9 C                |  15 C                |   110.52
   10 H                |   9 C                |  11 C                |   108.12
   10 H                |   9 C                |  15 C                |   108.39
   11 C                |   9 C                |  15 C                |   112.39
    9 C                |  11 C                |  12 H                |   110.09
    9 C                |  11 C                |  13 H                |   109.56
    9 C                |  11 C                |  14 H                |   110.01
   12 H                |  11 C                |  13 H                |   108.83
   12 H                |  11 C                |  14 H                |   109.44
   13 H                |  11 C                |  14 H                |   108.89
    9 C                |  15 C                |  16 O                |   120.78
    9 C                |  15 C                |  17 N                |   116.58
   16 O                |  15 C                |  17 N                |   122.62
   15 C                |  17 N                |  18 H                |   118.25
   15 C                |  17 N                |  19 C                |   124.40
   18 H                |  17 N                |  19 C                |   116.51
   17 N                |  19 C                |  20 H                |   109.51
   17 N                |  19 C                |  21 C                |   110.09
   17 N                |  19 C                |  29 C                |   110.55
   20 H                |  19 C                |  21 C                |   107.60
   20 H                |  19 C                |  29 C                |   108.32
   21 C                |  19 C                |  29 C                |   110.69
   19 C                |  21 C                |  22 H                |   109.36
   19 C                |  21 C                |  23 C                |   113.37
   19 C                |  21 C                |  27 O                |   110.43
   22 H                |  21 C                |  23 C                |   108.73
   22 H                |  21 C                |  27 O                |   108.76
   23 C                |  21 C                |  27 O                |   106.05
   21 C                |  23 C                |  24 H                |   109.16
   21 C                |  23 C                |  25 H                |   110.37
   21 C                |  23 C                |  26 H                |   109.96
   24 H                |  23 C                |  25 H                |   108.34
   24 H                |  23 C                |  26 H                |   108.98
   25 H                |  23 C                |  26 H                |   110.00
   21 C                |  27 O                |  28 H                |   108.37
   19 C                |  29 C                |  30 O                |   120.84
   19 C                |  29 C                |  31 N                |   118.42
   30 O                |  29 C                |  31 N                |   120.73
   29 C                |  31 N                |  32 H                |   120.33
   29 C                |  31 N                |  33 H                |   118.09
   32 H                |  31 N                |  33 H                |   121.57
 ------------------------------------------------------------------------------
                            number of included internuclear angles:         55
 ==============================================================================



  library name resolved from: environment
  library file name is: </opt/rit/el9/20230413/app/linux-rhel9-x86_64_v3/gcc-11.2.1/nwchem-7.2.0-oxtctbuhfuzyfaoziquq6bki22grib3g/share/nwchem/libraries/>
  


 Summary of "ao basis" -> "" (cartesian)
 ------------------------------------------------------------------------------
       Tag                 Description            Shells   Functions and Types
 ---------------- ------------------------------  ------  ---------------------
 *                        aug-cc-pvdz                 on all atoms 


                      Basis "ao basis" -> "ao basis" (cartesian)
                      -----
  H (Hydrogen)
  ------------
            Exponent  Coefficients 
       -------------- ---------------------------------------------------------
  1 S  1.30100000E+01  0.019685
  1 S  1.96200000E+00  0.137977
  1 S  4.44600000E-01  0.478148

  2 S  1.22000000E-01  1.000000

  3 S  2.97400000E-02  1.000000

  4 P  7.27000000E-01  1.000000

  5 P  1.41000000E-01  1.000000

  C (Carbon)
  ----------
            Exponent  Coefficients 
       -------------- ---------------------------------------------------------
  1 S  6.66500000E+03  0.000692
  1 S  1.00000000E+03  0.005329
  1 S  2.28000000E+02  0.027077
  1 S  6.47100000E+01  0.101718
  1 S  2.10600000E+01  0.274740
  1 S  7.49500000E+00  0.448564
  1 S  2.79700000E+00  0.285074
  1 S  5.21500000E-01  0.015204

  2 S  6.66500000E+03 -0.000146
  2 S  1.00000000E+03 -0.001154
  2 S  2.28000000E+02 -0.005725
  2 S  6.47100000E+01 -0.023312
  2 S  2.10600000E+01 -0.063955
  2 S  7.49500000E+00 -0.149981
  2 S  2.79700000E+00 -0.127262
  2 S  5.21500000E-01  0.544529

  3 S  1.59600000E-01  1.000000

  4 S  4.69000000E-02  1.000000

  5 P  9.43900000E+00  0.038109
  5 P  2.00200000E+00  0.209480
  5 P  5.45600000E-01  0.508557

  6 P  1.51700000E-01  1.000000

  7 P  4.04100000E-02  1.000000

  8 D  5.50000000E-01  1.000000

  9 D  1.51000000E-01  1.000000

  O (Oxygen)
  ----------
            Exponent  Coefficients 
       -------------- ---------------------------------------------------------
  1 S  1.17200000E+04  0.000710
  1 S  1.75900000E+03  0.005470
  1 S  4.00800000E+02  0.027837
  1 S  1.13700000E+02  0.104800
  1 S  3.70300000E+01  0.283062
  1 S  1.32700000E+01  0.448719
  1 S  5.02500000E+00  0.270952
  1 S  1.01300000E+00  0.015458

  2 S  1.17200000E+04 -0.000160
  2 S  1.75900000E+03 -0.001263
  2 S  4.00800000E+02 -0.006267
  2 S  1.13700000E+02 -0.025716
  2 S  3.70300000E+01 -0.070924
  2 S  1.32700000E+01 -0.165411
  2 S  5.02500000E+00 -0.116955
  2 S  1.01300000E+00  0.557368

  3 S  3.02300000E-01  1.000000

  4 S  7.89600000E-02  1.000000

  5 P  1.77000000E+01  0.043018
  5 P  3.85400000E+00  0.228913
  5 P  1.04600000E+00  0.508728

  6 P  2.75300000E-01  1.000000

  7 P  6.85600000E-02  1.000000

  8 D  1.18500000E+00  1.000000

  9 D  3.32000000E-01  1.000000

  N (Nitrogen)
  ------------
            Exponent  Coefficients 
       -------------- ---------------------------------------------------------
  1 S  9.04600000E+03  0.000700
  1 S  1.35700000E+03  0.005389
  1 S  3.09300000E+02  0.027406
  1 S  8.77300000E+01  0.103207
  1 S  2.85600000E+01  0.278723
  1 S  1.02100000E+01  0.448540
  1 S  3.83800000E+00  0.278238
  1 S  7.46600000E-01  0.015440

  2 S  9.04600000E+03 -0.000153
  2 S  1.35700000E+03 -0.001208
  2 S  3.09300000E+02 -0.005992
  2 S  8.77300000E+01 -0.024544
  2 S  2.85600000E+01 -0.067459
  2 S  1.02100000E+01 -0.158078
  2 S  3.83800000E+00 -0.121831
  2 S  7.46600000E-01  0.549003

  3 S  2.24800000E-01  1.000000

  4 S  6.12400000E-02  1.000000

  5 P  1.35500000E+01  0.039919
  5 P  2.91700000E+00  0.217169
  5 P  7.97300000E-01  0.510319

  6 P  2.18500000E-01  1.000000

  7 P  5.61100000E-02  1.000000

  8 D  8.17000000E-01  1.000000

  9 D  2.30000000E-01  1.000000



 Summary of "ao basis" -> "ao basis" (cartesian)
 ------------------------------------------------------------------------------
       Tag                 Description            Shells   Functions and Types
 ---------------- ------------------------------  ------  ---------------------
 H                        aug-cc-pvdz                5        9   3s2p
 C                        aug-cc-pvdz                9       25   4s3p2d
 O                        aug-cc-pvdz                9       25   4s3p2d
 N                        aug-cc-pvdz                9       25   4s3p2d


                                 NWChem SCF Module
                                 -----------------



  ao basis        = "ao basis"
  functions       =   553
  atoms           =    33
  closed shells   =    62
  open shells     =     0
  charge          =   0.00
  wavefunction    = RHF 
  input vectors   = atomic
  output vectors  = ./ALA_THR_5.movecs
  use symmetry    = F
  symmetry adapt  = F


 Summary of "ao basis" -> "ao basis" (cartesian)
 ------------------------------------------------------------------------------
       Tag                 Description            Shells   Functions and Types
 ---------------- ------------------------------  ------  ---------------------
 H                        aug-cc-pvdz                5        9   3s2p
 C                        aug-cc-pvdz                9       25   4s3p2d
 O                        aug-cc-pvdz                9       25   4s3p2d
 N                        aug-cc-pvdz                9       25   4s3p2d



 Forming initial guess at       1.2s


 !! The overlap matrix has   4 vectors deemed linearly dependent with
    eigenvalues:
 3.48D-06 4.32D-06 8.28D-06 9.30D-06


      Superposition of Atomic Density Guess
      -------------------------------------

 Sum of atomic energies:        -809.46727949

      Non-variational initial energy
      ------------------------------

 Total energy =    -819.659030
 1-e energy   =   -3514.005783
 2-e energy   =    1479.965709
 HOMO         =      -0.304125
 LUMO         =       0.013486


 Starting SCF solution at     237.5s



 ----------------------------------------------
         Quadratically convergent ROHF

 Convergence threshold     :          1.000E-04
 Maximum no. of iterations :           30
 Final Fock-matrix accuracy:          1.000E-10
 ----------------------------------------------


              iter       energy          gnorm     gmax       time
             ----- ------------------- --------- --------- --------
                 1     -813.3051104390  2.48D+00  1.71D-01    450.1
                 2     -813.6327265823  8.25D-01  4.08D-02    938.1
                 3     -813.6920254502  6.48D-02  4.58D-03   1672.8
                 4     -813.6926397004  3.91D-03  4.81D-04   2586.9
                 5     -813.6926426372  9.21D-06  7.39D-07   4151.5


       Final RHF  results 
       ------------------ 

         Total SCF energy =   -813.692642637219
      One-electron energy =  -3526.225648591684
      Two-electron energy =   1498.151961579420
 Nuclear repulsion energy =   1214.381044375045

        Time for solution =   3922.3s


             Final eigenvalues
             -----------------

              1      
    1  -20.5439
    2  -20.5372
    3  -20.5271
    4  -20.5243
    5  -15.6166
    6  -15.6024
    7  -15.5980
    8  -11.3747
    9  -11.3594
   10  -11.3585
   11  -11.3075
   12  -11.2882
   13  -11.2841
   14  -11.2533
   15  -11.2507
   16  -11.2189
   17   -1.4086
   18   -1.3912
   19   -1.3802
   20   -1.3471
   21   -1.2635
   22   -1.2379
   23   -1.2284
   24   -1.0764
   25   -1.0454
   26   -1.0050
   27   -0.9680
   28   -0.8970
   29   -0.8380
   30   -0.8288
   31   -0.7950
   32   -0.7892
   33   -0.7500
   34   -0.7239
   35   -0.7107
   36   -0.6929
   37   -0.6851
   38   -0.6732
   39   -0.6549
   40   -0.6320
   41   -0.6202
   42   -0.6069
   43   -0.5982
   44   -0.5846
   45   -0.5807
   46   -0.5729
   47   -0.5548
   48   -0.5536
   49   -0.5477
   50   -0.5452
   51   -0.5350
   52   -0.5277
   53   -0.5209
   54   -0.5146
   55   -0.4744
   56   -0.4451
   57   -0.4434
   58   -0.4356
   59   -0.4284
   60   -0.4169
   61   -0.4055
   62   -0.3812
   63    0.0257
   64    0.0335
   65    0.0397
   66    0.0450
   67    0.0514
   68    0.0534
   69    0.0574
   70    0.0621
   71    0.0676
   72    0.0685

                       ROHF Final Molecular Orbital Analysis
                       -------------------------------------

 Vector   17  Occ=2.000000D+00  E=-1.408577D+00
              MO Center=  9.1D-01,  2.1D+00,  5.7D-01, r^2= 1.5D+00
   Bfn.  Coefficient  Atom+Function         Bfn.  Coefficient  Atom+Function  
  ----- ------------  ---------------      ----- ------------  ---------------
    80      0.351894   6 O  s                79      0.338849   6 O  s         
    54      0.236231   5 C  s                12      0.197738   2 C  s         

 Vector   18  Occ=2.000000D+00  E=-1.391242D+00
              MO Center= -8.7D-01, -2.5D+00,  7.1D-01, r^2= 3.0D+00
   Bfn.  Coefficient  Atom+Function         Bfn.  Coefficient  Atom+Function  
  ----- ------------  ---------------      ----- ------------  ---------------
   488      0.345039  30 O  s               487      0.321086  30 O  s         
   462      0.232186  29 C  s         

 Vector   19  Occ=2.000000D+00  E=-1.380240D+00
              MO Center= -9.4D-01,  7.1D-02, -7.3D-01, r^2= 3.3D+00
   Bfn.  Coefficient  Atom+Function         Bfn.  Coefficient  Atom+Function  
  ----- ------------  ---------------      ----- ------------  ---------------
   250      0.346903  16 O  s               249      0.321357  16 O  s         
   224      0.226224  15 C  s               488     -0.151550  30 O  s         

 Vector   20  Occ=2.000000D+00  E=-1.347131D+00
              MO Center=  1.8D+00, -6.3D-01, -2.9D-01, r^2= 1.1D+00
   Bfn.  Coefficient  Atom+Function         Bfn.  Coefficient  Atom+Function  
  ----- ------------  ---------------      ----- ------------  ---------------
   429      0.447018  27 O  s               428      0.395175  27 O  s         
   343     -0.246569  21 C  s               314      0.216674  19 C  px        
   463      0.205979  29 C  s               452      0.182508  28 H  s         
   342      0.153251  21 C  s         

 Vector   21  Occ=2.000000D+00  E=-1.263546D+00
              MO Center= -1.8D-01,  2.6D+00,  1.7D-01, r^2= 1.7D+00
   Bfn.  Coefficient  Atom+Function         Bfn.  Coefficient  Atom+Function  
  ----- ------------  ---------------      ----- ------------  ---------------
   105      0.432793   7 N  s               104      0.344214   7 N  s         
    80     -0.217065   6 O  s                79     -0.181083   6 O  s         
   139     -0.167505   9 C  s               128      0.157548   8 H  s         
    57     -0.154966   5 C  px        

 Vector   22  Occ=2.000000D+00  E=-1.237866D+00
              MO Center= -6.6D-01, -4.4D-01,  1.1D-02, r^2= 2.2D+00
   Bfn.  Coefficient  Atom+Function         Bfn.  Coefficient  Atom+Function  
  ----- ------------  ---------------      ----- ------------  ---------------
   275      0.384507  17 N  s               274      0.337430  17 N  s         
   250     -0.211509  16 O  s               249     -0.172500  16 O  s         
   229      0.162958  15 C  pz              298      0.153440  18 H  s         

 Vector   23  Occ=2.000000D+00  E=-1.228420D+00
              MO Center= -9.3D-01, -3.5D+00, -1.7D-01, r^2= 1.8D+00
   Bfn.  Coefficient  Atom+Function         Bfn.  Coefficient  Atom+Function  
  ----- ------------  ---------------      ----- ------------  ---------------
   513      0.386453  31 N  s               512      0.364495  31 N  s         
   488     -0.200772  30 O  s               467     -0.186687  29 C  pz        
   487     -0.176191  30 O  s               536      0.168243  32 H  s         
   309     -0.160607  19 C  s               545      0.155336  33 H  s         

 Vector   24  Occ=2.000000D+00  E=-1.076437D+00
              MO Center= -7.1D-01,  1.6D+00,  9.1D-02, r^2= 6.4D+00
   Bfn.  Coefficient  Atom+Function         Bfn.  Coefficient  Atom+Function  
  ----- ------------  ---------------      ----- ------------  ---------------
   138      0.227582   9 C  s               172      0.182966  11 C  s         

 Vector   25  Occ=2.000000D+00  E=-1.045441D+00
              MO Center=  5.4D-01, -9.3D-01, -7.9D-02, r^2= 7.3D+00
   Bfn.  Coefficient  Atom+Function         Bfn.  Coefficient  Atom+Function  
  ----- ------------  ---------------      ----- ------------  ---------------
   309      0.247184  19 C  s               308      0.193181  19 C  s         
   342      0.191123  21 C  s               376      0.172105  23 C  s         
   225      0.158263  15 C  s         

 Vector   26  Occ=2.000000D+00  E=-1.004987D+00
              MO Center=  6.6D-01,  3.3D+00,  1.4D-02, r^2= 5.3D+00
   Bfn.  Coefficient  Atom+Function         Bfn.  Coefficient  Atom+Function  
  ----- ------------  ---------------      ----- ------------  ---------------
    11      0.313759   2 C  s               172      0.166628  11 C  s         
   174      0.158663  11 C  s               144     -0.154206   9 C  px        

 Vector   27  Occ=2.000000D+00  E=-9.679630D-01
              MO Center=  7.0D-01, -1.7D+00, -2.1D-01, r^2= 6.5D+00
   Bfn.  Coefficient  Atom+Function         Bfn.  Coefficient  Atom+Function  
  ----- ------------  ---------------      ----- ------------  ---------------
   348      0.319774  21 C  px              376      0.265956  23 C  s         
   314      0.234397  19 C  px              349     -0.213361  21 C  py        
   308     -0.191120  19 C  s               309      0.165345  19 C  s         
   139      0.157537   9 C  s         

 Vector   28  Occ=2.000000D+00  E=-8.970436D-01
              MO Center= -1.4D+00,  1.5D+00,  3.0D-02, r^2= 7.1D+00
   Bfn.  Coefficient  Atom+Function         Bfn.  Coefficient  Atom+Function  
  ----- ------------  ---------------      ----- ------------  ---------------
   139      0.326887   9 C  s               145     -0.258297   9 C  py        
   172     -0.232796  11 C  s               225     -0.227696  15 C  s         
   231     -0.217969  15 C  py              138      0.193235   9 C  s         
   144      0.184012   9 C  px              146     -0.157756   9 C  pz        
   160      0.150574   9 C  dyz       

 Vector   29  Occ=2.000000D+00  E=-8.379990D-01
              MO Center=  1.7D-01, -2.3D+00, -1.1D-01, r^2= 6.3D+00
   Bfn.  Coefficient  Atom+Function         Bfn.  Coefficient  Atom+Function  
  ----- ------------  ---------------      ----- ------------  ---------------
   309      0.448947  19 C  s               469     -0.272737  29 C  py        
   516      0.210200  31 N  py              314     -0.207218  19 C  px        
   315     -0.199450  19 C  py              462      0.194865  29 C  s         
   378      0.187014  23 C  s               342     -0.181688  21 C  s         
   545     -0.173254  33 H  s               226     -0.166429  15 C  s         

 Vector   30  Occ=2.000000D+00  E=-8.287851D-01
              MO Center=  1.5D-01,  1.9D+00,  8.2D-02, r^2= 6.5D+00
   Bfn.  Coefficient  Atom+Function         Bfn.  Coefficient  Atom+Function  
  ----- ------------  ---------------      ----- ------------  ---------------
   107      0.289710   7 N  px              128     -0.213024   8 H  s         
    54      0.201611   5 C  s               139      0.173168   9 C  s         
   105     -0.170906   7 N  s                60     -0.163770   5 C  px        
    80     -0.159877   6 O  s         

 Vector   31  Occ=2.000000D+00  E=-7.950096D-01
              MO Center= -2.3D-01,  7.3D-03,  2.2D-02, r^2= 7.4D+00
   Bfn.  Coefficient  Atom+Function         Bfn.  Coefficient  Atom+Function  
  ----- ------------  ---------------      ----- ------------  ---------------
   377     -0.197788  23 C  s               128      0.190189   8 H  s         
   279     -0.188207  17 N  pz              278      0.175397  17 N  py        
   298     -0.166896  18 H  s               225      0.157954  15 C  s         
   224      0.154984  15 C  s         

 Vector   32  Occ=2.000000D+00  E=-7.891643D-01
              MO Center= -3.3D-01, -1.8D+00, -6.0D-02, r^2= 4.6D+00
   Bfn.  Coefficient  Atom+Function         Bfn.  Coefficient  Atom+Function  
  ----- ------------  ---------------      ----- ------------  ---------------
   279      0.245723  17 N  pz              333     -0.231320  20 H  s         
   298      0.227993  18 H  s               225     -0.220214  15 C  s         
   463      0.219230  29 C  s               377     -0.218096  23 C  s         
   275      0.200807  17 N  s               517      0.200925  31 N  pz        
   536     -0.170380  32 H  s               332     -0.161965  20 H  s         

 Vector   33  Occ=2.000000D+00  E=-7.499870D-01
              MO Center= -6.9D-01, -1.9D+00, -2.1D-01, r^2= 7.9D+00
   Bfn.  Coefficient  Atom+Function         Bfn.  Coefficient  Atom+Function  
  ----- ------------  ---------------      ----- ------------  ---------------
   517      0.291312  31 N  pz              536     -0.264508  32 H  s         
   225      0.224343  15 C  s               145      0.209315   9 C  py        
   545      0.172204  33 H  s               377      0.151415  23 C  s         

 Vector   34  Occ=2.000000D+00  E=-7.238527D-01
              MO Center= -1.9D-01, -6.3D-01, -1.8D-01, r^2= 9.5D+00
   Bfn.  Coefficient  Atom+Function         Bfn.  Coefficient  Atom+Function  
  ----- ------------  ---------------      ----- ------------  ---------------
   145      0.247894   9 C  py              225      0.236914  15 C  s         
   545     -0.201183  33 H  s               432     -0.198163  27 O  py        
   516      0.176730  31 N  py              139     -0.175699   9 C  s         
   228     -0.165286  15 C  py              452     -0.156282  28 H  s         

 Vector   35  Occ=2.000000D+00  E=-7.107248D-01
              MO Center=  7.1D-01,  1.4D+00,  1.6D-01, r^2= 7.4D+00
   Bfn.  Coefficient  Atom+Function         Bfn.  Coefficient  Atom+Function  
  ----- ------------  ---------------      ----- ------------  ---------------
    83      0.225577   6 O  py               57      0.211331   5 C  px        
   145     -0.155107   9 C  py              432     -0.151874  27 O  py        

 Vector   36  Occ=2.000000D+00  E=-6.929324D-01
              MO Center= -6.1D-01,  1.8D+00,  1.6D-01, r^2= 5.8D+00
   Bfn.  Coefficient  Atom+Function         Bfn.  Coefficient  Atom+Function  
  ----- ------------  ---------------      ----- ------------  ---------------
   139      0.357264   9 C  s               108      0.229048   7 N  py        
   143      0.228580   9 C  pz              162      0.227890  10 H  s         
   145     -0.218504   9 C  py              231     -0.209112  15 C  py        
   174     -0.196704  11 C  s               225     -0.190072  15 C  s         
   226      0.162585  15 C  s               309      0.160845  19 C  s         

 Vector   37  Occ=2.000000D+00  E=-6.851080D-01
              MO Center=  4.7D-01, -5.1D-01,  1.6D-01, r^2= 7.2D+00
   Bfn.  Coefficient  Atom+Function         Bfn.  Coefficient  Atom+Function  
  ----- ------------  ---------------      ----- ------------  ---------------
   225      0.200952  15 C  s               347      0.194568  21 C  pz        
   366      0.160951  22 H  s                83      0.153300   6 O  py        

 Vector   38  Occ=2.000000D+00  E=-6.731698D-01
              MO Center=  3.3D-01, -8.7D-01,  2.5D-01, r^2= 9.5D+00
   Bfn.  Coefficient  Atom+Function         Bfn.  Coefficient  Atom+Function  
  ----- ------------  ---------------      ----- ------------  ---------------
   466     -0.191383  29 C  py              432      0.186810  27 O  py        
   516      0.157850  31 N  py              488      0.151820  30 O  s         

 Vector   39  Occ=2.000000D+00  E=-6.548694D-01
              MO Center= -1.3D-01, -7.6D-01,  6.3D-02, r^2= 7.5D+00
   Bfn.  Coefficient  Atom+Function         Bfn.  Coefficient  Atom+Function  
  ----- ------------  ---------------      ----- ------------  ---------------
   278     -0.222751  17 N  py              309     -0.206018  19 C  s         
   139      0.203023   9 C  s               312      0.184778  19 C  py        
   516      0.154961  31 N  py        

 Vector   40  Occ=2.000000D+00  E=-6.319626D-01
              MO Center=  7.6D-01,  2.3D+00, -1.8D-01, r^2= 7.0D+00
   Bfn.  Coefficient  Atom+Function         Bfn.  Coefficient  Atom+Function  
  ----- ------------  ---------------      ----- ------------  ---------------
    16      0.234465   2 C  pz              254      0.197233  16 O  pz        
    44      0.194408   4 H  s                59      0.195069   5 C  pz        
    35     -0.186856   3 H  s               139     -0.176040   9 C  s         
   225      0.174585  15 C  s               174     -0.154417  11 C  s         
    84      0.152796   6 O  pz               56      0.150237   5 C  s         

 Vector   41  Occ=2.000000D+00  E=-6.201808D-01
              MO Center= -2.8D-01, -1.4D+00,  2.1D-01, r^2= 8.1D+00
   Bfn.  Coefficient  Atom+Function         Bfn.  Coefficient  Atom+Function  
  ----- ------------  ---------------      ----- ------------  ---------------
   492      0.267810  30 O  pz              139     -0.231940   9 C  s         
   463     -0.221620  29 C  s               467     -0.202643  29 C  pz        
   343      0.191520  21 C  s               314     -0.182188  19 C  px        
   315     -0.181999  19 C  py              488      0.171428  30 O  s         

 Vector   42  Occ=2.000000D+00  E=-6.069048D-01
              MO Center= -6.7D-01,  6.6D-01, -3.8D-01, r^2= 9.5D+00
   Bfn.  Coefficient  Atom+Function         Bfn.  Coefficient  Atom+Function  
  ----- ------------  ---------------      ----- ------------  ---------------
   254      0.310206  16 O  pz              229     -0.227373  15 C  pz        
   492      0.199498  30 O  pz              173     -0.186405  11 C  s         
   250     -0.187304  16 O  s               333     -0.184714  20 H  s         
   344      0.182143  21 C  s               257      0.159345  16 O  pz        
   177      0.153834  11 C  pz               16     -0.151153   2 C  pz        

 Vector   43  Occ=2.000000D+00  E=-5.982150D-01
              MO Center=  1.6D-01,  2.0D+00,  2.7D-01, r^2= 7.5D+00
   Bfn.  Coefficient  Atom+Function         Bfn.  Coefficient  Atom+Function  
  ----- ------------  ---------------      ----- ------------  ---------------
    58      0.266636   5 C  py              139     -0.245338   9 C  s         
   145      0.241981   9 C  py               82      0.236726   6 O  px        
   225      0.235890  15 C  s               176      0.183341  11 C  py        
    83     -0.178697   6 O  py               15     -0.158779   2 C  py        
    85      0.156415   6 O  px               80      0.150668   6 O  s         

 Vector   44  Occ=2.000000D+00  E=-5.846471D-01
              MO Center= -9.2D-02,  1.9D+00, -2.2D-03, r^2= 1.2D+01
   Bfn.  Coefficient  Atom+Function         Bfn.  Coefficient  Atom+Function  
  ----- ------------  ---------------      ----- ------------  ---------------
     1      0.247508   1 H  s                14      0.232141   2 C  px        
   175     -0.213517  11 C  px              205      0.185651  13 H  s         
     2      0.179907   1 H  s         

 Vector   45  Occ=2.000000D+00  E=-5.807383D-01
              MO Center= -1.2D-01,  1.4D+00,  9.4D-02, r^2= 1.2D+01
   Bfn.  Coefficient  Atom+Function         Bfn.  Coefficient  Atom+Function  
  ----- ------------  ---------------      ----- ------------  ---------------
   176     -0.193521  11 C  py                2      0.188945   1 H  s         
     1      0.183923   1 H  s               214     -0.183682  14 H  s         
    14      0.166831   2 C  px              215     -0.158519  14 H  s         
   206      0.151924  13 H  s         

 Vector   46  Occ=2.000000D+00  E=-5.728973D-01
              MO Center= -4.0D-01, -1.2D+00, -1.1D-02, r^2= 7.8D+00
   Bfn.  Coefficient  Atom+Function         Bfn.  Coefficient  Atom+Function  
  ----- ------------  ---------------      ----- ------------  ---------------
   465      0.200432  29 C  px              492      0.184874  30 O  pz        
   225     -0.176269  15 C  s               139      0.171534   9 C  s         
   145     -0.171871   9 C  py              378     -0.159221  23 C  s         
   490      0.150143  30 O  px        

 Vector   47  Occ=2.000000D+00  E=-5.548432D-01
              MO Center=  5.6D-01, -1.8D+00, -1.9D-01, r^2= 6.5D+00
   Bfn.  Coefficient  Atom+Function         Bfn.  Coefficient  Atom+Function  
  ----- ------------  ---------------      ----- ------------  ---------------
   381      0.227115  23 C  pz              418     -0.206374  26 H  s         
   313     -0.202543  19 C  pz              332      0.196159  20 H  s         
   492     -0.186443  30 O  pz              469     -0.180034  29 C  py        
   314     -0.178124  19 C  px              431      0.178502  27 O  px        
   346     -0.172179  21 C  py              378     -0.159782  23 C  s         

 Vector   48  Occ=2.000000D+00  E=-5.535837D-01
              MO Center= -3.0D-01,  9.7D-01,  1.3D-02, r^2= 1.3D+01
   Bfn.  Coefficient  Atom+Function         Bfn.  Coefficient  Atom+Function  
  ----- ------------  ---------------      ----- ------------  ---------------
   206      0.270516  13 H  s               205      0.216456  13 H  s         
   176     -0.194358  11 C  py              139      0.185451   9 C  s         
    14     -0.173333   2 C  px               55     -0.167121   5 C  s         
    12      0.163774   2 C  s                 1     -0.155775   1 H  s         
   464     -0.153810  29 C  s         

 Vector   49  Occ=2.000000D+00  E=-5.477379D-01
              MO Center= -4.8D-01,  2.4D+00, -1.2D-02, r^2= 8.1D+00
   Bfn.  Coefficient  Atom+Function         Bfn.  Coefficient  Atom+Function  
  ----- ------------  ---------------      ----- ------------  ---------------
   177      0.200104  11 C  pz              309     -0.194269  19 C  s         
    16      0.192304   2 C  pz              215      0.183291  14 H  s         
    35     -0.180748   3 H  s               196     -0.164258  12 H  s         
    55      0.160514   5 C  s               214      0.157571  14 H  s         
   175      0.152030  11 C  px        

 Vector   50  Occ=2.000000D+00  E=-5.452031D-01
              MO Center=  5.7D-01, -9.0D-01, -1.6D-01, r^2= 9.2D+00
   Bfn.  Coefficient  Atom+Function         Bfn.  Coefficient  Atom+Function  
  ----- ------------  ---------------      ----- ------------  ---------------
   433      0.235569  27 O  pz              436      0.171084  27 O  pz        
   315     -0.168836  19 C  py              379      0.169063  23 C  px        
   333      0.160415  20 H  s               346      0.160427  21 C  py        
   377     -0.157306  23 C  s               430     -0.150855  27 O  s         

 Vector   51  Occ=2.000000D+00  E=-5.349758D-01
              MO Center=  2.1D-01, -2.0D-01, -1.7D-01, r^2= 1.2D+01
   Bfn.  Coefficient  Atom+Function         Bfn.  Coefficient  Atom+Function  
  ----- ------------  ---------------      ----- ------------  ---------------
   463      0.275253  29 C  s               409      0.238646  25 H  s         
   380     -0.221925  23 C  py              315      0.208003  19 C  py        
   410      0.192769  25 H  s               344     -0.191446  21 C  s         
   309     -0.175653  19 C  s               197     -0.171370  12 H  s         
   214      0.153730  14 H  s         

 Vector   52  Occ=2.000000D+00  E=-5.277439D-01
              MO Center=  7.0D-01, -9.4D-01, -2.3D-01, r^2= 9.7D+00
   Bfn.  Coefficient  Atom+Function         Bfn.  Coefficient  Atom+Function  
  ----- ------------  ---------------      ----- ------------  ---------------
   381      0.207380  23 C  pz              409      0.198670  25 H  s         
   418     -0.197093  26 H  s               419     -0.190006  26 H  s         
   431     -0.189328  27 O  px              410      0.180724  25 H  s         
   380     -0.157170  23 C  py              434     -0.151039  27 O  px        

 Vector   53  Occ=2.000000D+00  E=-5.209123D-01
              MO Center= -1.8D-01,  1.0D+00,  7.8D-02, r^2= 1.0D+01
   Bfn.  Coefficient  Atom+Function         Bfn.  Coefficient  Atom+Function  
  ----- ------------  ---------------      ----- ------------  ---------------
   162      0.213221  10 H  s               174      0.207980  11 C  s         
   143      0.198513   9 C  pz              196      0.194101  12 H  s         
   177     -0.191453  11 C  pz              163      0.187339  10 H  s         
   178     -0.185958  11 C  px               84     -0.183380   6 O  pz        
   401     -0.165409  24 H  s               400     -0.160331  24 H  s         

 Vector   54  Occ=2.000000D+00  E=-5.146278D-01
              MO Center=  6.6D-01, -5.9D-01, -3.9D-01, r^2= 8.5D+00
   Bfn.  Coefficient  Atom+Function         Bfn.  Coefficient  Atom+Function  
  ----- ------------  ---------------      ----- ------------  ---------------
   401     -0.229052  24 H  s               252      0.215221  16 O  px        
   400     -0.214777  24 H  s               379     -0.197393  23 C  px        
   314     -0.181802  19 C  px              433      0.181429  27 O  pz        
   255      0.166991  16 O  px              227      0.151435  15 C  px        

 Vector   55  Occ=2.000000D+00  E=-4.743894D-01
              MO Center=  1.4D+00, -1.2D+00, -2.7D-01, r^2= 4.8D+00
   Bfn.  Coefficient  Atom+Function         Bfn.  Coefficient  Atom+Function  
  ----- ------------  ---------------      ----- ------------  ---------------
   344      0.266761  21 C  s               377      0.254892  23 C  s         
   431     -0.240028  27 O  px              347     -0.224085  21 C  pz        
   383      0.221379  23 C  py              380      0.215223  23 C  py        
   226     -0.194418  15 C  s               433      0.193269  27 O  pz        
   366     -0.187746  22 H  s               430     -0.177569  27 O  s         

 Vector   56  Occ=2.000000D+00  E=-4.451021D-01
              MO Center=  5.4D-01,  8.4D-01,  6.9D-02, r^2= 6.5D+00
   Bfn.  Coefficient  Atom+Function         Bfn.  Coefficient  Atom+Function  
  ----- ------------  ---------------      ----- ------------  ---------------
    82      0.276392   6 O  px              253      0.234957  16 O  py        
    85      0.223232   6 O  px               84     -0.205269   6 O  pz        
   109      0.204082   7 N  pz              431      0.194538  27 O  px        
   256      0.180227  16 O  py              112      0.175653   7 N  pz        
    87     -0.159492   6 O  pz              434      0.156945  27 O  px        

 Vector   57  Occ=2.000000D+00  E=-4.434118D-01
              MO Center=  8.3D-01,  1.6D+00,  3.1D-01, r^2= 4.8D+00
   Bfn.  Coefficient  Atom+Function         Bfn.  Coefficient  Atom+Function  
  ----- ------------  ---------------      ----- ------------  ---------------
    82      0.379486   6 O  px               85      0.309444   6 O  px        
    83      0.253232   6 O  py              276      0.226139  17 N  s         
    86      0.196693   6 O  py              252      0.174677  16 O  px        
    15      0.165786   2 C  py              107      0.158899   7 N  px        

 Vector   58  Occ=2.000000D+00  E=-4.355967D-01
              MO Center=  3.4D-01, -6.8D-01,  1.0D-01, r^2= 7.2D+00
   Bfn.  Coefficient  Atom+Function         Bfn.  Coefficient  Atom+Function  
  ----- ------------  ---------------      ----- ------------  ---------------
   344     -0.290034  21 C  s               226      0.275364  15 C  s         
   433     -0.264208  27 O  pz              491      0.234313  30 O  py        
   253      0.229914  16 O  py              367      0.223131  22 H  s         
   436     -0.198582  27 O  pz              377     -0.195944  23 C  s         
   494      0.190444  30 O  py              366      0.185863  22 H  s         

 Vector   59  Occ=2.000000D+00  E=-4.284459D-01
              MO Center= -3.6D-01, -1.6D+00,  3.2D-01, r^2= 5.9D+00
   Bfn.  Coefficient  Atom+Function         Bfn.  Coefficient  Atom+Function  
  ----- ------------  ---------------      ----- ------------  ---------------
   491      0.367631  30 O  py              309      0.328356  19 C  s         
   494      0.291263  30 O  py              378     -0.279052  23 C  s         
   318      0.240859  19 C  py              333     -0.223676  20 H  s         
   469     -0.212368  29 C  py              344      0.203089  21 C  s         
   277      0.200350  17 N  px              431      0.186957  27 O  px        

 Vector   60  Occ=2.000000D+00  E=-4.168584D-01
              MO Center= -9.2D-01, -3.4D+00,  4.1D-01, r^2= 2.6D+00
   Bfn.  Coefficient  Atom+Function         Bfn.  Coefficient  Atom+Function  
  ----- ------------  ---------------      ----- ------------  ---------------
   515      0.386253  31 N  px              490     -0.341650  30 O  px        
   518      0.342575  31 N  px              493     -0.271494  30 O  px        
   226     -0.258170  15 C  s               491      0.218587  30 O  py        
   309      0.211266  19 C  s               494      0.172372  30 O  py        
   516     -0.152386  31 N  py        

 Vector   61  Occ=2.000000D+00  E=-4.054506D-01
              MO Center= -5.8D-01,  1.3D+00, -3.1D-01, r^2= 4.7D+00
   Bfn.  Coefficient  Atom+Function         Bfn.  Coefficient  Atom+Function  
  ----- ------------  ---------------      ----- ------------  ---------------
   253      0.355255  16 O  py              256      0.292960  16 O  py        
   109     -0.268853   7 N  pz              112     -0.242845   7 N  pz        
   234     -0.221943  15 C  py               84      0.183922   6 O  pz        
   344     -0.167312  21 C  s               317      0.162954  19 C  px        
   231     -0.156209  15 C  py              143      0.154152   9 C  pz        

 Vector   62  Occ=2.000000D+00  E=-3.812248D-01
              MO Center= -3.0D-01, -5.0D-01, -1.8D-01, r^2= 4.6D+00
   Bfn.  Coefficient  Atom+Function         Bfn.  Coefficient  Atom+Function  
  ----- ------------  ---------------      ----- ------------  ---------------
   277      0.340866  17 N  px              280      0.324034  17 N  px        
   252     -0.292386  16 O  px              276     -0.281455  17 N  s         
   255     -0.238153  16 O  px              378      0.179019  23 C  s         
   226      0.177269  15 C  s               311     -0.175368  19 C  px        
   344     -0.167404  21 C  s               345      0.163441  21 C  px        

 Vector   63  Occ=0.000000D+00  E= 2.574761D-02
              MO Center= -1.1D+00,  5.2D+00,  5.1D-01, r^2= 1.9D+01
   Bfn.  Coefficient  Atom+Function         Bfn.  Coefficient  Atom+Function  
  ----- ------------  ---------------      ----- ------------  ---------------
   106      3.128499   7 N  s               226     -2.951156  15 C  s         
   234     -2.957171  15 C  py              216      2.579303  14 H  s         
    56     -2.256566   5 C  s               318     -1.947159  19 C  py        
    46      1.909552   4 H  s               233      1.879576  15 C  px        
   464     -1.822571  29 C  s               148     -1.648200   9 C  py        

 Vector   64  Occ=0.000000D+00  E= 3.345708D-02
              MO Center= -1.0D+00, -5.1D+00, -1.5D+00, r^2= 1.9D+01
   Bfn.  Coefficient  Atom+Function         Bfn.  Coefficient  Atom+Function  
  ----- ------------  ---------------      ----- ------------  ---------------
   514      4.362492  31 N  s               464     -3.790178  29 C  s         
   226     -3.405610  15 C  s               472      2.728348  29 C  py        
   547      2.071738  33 H  s               538      1.922322  32 H  s         
   310     -1.824969  19 C  s               318      1.745532  19 C  py        
   473      1.540613  29 C  pz              140     -1.298446   9 C  s         

 Vector   65  Occ=0.000000D+00  E= 3.969586D-02
              MO Center= -8.3D-01,  3.5D+00,  3.6D-01, r^2= 3.5D+01
   Bfn.  Coefficient  Atom+Function         Bfn.  Coefficient  Atom+Function  
  ----- ------------  ---------------      ----- ------------  ---------------
   147      3.913842   9 C  px               64      3.063564   5 C  py        
    63      2.740650   5 C  px               12      2.619887   2 C  s         
    56     -2.265026   5 C  s               216      2.203531  14 H  s         
   207      1.923121  13 H  s               174      1.905229  11 C  s         
   173     -1.591108  11 C  s               181      1.554759  11 C  px        

 Vector   66  Occ=0.000000D+00  E= 4.499097D-02
              MO Center= -6.6D-01,  3.1D+00,  3.6D-01, r^2= 3.0D+01
   Bfn.  Coefficient  Atom+Function         Bfn.  Coefficient  Atom+Function  
  ----- ------------  ---------------      ----- ------------  ---------------
   164      4.570016  10 H  s               226     -4.280170  15 C  s         
   198     -2.658343  12 H  s               344      2.641164  21 C  s         
   317     -2.439291  19 C  px              149     -2.396240   9 C  pz        
   276      2.379755  17 N  s               284      2.112818  17 N  py        
   368      2.053881  22 H  s                 3      2.012340   1 H  s         

 Vector   67  Occ=0.000000D+00  E= 5.141991D-02
              MO Center=  5.6D-01,  1.2D+00, -2.7D-01, r^2= 4.4D+01
   Bfn.  Coefficient  Atom+Function         Bfn.  Coefficient  Atom+Function  
  ----- ------------  ---------------      ----- ------------  ---------------
   174      2.502219  11 C  s               402     -2.423080  24 H  s         
    46      2.381387   4 H  s               207     -2.327425  13 H  s         
     3     -2.249763   1 H  s               464      2.066658  29 C  s         
   106      1.957765   7 N  s               472      1.932637  29 C  py        
   130      1.887543   8 H  s                37     -1.773899   3 H  s         

 Vector   68  Occ=0.000000D+00  E= 5.340596D-02
              MO Center=  1.2D+00, -1.5D+00, -4.9D-01, r^2= 4.4D+01
   Bfn.  Coefficient  Atom+Function         Bfn.  Coefficient  Atom+Function  
  ----- ------------  ---------------      ----- ------------  ---------------
   226      3.709001  15 C  s               351      2.839017  21 C  px        
   317      2.752782  19 C  px              216     -2.676777  14 H  s         
   464      2.619641  29 C  s               402     -2.548927  24 H  s         
   334      2.532595  20 H  s               207      2.369007  13 H  s         
   174     -2.176185  11 C  s               377      2.128585  23 C  s         

 Vector   69  Occ=0.000000D+00  E= 5.742750D-02
              MO Center=  3.4D-01, -3.7D+00, -1.0D+00, r^2= 2.9D+01
   Bfn.  Coefficient  Atom+Function         Bfn.  Coefficient  Atom+Function  
  ----- ------------  ---------------      ----- ------------  ---------------
   420      3.062649  26 H  s               411     -2.826714  25 H  s         
   344      2.599296  21 C  s               538      2.401029  32 H  s         
   547     -2.410423  33 H  s               514     -2.122760  31 N  s         
   226     -1.816269  15 C  s               319      1.730324  19 C  pz        
   464      1.738374  29 C  s               472     -1.460743  29 C  py        

 Vector   70  Occ=0.000000D+00  E= 6.214259D-02
              MO Center= -3.0D-01,  2.8D+00,  7.3D-01, r^2= 3.2D+01
   Bfn.  Coefficient  Atom+Function         Bfn.  Coefficient  Atom+Function  
  ----- ------------  ---------------      ----- ------------  ---------------
   164      5.830883  10 H  s               149     -2.891498   9 C  pz        
    37      2.789902   3 H  s                46     -2.450968   4 H  s         
     3     -2.387119   1 H  s               106      2.351602   7 N  s         
   207     -2.193971  13 H  s               378     -2.160311  23 C  s         
    63      2.091274   5 C  px              130      2.011349   8 H  s         

 Vector   71  Occ=0.000000D+00  E= 6.762161D-02
              MO Center= -4.7D-01,  2.6D+00,  4.2D-01, r^2= 4.3D+01
   Bfn.  Coefficient  Atom+Function         Bfn.  Coefficient  Atom+Function  
  ----- ------------  ---------------      ----- ------------  ---------------
   216      5.200153  14 H  s                63     -3.861107   5 C  px        
    46     -3.644590   4 H  s               207     -3.283604  13 H  s         
     3      3.067104   1 H  s                13      3.041207   2 C  s         
   234     -2.848694  15 C  py               56      2.807581   5 C  s         
   113     -2.812555   7 N  px              378      2.091254  23 C  s         

 Vector   72  Occ=0.000000D+00  E= 6.846936D-02
              MO Center=  3.5D-01,  6.7D-01, -4.1D-01, r^2= 4.1D+01
   Bfn.  Coefficient  Atom+Function         Bfn.  Coefficient  Atom+Function  
  ----- ------------  ---------------      ----- ------------  ---------------
   368      4.746315  22 H  s               198      3.617439  12 H  s         
   353     -3.535683  21 C  pz               56      3.374432   5 C  s         
   378     -3.348247  23 C  s               207     -3.312208  13 H  s         
    37     -2.825025   3 H  s               352     -2.828430  21 C  py        
     3      2.711445   1 H  s               319      2.646400  19 C  pz        

 Vector   73  Occ=0.000000D+00  E= 7.729918D-02
              MO Center=  1.0D+00, -1.7D+00, -2.2D-01, r^2= 4.3D+01
   Bfn.  Coefficient  Atom+Function         Bfn.  Coefficient  Atom+Function  
  ----- ------------  ---------------      ----- ------------  ---------------
   226      6.630413  15 C  s               411      5.757676  25 H  s         
   402     -5.093512  24 H  s               317      4.844457  19 C  px        
   378     -4.562581  23 C  s               464      4.338996  29 C  s         
   198      4.301593  12 H  s               234     -3.988761  15 C  py        
   344     -3.920056  21 C  s               318     -3.561869  19 C  py        

 Vector   74  Occ=0.000000D+00  E= 8.016608D-02
              MO Center=  6.5D-02, -9.1D-01, -4.4D-01, r^2= 4.3D+01
   Bfn.  Coefficient  Atom+Function         Bfn.  Coefficient  Atom+Function  
  ----- ------------  ---------------      ----- ------------  ---------------
   368      4.586974  22 H  s               198     -4.027793  12 H  s         
   234      3.904149  15 C  py              344      3.852049  21 C  s         
   420     -3.622157  26 H  s               538      3.575129  32 H  s         
   164     -3.457468  10 H  s               353     -3.105719  21 C  pz        
   318      2.635452  19 C  py              547     -2.545394  33 H  s         

 Vector   75  Occ=0.000000D+00  E= 8.685344D-02
              MO Center=  3.1D-01,  1.3D+00, -7.3D-01, r^2= 3.8D+01
   Bfn.  Coefficient  Atom+Function         Bfn.  Coefficient  Atom+Function  
  ----- ------------  ---------------      ----- ------------  ---------------
   334      7.355907  20 H  s               130     -5.284612   8 H  s         
    56     -4.485988   5 C  s               147      4.364768   9 C  px        
   420     -4.115857  26 H  s               300     -3.677465  18 H  s         
     3     -3.618761   1 H  s               319      3.305357  19 C  pz        
   198      3.085965  12 H  s               164      2.967141  10 H  s         

 Vector   76  Occ=0.000000D+00  E= 8.783788D-02
              MO Center=  1.0D+00, -1.8D+00, -2.8D-01, r^2= 3.6D+01
   Bfn.  Coefficient  Atom+Function         Bfn.  Coefficient  Atom+Function  
  ----- ------------  ---------------      ----- ------------  ---------------
   420      5.154759  26 H  s               368      4.563685  22 H  s         
   164     -4.463351  10 H  s               402     -4.230371  24 H  s         
   538     -4.073006  32 H  s               234      3.852087  15 C  py        
   276      3.799795  17 N  s                56      3.736811   5 C  s         
   334      3.592086  20 H  s               174     -3.514890  11 C  s         

 Vector   77  Occ=0.000000D+00  E= 9.198991D-02
              MO Center=  2.1D-01, -5.8D-01, -1.0D+00, r^2= 4.0D+01
   Bfn.  Coefficient  Atom+Function         Bfn.  Coefficient  Atom+Function  
  ----- ------------  ---------------      ----- ------------  ---------------
   334     -7.135057  20 H  s               226      6.728663  15 C  s         
   276     -6.753675  17 N  s               464      5.776917  29 C  s         
   174     -5.631054  11 C  s               411     -5.492921  25 H  s         
   140      3.984640   9 C  s               318      3.604041  19 C  py        
    13     -3.330147   2 C  s               368      3.289536  22 H  s         

 Vector   78  Occ=0.000000D+00  E= 9.932740D-02
              MO Center= -2.1D-02,  9.6D-01,  9.3D-01, r^2= 3.6D+01
   Bfn.  Coefficient  Atom+Function         Bfn.  Coefficient  Atom+Function  
  ----- ------------  ---------------      ----- ------------  ---------------
   226     10.144223  15 C  s               344     -9.622258  21 C  s         
    56     -8.850605   5 C  s               464      7.717966  29 C  s         
   276     -7.090889  17 N  s               300     -4.730368  18 H  s         
   147      4.411778   9 C  px              454      4.226295  28 H  s         
   207      3.965726  13 H  s                64      3.514492   5 C  py        

 Vector   79  Occ=0.000000D+00  E= 1.129673D-01
              MO Center=  4.3D-01,  7.3D-01,  3.9D-01, r^2= 3.5D+01
   Bfn.  Coefficient  Atom+Function         Bfn.  Coefficient  Atom+Function  
  ----- ------------  ---------------      ----- ------------  ---------------
   454     10.496740  28 H  s               164     -8.957092  10 H  s         
   300      8.442868  18 H  s               368     -6.653153  22 H  s         
   464     -6.565491  29 C  s               334     -6.173399  20 H  s         
    63     -5.687419   5 C  px              352     -5.652969  21 C  py        
   234     -4.595478  15 C  py              149      4.360278   9 C  pz        

 Vector   80  Occ=0.000000D+00  E= 1.201220D-01
              MO Center= -6.1D-01, -6.0D-01, -3.6D-01, r^2= 3.4D+01
   Bfn.  Coefficient  Atom+Function         Bfn.  Coefficient  Atom+Function  
  ----- ------------  ---------------      ----- ------------  ---------------
   226    -12.850406  15 C  s               174     12.271579  11 C  s         
   344     12.116560  21 C  s               378    -12.062888  23 C  s         
   234     -9.516499  15 C  py              514     -6.558042  31 N  s         
   235     -5.886960  15 C  pz              284      4.982500  17 N  py        
   368      4.967264  22 H  s               334     -4.579831  20 H  s         

 Vector   81  Occ=0.000000D+00  E= 1.271274D-01
              MO Center= -2.5D-01, -4.2D-01,  6.2D-01, r^2= 3.7D+01
   Bfn.  Coefficient  Atom+Function         Bfn.  Coefficient  Atom+Function  
  ----- ------------  ---------------      ----- ------------  ---------------
   378     17.288666  23 C  s               464    -15.058995  29 C  s         
   226    -14.037796  15 C  s               174     12.013704  11 C  s         
   514      9.358650  31 N  s               334     -9.306149  20 H  s         
   140     -8.837972   9 C  s               473      8.131108  29 C  pz        
   234     -7.965962  15 C  py               56     -6.798526   5 C  s         

 Vector   82  Occ=0.000000D+00  E= 1.308492D-01
              MO Center=  5.0D-01,  1.3D+00,  7.3D-01, r^2= 3.3D+01
   Bfn.  Coefficient  Atom+Function         Bfn.  Coefficient  Atom+Function  
  ----- ------------  ---------------      ----- ------------  ---------------
   378      9.092077  23 C  s               454     -6.025091  28 H  s         
   464     -5.681583  29 C  s                56     -5.283834   5 C  s         
   514      5.080257  31 N  s               352      4.983871  21 C  py        
   234      4.936377  15 C  py              147      4.646969   9 C  px        
   473      4.158192  29 C  pz              402      3.542920  24 H  s         

 Vector   83  Occ=0.000000D+00  E= 1.313168D-01
              MO Center= -1.4D+00,  5.3D-01, -1.2D-01, r^2= 3.5D+01
   Bfn.  Coefficient  Atom+Function         Bfn.  Coefficient  Atom+Function  
  ----- ------------  ---------------      ----- ------------  ---------------
   226     24.750351  15 C  s               174    -16.743864  11 C  s         
   344    -10.453500  21 C  s                56      9.144738   5 C  s         
   378      9.154880  23 C  s               148      8.748688   9 C  py        
   147     -7.975719   9 C  px              106     -6.542202   7 N  s         
   140      6.274609   9 C  s               235      6.142390  15 C  pz        

 Vector   84  Occ=0.000000D+00  E= 1.372881D-01
              MO Center= -5.7D-01,  5.4D-01,  3.9D-01, r^2= 3.4D+01
   Bfn.  Coefficient  Atom+Function         Bfn.  Coefficient  Atom+Function  
  ----- ------------  ---------------      ----- ------------  ---------------
   344      9.924721  21 C  s               226     -9.016167  15 C  s         
    56      8.479835   5 C  s               514      8.157750  31 N  s         
   318      8.009764  19 C  py              317     -7.728108  19 C  px        
   106     -7.274226   7 N  s               464     -6.690059  29 C  s         
   234      6.485130  15 C  py              149      5.445696   9 C  pz        

 Vector   85  Occ=0.000000D+00  E= 1.420535D-01
              MO Center= -9.4D-01,  9.4D-01,  3.3D-01, r^2= 3.2D+01
   Bfn.  Coefficient  Atom+Function         Bfn.  Coefficient  Atom+Function  
  ----- ------------  ---------------      ----- ------------  ---------------
    56     10.845378   5 C  s               378    -10.036784  23 C  s         
   226      9.248564  15 C  s               464      8.965094  29 C  s         
   106     -8.170995   7 N  s               147     -7.875173   9 C  px        
    63     -7.801018   5 C  px              174     -7.603172  11 C  s         
   276     -4.523320  17 N  s               514     -4.545413  31 N  s         

 Vector   86  Occ=0.000000D+00  E= 1.472735D-01
              MO Center=  2.8D-01,  5.7D-01, -6.5D-01, r^2= 3.5D+01
   Bfn.  Coefficient  Atom+Function         Bfn.  Coefficient  Atom+Function  
  ----- ------------  ---------------      ----- ------------  ---------------
   344     13.735195  21 C  s               378    -10.647536  23 C  s         
   464      7.945377  29 C  s               310      6.988238  19 C  s         
   234      5.917078  15 C  py              514     -5.844316  31 N  s         
   352     -5.662774  21 C  py              106     -4.697221   7 N  s         
    64      4.648297   5 C  py              147      4.314926   9 C  px        

 Vector   87  Occ=0.000000D+00  E= 1.489700D-01
              MO Center= -4.0D-01, -1.4D+00,  1.2D-01, r^2= 3.3D+01
   Bfn.  Coefficient  Atom+Function         Bfn.  Coefficient  Atom+Function  
  ----- ------------  ---------------      ----- ------------  ---------------
   344    -12.642288  21 C  s               317     12.269738  19 C  px        
   226     10.308972  15 C  s               318     -6.127230  19 C  py        
   234     -5.917651  15 C  py              378     -5.754511  23 C  s         
   472      5.129980  29 C  py              233      3.736900  15 C  px        
   351      3.581276  21 C  px              514      3.443207  31 N  s         

 Vector   88  Occ=0.000000D+00  E= 1.525315D-01
              MO Center=  6.1D-02,  8.4D-01,  7.6D-01, r^2= 3.5D+01
[...]
   Bfn.  Coefficient  Atom+Function         Bfn.  Coefficient  Atom+Function  
  ----- ------------  ---------------      ----- ------------  ---------------
   226      7.486410  15 C  s               284     -7.517150  17 N  py        
   464      7.074436  29 C  s               106     -6.257847   7 N  s         
   367     -5.937388  22 H  s               317      5.547505  19 C  px        
   206     -5.060771  13 H  s               276     -4.956974  17 N  s         
   319      4.681838  19 C  pz              173      4.202677  11 C  s         

 Vector  155  Occ=0.000000D+00  E= 4.314838D-01
              MO Center= -3.7D-01, -1.8D-01, -3.3D-02, r^2= 2.1D+01
   Bfn.  Coefficient  Atom+Function         Bfn.  Coefficient  Atom+Function  
  ----- ------------  ---------------      ----- ------------  ---------------
   174      8.322598  11 C  s                12      7.263711   2 C  s         
   226     -6.357809  15 C  s               148     -6.092884   9 C  py        
   378      6.083494  23 C  s               464     -5.868642  29 C  s         
    13      5.733643   2 C  s               233      5.568757  15 C  px        
   317     -5.234070  19 C  px                2     -4.817278   1 H  s         

 Vector  156  Occ=0.000000D+00  E= 4.386875D-01
              MO Center=  2.2D-01, -5.2D-01, -1.4D-01, r^2= 2.3D+01
   Bfn.  Coefficient  Atom+Function         Bfn.  Coefficient  Atom+Function  
  ----- ------------  ---------------      ----- ------------  ---------------
   276     12.716744  17 N  s               464    -12.232954  29 C  s         
   235    -10.945491  15 C  pz              318     -9.803654  19 C  py        
   353      6.223883  21 C  pz               81      4.961366   6 O  s         
   319     -4.938415  19 C  pz              148     -4.815292   9 C  py        
   147     -4.643391   9 C  px              233      4.493749  15 C  px        

 Vector  157  Occ=0.000000D+00  E= 4.422348D-01
              MO Center=  1.2D-01,  3.1D-01, -1.0D-01, r^2= 2.2D+01
   Bfn.  Coefficient  Atom+Function         Bfn.  Coefficient  Atom+Function  
  ----- ------------  ---------------      ----- ------------  ---------------
   234     12.236686  15 C  py              226     11.929193  15 C  s         
   378     10.059290  23 C  s               276     -9.984532  17 N  s         
   318      9.002266  19 C  py              174     -6.495809  11 C  s         
   344     -6.485433  21 C  s               317     -6.358082  19 C  px        
   140      6.292364   9 C  s                63      5.750571   5 C  px        

 Vector  158  Occ=0.000000D+00  E= 4.447286D-01
              MO Center= -1.6D-01,  5.0D-01,  2.8D-02, r^2= 2.1D+01
   Bfn.  Coefficient  Atom+Function         Bfn.  Coefficient  Atom+Function  
  ----- ------------  ---------------      ----- ------------  ---------------
   464     11.569605  29 C  s               106     10.493218   7 N  s         
    56    -10.054553   5 C  s               319      9.631337  19 C  pz        
   276     -9.126652  17 N  s               514     -7.471940  31 N  s         
   226      7.315053  15 C  s               174      6.883156  11 C  s         
   173      6.729940  11 C  s               344     -6.617863  21 C  s         

 Vector  159  Occ=0.000000D+00  E= 4.475722D-01
              MO Center=  3.2D-01, -3.4D-01,  3.6D-02, r^2= 2.0D+01
   Bfn.  Coefficient  Atom+Function         Bfn.  Coefficient  Atom+Function  
  ----- ------------  ---------------      ----- ------------  ---------------
   226     17.218812  15 C  s               344    -14.326176  21 C  s         
    56     -9.650173   5 C  s               276     -8.670500  17 N  s         
   318      7.907899  19 C  py              113      7.170269   7 N  px        
   464      7.186022  29 C  s               235      7.048236  15 C  pz        
   140      6.043552   9 C  s               106     -5.741582   7 N  s         

 Vector  160  Occ=0.000000D+00  E= 4.521998D-01
              MO Center=  4.2D-01,  6.8D-01, -3.4D-01, r^2= 2.3D+01
   Bfn.  Coefficient  Atom+Function         Bfn.  Coefficient  Atom+Function  
  ----- ------------  ---------------      ----- ------------  ---------------
   234     10.963555  15 C  py              344     10.175990  21 C  s         
   378      9.815233  23 C  s               174     -8.248222  11 C  s         
   351     -8.006119  21 C  px              226     -7.546659  15 C  s         
   317     -7.226840  19 C  px              319     -5.542610  19 C  pz        
   334     -5.405275  20 H  s               454      4.709265  28 H  s         

 Vector  161  Occ=0.000000D+00  E= 4.568722D-01
              MO Center=  4.8D-01, -5.2D-01, -1.9D-01, r^2= 2.3D+01
   Bfn.  Coefficient  Atom+Function         Bfn.  Coefficient  Atom+Function  
  ----- ------------  ---------------      ----- ------------  ---------------
   174     21.947294  11 C  s                56    -11.762357   5 C  s         
   147     10.324402   9 C  px               12      8.079155   2 C  s         
   352      6.942995  21 C  py              464      6.551377  29 C  s         
   197     -6.250528  12 H  s                36     -6.040027   3 H  s         
   173      5.847526  11 C  s               181      5.392776  11 C  px        

 Vector  162  Occ=0.000000D+00  E= 4.641255D-01
              MO Center= -6.7D-03,  6.2D-01,  3.3D-02, r^2= 2.2D+01
   Bfn.  Coefficient  Atom+Function         Bfn.  Coefficient  Atom+Function  
  ----- ------------  ---------------      ----- ------------  ---------------
   464     22.220366  29 C  s               276    -19.261624  17 N  s         
   344     17.617738  21 C  s               234     17.008547  15 C  py        
   174    -16.579042  11 C  s               514    -13.214880  31 N  s         
   140     13.087623   9 C  s               318     12.139248  19 C  py        
    13    -11.468726   2 C  s               233     -9.429266  15 C  px        

 Vector  163  Occ=0.000000D+00  E= 4.690679D-01
              MO Center=  1.7D-01,  3.0D-01, -1.5D-01, r^2= 2.1D+01
   Bfn.  Coefficient  Atom+Function         Bfn.  Coefficient  Atom+Function  
  ----- ------------  ---------------      ----- ------------  ---------------
   226     12.745224  15 C  s               174     -9.229372  11 C  s         
    56      8.204443   5 C  s               106     -7.325770   7 N  s         
   344     -6.871334  21 C  s               173     -5.796599  11 C  s         
   514      4.985078  31 N  s               206      4.573870  13 H  s         
   378      4.266537  23 C  s               377      4.221014  23 C  s         

 Vector  164  Occ=0.000000D+00  E= 4.738416D-01
              MO Center= -9.9D-01,  4.6D-01, -1.6D-01, r^2= 2.0D+01
   Bfn.  Coefficient  Atom+Function         Bfn.  Coefficient  Atom+Function  
  ----- ------------  ---------------      ----- ------------  ---------------
   174     22.993460  11 C  s               226    -18.376390  15 C  s         
   344     11.128530  21 C  s               378    -10.805972  23 C  s         
   147      8.611401   9 C  px              197     -8.314342  12 H  s         
    56     -7.200097   5 C  s               514     -6.423080  31 N  s         
   352     -6.232769  21 C  py              181      5.982703  11 C  px        

 Vector  165  Occ=0.000000D+00  E= 4.790417D-01
              MO Center=  9.4D-02, -9.0D-02,  4.7D-03, r^2= 1.9D+01
   Bfn.  Coefficient  Atom+Function         Bfn.  Coefficient  Atom+Function  
  ----- ------------  ---------------      ----- ------------  ---------------
   344     16.816546  21 C  s                56     12.998417   5 C  s         
   318    -11.318249  19 C  py              226    -10.823042  15 C  s         
   378    -10.728168  23 C  s               276      8.839483  17 N  s         
   113     -8.147493   7 N  px              367     -7.484782  22 H  s         
   284      7.188479  17 N  py              174     -6.643526  11 C  s         

 Vector  166  Occ=0.000000D+00  E= 4.818894D-01
              MO Center=  1.5D-01,  5.0D-01, -2.4D-01, r^2= 2.1D+01
   Bfn.  Coefficient  Atom+Function         Bfn.  Coefficient  Atom+Function  
  ----- ------------  ---------------      ----- ------------  ---------------
   226     32.375553  15 C  s               174    -22.143193  11 C  s         
   464     16.463332  29 C  s                13    -15.408981   2 C  s         
   378    -15.075925  23 C  s               140     14.170681   9 C  s         
   276    -14.016300  17 N  s               284    -11.614845  17 N  py        
   514    -10.627258  31 N  s               173    -10.209337  11 C  s         

 Vector  167  Occ=0.000000D+00  E= 4.852227D-01
              MO Center=  6.5D-01, -8.4D-01, -1.1D-01, r^2= 2.0D+01
   Bfn.  Coefficient  Atom+Function         Bfn.  Coefficient  Atom+Function  
  ----- ------------  ---------------      ----- ------------  ---------------
   318     11.588837  19 C  py               56    -10.511803   5 C  s         
   174      8.863544  11 C  s               378      7.916751  23 C  s         
   173      7.441588  11 C  s               226     -7.369305  15 C  s         
   276     -6.934310  17 N  s               353      6.334434  21 C  pz        
   514      5.232660  31 N  s               215     -5.113515  14 H  s         

 Vector  168  Occ=0.000000D+00  E= 4.921150D-01
              MO Center=  7.2D-01, -1.1D+00,  8.2D-02, r^2= 1.8D+01
   Bfn.  Coefficient  Atom+Function         Bfn.  Coefficient  Atom+Function  
  ----- ------------  ---------------      ----- ------------  ---------------
   174     12.675346  11 C  s               318    -11.199449  19 C  py        
   344    -10.245921  21 C  s               378      7.864160  23 C  s         
    56     -7.383436   5 C  s               514     -5.758011  31 N  s         
   285     -5.679314  17 N  pz              352      5.688067  21 C  py        
   147      5.415971   9 C  px              276      5.373489  17 N  s         

 Vector  169  Occ=0.000000D+00  E= 4.952128D-01
              MO Center= -3.8D-01,  5.9D-02, -1.4D-02, r^2= 2.1D+01
   Bfn.  Coefficient  Atom+Function         Bfn.  Coefficient  Atom+Function  
  ----- ------------  ---------------      ----- ------------  ---------------
   226     23.961229  15 C  s               344    -14.333600  21 C  s         
   174    -13.853333  11 C  s               464     11.755249  29 C  s         
   234     10.223437  15 C  py              378     -9.234326  23 C  s         
   284     -7.079007  17 N  py              489     -7.090901  30 O  s         
   351      6.759718  21 C  px              140      6.566511   9 C  s         

 Vector  170  Occ=0.000000D+00  E= 4.975258D-01
              MO Center= -5.8D-01, -2.2D-01, -2.3D-01, r^2= 2.0D+01
   Bfn.  Coefficient  Atom+Function         Bfn.  Coefficient  Atom+Function  
  ----- ------------  ---------------      ----- ------------  ---------------
   344    -11.911309  21 C  s               174     11.291753  11 C  s         
   147      8.026727   9 C  px              318     -8.051399  19 C  py        
    13      7.242073   2 C  s                56     -7.033332   5 C  s         
   352      6.237922  21 C  py              215     -5.914995  14 H  s         
   233     -5.640577  15 C  px              310     -5.496856  19 C  s         

 Vector  171  Occ=0.000000D+00  E= 5.008333D-01
              MO Center=  5.9D-01, -2.9D-01, -4.1D-01, r^2= 2.1D+01
   Bfn.  Coefficient  Atom+Function         Bfn.  Coefficient  Atom+Function  
  ----- ------------  ---------------      ----- ------------  ---------------
   378     39.151670  23 C  s               464    -23.097851  29 C  s         
   352     15.303565  21 C  py              317    -11.847627  19 C  px        
   226    -10.304015  15 C  s               318    -10.040941  19 C  py        
   351    -10.066621  21 C  px              419    -10.045008  26 H  s         
   173     -8.839702  11 C  s               276      8.543504  17 N  s         


 center of mass
 --------------
 x =  -0.01812904 y =  -0.03408144 z =   0.01468829

 moments of inertia (a.u.)
 ------------------
        5342.005760515174          -0.000000000000           0.000000000000
          -0.000000000000        2231.803322700695           0.000000000001
           0.000000000000           0.000000000001        6677.181115200674

  Mulliken analysis of the total density
  --------------------------------------

    Atom       Charge   Shell Charges
 -----------   ------   -------------------------------------------------------
    1 H    1     0.98   0.76  0.23  0.01  0.03 -0.04
    2 C    6     6.23   2.01  0.66  0.24  0.06  2.07  1.03  0.01  0.06  0.10
    3 H    1     0.86   0.76  0.13 -0.00  0.03 -0.06
    4 H    1     0.86   0.76  0.14 -0.00  0.03 -0.06
    5 C    6     5.09   2.01  0.68  0.05 -0.07  1.89  0.32 -0.01  0.24 -0.02
    6 O    8     8.86   2.01  0.81  1.00  0.17  2.80  1.89  0.18  0.02 -0.01
    7 N    7     7.62   2.01  0.72  0.84 -0.11  2.45  1.46  0.14  0.05  0.05
    8 H    1     0.96   0.77  0.21 -0.03  0.05 -0.04
    9 C    6     6.74   2.01  0.66  0.23  0.06  2.00  1.41  0.01  0.14  0.22
   10 H    1     1.17   0.79  0.32  0.01  0.03  0.03
   11 C    6     5.57   2.01  0.66  0.12  0.15  2.04  0.56 -0.03  0.07 -0.01
   12 H    1     0.90   0.77  0.15  0.02  0.03 -0.07
   13 H    1     0.99   0.77  0.26 -0.00  0.03 -0.07
   14 H    1     1.02   0.77  0.30  0.01  0.03 -0.09
   15 C    6     4.42   2.01  0.68 -0.07  0.16  1.89 -0.09 -0.04  0.23 -0.35
   16 O    8     8.85   2.01  0.82  1.04  0.16  2.79  1.87  0.16  0.01 -0.00
   17 N    7     7.55   2.01  0.72  0.84 -0.17  2.45  1.45  0.12  0.05  0.08
   18 H    1     1.02   0.76  0.25 -0.01  0.05 -0.03
   19 C    6     6.18   2.01  0.66  0.10 -0.05  2.01  1.28  0.05  0.14 -0.01
   20 H    1     1.19   0.78  0.37  0.00  0.03  0.00
   21 C    6     5.52   2.01  0.67 -0.08 -0.14  1.95  0.78 -0.09  0.16  0.26
   22 H    1     1.18   0.80  0.38  0.00  0.03 -0.03
   23 C    6     5.56   2.01  0.66  0.08  0.18  2.05  0.62 -0.04  0.07 -0.06
   24 H    1     1.02   0.77  0.29 -0.00  0.03 -0.08
   25 H    1     0.86   0.78  0.12  0.00  0.03 -0.07
   26 H    1     0.91   0.78  0.14  0.02  0.03 -0.05
   27 O    8     8.63   2.01  0.80  0.98  0.00  2.83  1.93  0.11  0.01 -0.03
   28 H    1     0.83   0.70  0.09 -0.01  0.08 -0.03
   29 C    6     4.48   2.01  0.68  0.02  0.10  1.90 -0.30  0.02  0.24 -0.19
   30 O    8     8.81   2.01  0.82  1.04  0.16  2.79  1.86  0.13  0.01 -0.00
   31 N    7     7.19   2.01  0.72  0.82 -0.16  2.46  1.24  0.08  0.04 -0.02
   32 H    1     0.96   0.76  0.21 -0.02  0.05 -0.04
   33 H    1     0.99   0.75  0.20 -0.01  0.05 -0.02

       Multipole analysis of the density wrt the origin
       ------------------------------------------------

     L   x y z        total         open         nuclear
     -   - - -        -----         ----         -------
     0   0 0 0      0.000000      0.000000    124.000000

     1   1 0 0     -0.688491      0.000000     -0.000000
     1   0 1 0      1.106938      0.000000      0.000000
     1   0 0 1     -0.273355      0.000000     -0.000000

     2   2 0 0    -73.755213      0.000000   1020.071903
     2   1 1 0     -1.254763      0.000000    -31.481409
     2   1 0 1     -0.114848      0.000000     -5.382741
     2   0 2 0    -47.902793      0.000000   2738.582695
     2   0 1 1      8.468660      0.000000     16.793767
     2   0 0 2    -79.213889      0.000000    250.319642


 Task  times  cpu:     4158.5s     wall:     4234.7s


                                NWChem Input Module
                                -------------------


 Summary of allocated global arrays
-----------------------------------
  No active global arrays


MA_summarize_allocated_blocks: starting scan ...
MA_summarize_allocated_blocks: scan completed: 0 heap blocks, 0 stack blocks
MA usage statistics:

	allocation statistics:
					      heap	     stack
					      ----	     -----
	current number of blocks	         0	         0
	maximum number of blocks	        16	        14
	current total bytes		         0	         0
	maximum total bytes		    116920	  26223272
	maximum total K-bytes		       117	     26224
	maximum total M-bytes		         1	        27


                                     CITATION
                                     --------
                Please cite the following reference when publishing
                           results obtained with NWChem:

          E. Apra, E. J. Bylaska, W. A. de Jong, N. Govind, K. Kowalski,
       T. P. Straatsma, M. Valiev, H. J. J. van Dam, Y. Alexeev, J. Anchell,
       V. Anisimov, F. W. Aquino, R. Atta-Fynn, J. Autschbach, N. P. Bauman,
     J. C. Becca, D. E. Bernholdt, K. Bhaskaran-Nair, S. Bogatko, P. Borowski,
         J. Boschen, J. Brabec, A. Bruner, E. Cauet, Y. Chen, G. N. Chuev,
      C. J. Cramer, J. Daily, M. J. O. Deegan, T. H. Dunning Jr., M. Dupuis,
   K. G. Dyall, G. I. Fann, S. A. Fischer, A. Fonari, H. Fruchtl, L. Gagliardi,
      J. Garza, N. Gawande, S. Ghosh, K. Glaesemann, A. W. Gotz, J. Hammond,
       V. Helms, E. D. Hermes, K. Hirao, S. Hirata, M. Jacquelin, L. Jensen,
   B. G. Johnson, H. Jonsson, R. A. Kendall, M. Klemm, R. Kobayashi, V. Konkov,
      S. Krishnamoorthy, M. Krishnan, Z. Lin, R. D. Lins, R. J. Littlefield,
      A. J. Logsdail, K. Lopata, W. Ma, A. V. Marenich, J. Martin del Campo,
   D. Mejia-Rodriguez, J. E. Moore, J. M. Mullin, T. Nakajima, D. R. Nascimento,
    J. A. Nichols, P. J. Nichols, J. Nieplocha, A. Otero-de-la-Roza, B. Palmer,
    A. Panyala, T. Pirojsirikul, B. Peng, R. Peverati, J. Pittner, L. Pollack,
   R. M. Richard, P. Sadayappan, G. C. Schatz, W. A. Shelton, D. W. Silverstein,
   D. M. A. Smith, T. A. Soares, D. Song, M. Swart, H. L. Taylor, G. S. Thomas,
            V. Tipparaju, D. G. Truhlar, K. Tsemekhman, T. Van Voorhis,
      A. Vazquez-Mayagoitia, P. Verma, O. Villa, A. Vishnu, K. D. Vogiatzis,
        D. Wang, J. H. Weare, M. J. Williamson, T. L. Windus, K. Wolinski,
        A. T. Wong, Q. Wu, C. Yang, Q. Yu, M. Zacharias, Z. Zhang, Y. Zhao,
                                and R. J. Harrison
                        "NWChem: Past, present, and future
                         J. Chem. Phys. 152, 184102 (2020)
                               doi:10.1063/5.0004997

                                      AUTHORS
                                      -------
  E. Apra, E. J. Bylaska, N. Govind, K. Kowalski, M. Valiev, D. Mejia-Rodriguez,
       A. Kunitsa, N. P. Bauman, A. Panyala, W. A. de Jong, T. P. Straatsma,
   H. J. J. van Dam, D. Wang, T. L. Windus, J. Hammond, J. Autschbach, A. Woods,
    K. Bhaskaran-Nair, J. Brabec, K. Lopata, S. A. Fischer, S. Krishnamoorthy,
     M. Jacquelin, W. Ma, M. Klemm, O. Villa, Y. Chen, V. Anisimov, F. Aquino,
     S. Hirata, M. T. Hackler, E. Hermes, L. Jensen, J. E. Moore, J. C. Becca,
      V. Konjkov, T. Risthaus, M. Malagoli, A. Marenich, A. Otero-de-la-Roza,
        J. Mullin, P. Nichols, R. Peverati, J. Pittner, Y. Zhao, P.-D. Fan,
        A. Fonari, M. J. Williamson, R. J. Harrison, J. R. Rehr, M. Dupuis,
     D. Silverstein, D. M. A. Smith, J. Nieplocha, V. Tipparaju, M. Krishnan,
     B. E. Van Kuiken, A. Vazquez-Mayagoitia, M. Swart, Q. Wu, T. Van Voorhis,
     A. A. Auer, M. Nooijen, L. D. Crosby, E. Brown, G. Cisneros, G. I. Fann,
   H. Fruchtl, J. Garza, K. Hirao, R. A. Kendall, J. A. Nichols, K. Tsemekhman,
    K. Wolinski, J. Anchell, D. E. Bernholdt, P. Borowski, T. Clark, D. Clerc,
   H. Dachsel, M. J. O. Deegan, K. Dyall, D. Elwood, E. Glendening, M. Gutowski,
   A. C. Hess, J. Jaffe, B. G. Johnson, J. Ju, R. Kobayashi, R. Kutteh, Z. Lin,
   R. Littlefield, X. Long, B. Meng, T. Nakajima, S. Niu, L. Pollack, M. Rosing,
   K. Glaesemann, G. Sandrone, M. Stave, H. Taylor, G. Thomas, J. H. van Lenthe,
                               A. T. Wong, Z. Zhang.

 Total times  cpu:     4158.5s     wall:     4235.3s
