export TMOUT=5400
export TMPDIR=/tmp
export PTMPDIR=/tmp/ptmp
 argument  1 = ALA_ALA_1.nw
                                         
                                         


             Northwest Computational Chemistry Package (NWChem) 7.2.0
             --------------------------------------------------------


                    Environmental Molecular Sciences Laboratory
                       Pacific Northwest National Laboratory
                                Richland, WA 99352

                              Copyright (c) 1994-2022
                       Pacific Northwest National Laboratory
                            Battelle Memorial Institute

             NWChem is an open-source computational chemistry package
                        distributed under the terms of the
                      Educational Community License (ECL) 2.0
             A copy of the license is included with this distribution
                              in the LICENSE.TXT file

                                  ACKNOWLEDGMENT
                                  --------------

            This software and its documentation were developed at the
            EMSL at Pacific Northwest National Laboratory, a multiprogram
            national laboratory, operated for the U.S. Department of Energy
            by Battelle under Contract Number DE-AC05-76RL01830. Support
            for this work was provided by the Department of Energy Office
            of Biological and Environmental Research, Office of Basic
            Energy Sciences, and the Office of Advanced Scientific Computing.


           Job information
           ---------------

    hostname        = nova18-21
    program         = /opt/rit/el9/20230413/app/linux-rhel9-x86_64_v3/gcc-11.2.1/nwchem-7.2.0-oxtctbuhfuzyfaoziquq6bki22grib3g/bin/nwchem
    date            = Tue Jun 24 13:20:47 2025

    compiled        = Wed_May_17_23:46:39_2023
    source          = /tmp/root/spack-stage/spack-stage-nwchem-7.2.0-oxtctbuhfuzyfaoziquq6bki22grib3g/spack-src
    nwchem branch   = 7.2.0
    nwchem revision = d0d141fd
    ga revision     = 5.8.0
    use scalapack   = T
    input           = ALA_ALA_1.nw
    prefix          = ALA_ALA_1.
    data base       = ./ALA_ALA_1.db
    status          = startup
    nproc           =        8
    time left       =     -1s



           Memory information
           ------------------

    heap     =   26214396 doubles =    200.0 Mbytes
    stack    =   26214401 doubles =    200.0 Mbytes
    global   =   52428800 doubles =    400.0 Mbytes (distinct from heap & stack)
    total    =  104857597 doubles =    800.0 Mbytes
    verify   = yes
    hardfail = no 


           Directory information
           ---------------------

  0 permanent = .
  0 scratch   = .




                                NWChem Input Module
                                -------------------



 Scaling coordinates for geometry "geometry" by  1.889725989
 (inverse scale =  0.529177249)

 C1  symmetry detected

          ------
          auto-z
          ------
  no constraints, skipping    0.0000000000000000     
  no constraints, skipping    0.0000000000000000     


                             Geometry "geometry" -> ""
                             -------------------------

 Output coordinates in angstroms (scale by  1.889725989 to convert to a.u.)

  No.       Tag          Charge          X              Y              Z
 ---- ---------------- ---------- -------------- -------------- --------------
    1 H                    1.0000     3.37102800    -2.47911342     0.13224245
    2 C                    6.0000     2.40783030    -2.84445845     0.48412625
    3 H                    1.0000     2.35764558    -2.75311468     1.56793057
    4 H                    1.0000     2.28852759    -3.88626232     0.19278871
    5 C                    6.0000     1.31101275    -2.02057804    -0.14636748
    6 O                    8.0000     1.58829448    -1.10671575    -0.91150312
    7 N                    7.0000     0.05992789    -2.32004831     0.20121592
    8 H                    1.0000    -0.08121882    -3.08276014     0.84228788
    9 C                    6.0000    -1.13718253    -1.71874200    -0.40625374
   10 H                    1.0000    -1.08939911    -1.88921458    -1.48245114
   11 C                    6.0000    -2.36168554    -2.46753370     0.13793500
   12 H                    1.0000    -3.26362036    -2.09225300    -0.34876716
   13 H                    1.0000    -2.27122988    -3.53421667    -0.07123529
   14 H                    1.0000    -2.45049871    -2.31079214     1.21399509
   15 C                    6.0000    -1.28846235    -0.18898626    -0.21794077
   16 O                    8.0000    -2.16008214     0.41340098    -0.83735545
   17 N                    7.0000    -0.45259352     0.44539585     0.61078816
   18 H                    1.0000     0.26138462    -0.10198934     1.06097554
   19 C                    6.0000    -0.37407609     1.90284775     0.74290171
   20 H                    1.0000    -1.38699756     2.30975818     0.74737215
   21 C                    6.0000     0.27600338     2.21581567     2.09769644
   22 H                    1.0000     1.29829936     1.83713980     2.12000151
   23 H                    1.0000     0.29550732     3.29679743     2.24895793
   24 H                    1.0000    -0.30201444     1.75885036     2.90260583
   25 C                    6.0000     0.38121487     2.59572538    -0.41732247
   26 O                    8.0000     0.38819318     3.81735404    -0.50858430
   27 N                    7.0000     1.04444014     1.86087559    -1.30377610
   28 H                    1.0000     1.06926226     0.85251874    -1.22128169
   29 H                    1.0000     1.52172970     2.33423356    -2.05212489

      Atomic Mass 
      ----------- 

      H                  1.007825
      C                 12.000000
      O                 15.994910
      N                 14.003070


 Effective nuclear repulsion energy (a.u.)     970.3542824551

            Nuclear Dipole moment (a.u.) 
            ----------------------------
        X                 Y               Z
 ---------------- ---------------- ----------------
     0.0000000000    -0.0000000000     0.0000000000



                                Z-matrix (autoz)
                                -------- 

 Units are Angstrom for bonds and degrees for angles

      Type          Name      I     J     K     L     M      Value
      ----------- --------  ----- ----- ----- ----- ----- ----------
    1 Stretch                  1     2                       1.08860
    2 Stretch                  2     3                       1.08880
    3 Stretch                  2     4                       1.08833
    4 Stretch                  2     5                       1.50974
    5 Stretch                  5     6                       1.22371
    6 Stretch                  5     7                       1.33256
    7 Stretch                  7     8                       1.00629
    8 Stretch                  7     9                       1.47094
    9 Stretch                  9    10                       1.09066
   10 Stretch                  9    11                       1.53500
   11 Stretch                  9    15                       1.54871
   12 Stretch                 11    12                       1.09142
   13 Stretch                 11    13                       1.09076
   14 Stretch                 11    14                       1.09104
   15 Stretch                 15    16                       1.22730
   16 Stretch                 15    17                       1.33713
   17 Stretch                 17    18                       1.00601
   18 Stretch                 17    19                       1.46553
   19 Stretch                 19    20                       1.09161
   20 Stretch                 19    21                       1.53493
   21 Stretch                 19    25                       1.54812
   22 Stretch                 21    22                       1.09040
   23 Stretch                 21    23                       1.09169
   24 Stretch                 21    24                       1.09124
   25 Stretch                 25    26                       1.22505
   26 Stretch                 25    27                       1.32879
   27 Stretch                 27    28                       1.01203
   28 Stretch                 27    29                       1.00593
   29 Bend                     1     2     3               109.53525
   30 Bend                     1     2     4               109.37348
   31 Bend                     1     2     5               108.94542
   32 Bend                     2     5     6               120.26748
   33 Bend                     2     5     7               116.77618
   34 Bend                     3     2     4               109.98153
   35 Bend                     3     2     5               109.65972
   36 Bend                     4     2     5               109.32642
   37 Bend                     5     7     8               117.91715
   38 Bend                     5     7     9               124.36702
   39 Bend                     6     5     7               122.93315
   40 Bend                     7     9    10               107.93593
   41 Bend                     7     9    11               107.66160
   42 Bend                     7     9    15               115.66249
   43 Bend                     8     7     9               117.30854
   44 Bend                     9    11    12               109.47526
   45 Bend                     9    11    13               110.05401
   46 Bend                     9    11    14               110.15182
   47 Bend                     9    15    16               119.52616
   48 Bend                     9    15    17               118.87689
   49 Bend                    10     9    11               107.97012
   50 Bend                    10     9    15               106.17961
   51 Bend                    11     9    15               111.15004
   52 Bend                    12    11    13               108.61901
   53 Bend                    12    11    14               108.85323
   54 Bend                    13    11    14               109.65631
   55 Bend                    15    17    18               117.57178
   56 Bend                    15    17    19               124.13772
   57 Bend                    16    15    17               121.59395
   58 Bend                    17    19    20               108.74534
   59 Bend                    17    19    21               107.76001
   60 Bend                    17    19    25               113.80797
   61 Bend                    18    17    19               117.56463
   62 Bend                    19    21    22               110.13997
   63 Bend                    19    21    23               109.37565
   64 Bend                    19    21    24               109.95770
   65 Bend                    19    25    26               120.32608
   66 Bend                    19    25    27               119.73324
   67 Bend                    20    19    21               108.26272
   68 Bend                    20    19    25               106.79480
   69 Bend                    21    19    25               111.32175
   70 Bend                    22    21    23               108.92258
   71 Bend                    22    21    24               109.63881
   72 Bend                    23    21    24               108.77870
   73 Bend                    25    27    28               120.58919
   74 Bend                    25    27    29               118.22123
   75 Bend                    26    25    27               119.92970
   76 Bend                    28    27    29               121.18896
   77 Torsion                  1     2     5     6          -0.36335
   78 Torsion                  1     2     5     7        -178.66310
   79 Torsion                  2     5     7     8          -1.24928
   80 Torsion                  2     5     7     9        -173.71045
   81 Torsion                  3     2     5     6         119.50814
   82 Torsion                  3     2     5     7         -58.79160
   83 Torsion                  4     2     5     6        -119.83905
   84 Torsion                  4     2     5     7          61.86120
   85 Torsion                  5     7     9    10          56.16914
   86 Torsion                  5     7     9    11         172.48908
   87 Torsion                  5     7     9    15         -62.54579
   88 Torsion                  6     5     7     8        -179.49963
   89 Torsion                  6     5     7     9           8.03920
   90 Torsion                  7     9    11    12        -175.96243
   91 Torsion                  7     9    11    13         -56.64837
   92 Torsion                  7     9    11    14          64.37570
   93 Torsion                  7     9    15    16         170.53858
   94 Torsion                  7     9    15    17          -8.84178
   95 Torsion                  8     7     9    10        -116.33404
   96 Torsion                  8     7     9    11          -0.01409
   97 Torsion                  8     7     9    15         124.95104
   98 Torsion                  9    15    17    18           1.63789
   99 Torsion                  9    15    17    19         171.61685
  100 Torsion                 10     9    11    12         -59.66489
  101 Torsion                 10     9    11    13          59.64917
  102 Torsion                 10     9    11    14        -179.32675
  103 Torsion                 10     9    15    16          50.85924
  104 Torsion                 10     9    15    17        -128.52111
  105 Torsion                 11     9    15    16         -66.31475
  106 Torsion                 11     9    15    17         114.30489
  107 Torsion                 12    11     9    15          56.41200
  108 Torsion                 13    11     9    15         175.72606
  109 Torsion                 14    11     9    15         -63.24987
  110 Torsion                 15    17    19    20          42.15836
  111 Torsion                 15    17    19    21         159.29958
  112 Torsion                 15    17    19    25         -76.73914
  113 Torsion                 16    15    17    18        -177.72912
  114 Torsion                 16    15    17    19          -7.75016
  115 Torsion                 17    19    21    22          63.54524
  116 Torsion                 17    19    21    23        -176.77696
  117 Torsion                 17    19    21    24         -57.38713
  118 Torsion                 17    19    25    26         171.71608
  119 Torsion                 17    19    25    27          -9.49003
  120 Torsion                 18    17    19    20        -147.86201
  121 Torsion                 18    17    19    21         -30.72079
  122 Torsion                 18    17    19    25          93.24048
  123 Torsion                 19    25    27    28          -0.71095
  124 Torsion                 19    25    27    29         179.57146
  125 Torsion                 20    19    21    22        -179.00056
  126 Torsion                 20    19    21    23         -59.32277
  127 Torsion                 20    19    21    24          60.06706
  128 Torsion                 20    19    25    26          51.71139
  129 Torsion                 20    19    25    27        -129.49472
  130 Torsion                 21    19    25    26         -66.27063
  131 Torsion                 21    19    25    27         112.52326
  132 Torsion                 22    21    19    25         -61.90781
  133 Torsion                 23    21    19    25          57.76999
  134 Torsion                 24    21    19    25         177.15982
  135 Torsion                 26    25    27    28         178.08777
  136 Torsion                 26    25    27    29          -1.62982


            XYZ format geometry
            -------------------
    29
 geometry
 H                     3.37102800    -2.47911342     0.13224245
 C                     2.40783030    -2.84445845     0.48412625
 H                     2.35764558    -2.75311468     1.56793057
 H                     2.28852759    -3.88626232     0.19278871
 C                     1.31101275    -2.02057804    -0.14636748
 O                     1.58829448    -1.10671575    -0.91150312
 N                     0.05992789    -2.32004831     0.20121592
 H                    -0.08121882    -3.08276014     0.84228788
 C                    -1.13718253    -1.71874200    -0.40625374
 H                    -1.08939911    -1.88921458    -1.48245114
 C                    -2.36168554    -2.46753370     0.13793500
 H                    -3.26362036    -2.09225300    -0.34876716
 H                    -2.27122988    -3.53421667    -0.07123529
 H                    -2.45049871    -2.31079214     1.21399509
 C                    -1.28846235    -0.18898626    -0.21794077
 O                    -2.16008214     0.41340098    -0.83735545
 N                    -0.45259352     0.44539585     0.61078816
 H                     0.26138462    -0.10198934     1.06097554
 C                    -0.37407609     1.90284775     0.74290171
 H                    -1.38699756     2.30975818     0.74737215
 C                     0.27600338     2.21581567     2.09769644
 H                     1.29829936     1.83713980     2.12000151
 H                     0.29550732     3.29679743     2.24895793
 H                    -0.30201444     1.75885036     2.90260583
 C                     0.38121487     2.59572538    -0.41732247
 O                     0.38819318     3.81735404    -0.50858430
 N                     1.04444014     1.86087559    -1.30377610
 H                     1.06926226     0.85251874    -1.22128169
 H                     1.52172970     2.33423356    -2.05212489

 ==============================================================================
                                internuclear distances
 ------------------------------------------------------------------------------
       center one      |      center two      | atomic units |  angstroms
 ------------------------------------------------------------------------------
    2 C                |   1 H                |     2.05715  |     1.08860
    3 H                |   2 C                |     2.05754  |     1.08880
    4 H                |   2 C                |     2.05665  |     1.08833
    5 C                |   2 C                |     2.85299  |     1.50974
    6 O                |   5 C                |     2.31247  |     1.22371
    7 N                |   5 C                |     2.51817  |     1.33256
    8 H                |   7 N                |     1.90162  |     1.00629
    9 C                |   7 N                |     2.77967  |     1.47094
   10 H                |   9 C                |     2.06105  |     1.09066
   11 C                |   9 C                |     2.90074  |     1.53500
   12 H                |  11 C                |     2.06249  |     1.09142
   13 H                |  11 C                |     2.06123  |     1.09076
   14 H                |  11 C                |     2.06176  |     1.09104
   15 C                |   9 C                |     2.92664  |     1.54871
   16 O                |  15 C                |     2.31926  |     1.22730
   17 N                |  15 C                |     2.52680  |     1.33713
   18 H                |  17 N                |     1.90109  |     1.00601
   19 C                |  17 N                |     2.76945  |     1.46553
   20 H                |  19 C                |     2.06284  |     1.09161
   21 C                |  19 C                |     2.90060  |     1.53493
   22 H                |  21 C                |     2.06057  |     1.09040
   23 H                |  21 C                |     2.06299  |     1.09169
   24 H                |  21 C                |     2.06214  |     1.09124
   25 C                |  19 C                |     2.92552  |     1.54812
   26 O                |  25 C                |     2.31501  |     1.22505
   27 N                |  25 C                |     2.51104  |     1.32879
   28 H                |  27 N                |     1.91246  |     1.01203
   29 H                |  27 N                |     1.90094  |     1.00593
 ------------------------------------------------------------------------------
                         number of included internuclear distances:         28
 ==============================================================================



 ==============================================================================
                                 internuclear angles
 ------------------------------------------------------------------------------
        center 1       |       center 2       |       center 3       |  degrees
 ------------------------------------------------------------------------------
    1 H                |   2 C                |   3 H                |   109.54
    1 H                |   2 C                |   4 H                |   109.37
    1 H                |   2 C                |   5 C                |   108.95
    3 H                |   2 C                |   4 H                |   109.98
    3 H                |   2 C                |   5 C                |   109.66
    4 H                |   2 C                |   5 C                |   109.33
    2 C                |   5 C                |   6 O                |   120.27
    2 C                |   5 C                |   7 N                |   116.78
    6 O                |   5 C                |   7 N                |   122.93
    5 C                |   7 N                |   8 H                |   117.92
    5 C                |   7 N                |   9 C                |   124.37
    8 H                |   7 N                |   9 C                |   117.31
    7 N                |   9 C                |  10 H                |   107.94
    7 N                |   9 C                |  11 C                |   107.66
    7 N                |   9 C                |  15 C                |   115.66
   10 H                |   9 C                |  11 C                |   107.97
   10 H                |   9 C                |  15 C                |   106.18
   11 C                |   9 C                |  15 C                |   111.15
    9 C                |  11 C                |  12 H                |   109.48
    9 C                |  11 C                |  13 H                |   110.05
    9 C                |  11 C                |  14 H                |   110.15
   12 H                |  11 C                |  13 H                |   108.62
   12 H                |  11 C                |  14 H                |   108.85
   13 H                |  11 C                |  14 H                |   109.66
    9 C                |  15 C                |  16 O                |   119.53
    9 C                |  15 C                |  17 N                |   118.88
   16 O                |  15 C                |  17 N                |   121.59
   15 C                |  17 N                |  18 H                |   117.57
   15 C                |  17 N                |  19 C                |   124.14
   18 H                |  17 N                |  19 C                |   117.56
   17 N                |  19 C                |  20 H                |   108.75
   17 N                |  19 C                |  21 C                |   107.76
   17 N                |  19 C                |  25 C                |   113.81
   20 H                |  19 C                |  21 C                |   108.26
   20 H                |  19 C                |  25 C                |   106.79
   21 C                |  19 C                |  25 C                |   111.32
   19 C                |  21 C                |  22 H                |   110.14
   19 C                |  21 C                |  23 H                |   109.38
   19 C                |  21 C                |  24 H                |   109.96
   22 H                |  21 C                |  23 H                |   108.92
   22 H                |  21 C                |  24 H                |   109.64
   23 H                |  21 C                |  24 H                |   108.78
   19 C                |  25 C                |  26 O                |   120.33
   19 C                |  25 C                |  27 N                |   119.73
   26 O                |  25 C                |  27 N                |   119.93
   25 C                |  27 N                |  28 H                |   120.59
   25 C                |  27 N                |  29 H                |   118.22
   28 H                |  27 N                |  29 H                |   121.19
 ------------------------------------------------------------------------------
                            number of included internuclear angles:         48
 ==============================================================================



  library name resolved from: environment
  library file name is: </opt/rit/el9/20230413/app/linux-rhel9-x86_64_v3/gcc-11.2.1/nwchem-7.2.0-oxtctbuhfuzyfaoziquq6bki22grib3g/share/nwchem/libraries/>
  


 Summary of "ao basis" -> "" (cartesian)
 ------------------------------------------------------------------------------
       Tag                 Description            Shells   Functions and Types
 ---------------- ------------------------------  ------  ---------------------
 *                        aug-cc-pvdz                 on all atoms 


                      Basis "ao basis" -> "ao basis" (cartesian)
                      -----
  H (Hydrogen)
  ------------
            Exponent  Coefficients 
       -------------- ---------------------------------------------------------
  1 S  1.30100000E+01  0.019685
  1 S  1.96200000E+00  0.137977
  1 S  4.44600000E-01  0.478148

  2 S  1.22000000E-01  1.000000

  3 S  2.97400000E-02  1.000000

  4 P  7.27000000E-01  1.000000

  5 P  1.41000000E-01  1.000000

  C (Carbon)
  ----------
            Exponent  Coefficients 
       -------------- ---------------------------------------------------------
  1 S  6.66500000E+03  0.000692
  1 S  1.00000000E+03  0.005329
  1 S  2.28000000E+02  0.027077
  1 S  6.47100000E+01  0.101718
  1 S  2.10600000E+01  0.274740
  1 S  7.49500000E+00  0.448564
  1 S  2.79700000E+00  0.285074
  1 S  5.21500000E-01  0.015204

  2 S  6.66500000E+03 -0.000146
  2 S  1.00000000E+03 -0.001154
  2 S  2.28000000E+02 -0.005725
  2 S  6.47100000E+01 -0.023312
  2 S  2.10600000E+01 -0.063955
  2 S  7.49500000E+00 -0.149981
  2 S  2.79700000E+00 -0.127262
  2 S  5.21500000E-01  0.544529

  3 S  1.59600000E-01  1.000000

  4 S  4.69000000E-02  1.000000

  5 P  9.43900000E+00  0.038109
  5 P  2.00200000E+00  0.209480
  5 P  5.45600000E-01  0.508557

  6 P  1.51700000E-01  1.000000

  7 P  4.04100000E-02  1.000000

  8 D  5.50000000E-01  1.000000

  9 D  1.51000000E-01  1.000000

  O (Oxygen)
  ----------
            Exponent  Coefficients 
       -------------- ---------------------------------------------------------
  1 S  1.17200000E+04  0.000710
  1 S  1.75900000E+03  0.005470
  1 S  4.00800000E+02  0.027837
  1 S  1.13700000E+02  0.104800
  1 S  3.70300000E+01  0.283062
  1 S  1.32700000E+01  0.448719
  1 S  5.02500000E+00  0.270952
  1 S  1.01300000E+00  0.015458

  2 S  1.17200000E+04 -0.000160
  2 S  1.75900000E+03 -0.001263
  2 S  4.00800000E+02 -0.006267
  2 S  1.13700000E+02 -0.025716
  2 S  3.70300000E+01 -0.070924
  2 S  1.32700000E+01 -0.165411
  2 S  5.02500000E+00 -0.116955
  2 S  1.01300000E+00  0.557368

  3 S  3.02300000E-01  1.000000

  4 S  7.89600000E-02  1.000000

  5 P  1.77000000E+01  0.043018
  5 P  3.85400000E+00  0.228913
  5 P  1.04600000E+00  0.508728

  6 P  2.75300000E-01  1.000000

  7 P  6.85600000E-02  1.000000

  8 D  1.18500000E+00  1.000000

  9 D  3.32000000E-01  1.000000

  N (Nitrogen)
  ------------
            Exponent  Coefficients 
       -------------- ---------------------------------------------------------
  1 S  9.04600000E+03  0.000700
  1 S  1.35700000E+03  0.005389
  1 S  3.09300000E+02  0.027406
  1 S  8.77300000E+01  0.103207
  1 S  2.85600000E+01  0.278723
  1 S  1.02100000E+01  0.448540
  1 S  3.83800000E+00  0.278238
  1 S  7.46600000E-01  0.015440

  2 S  9.04600000E+03 -0.000153
  2 S  1.35700000E+03 -0.001208
  2 S  3.09300000E+02 -0.005992
  2 S  8.77300000E+01 -0.024544
  2 S  2.85600000E+01 -0.067459
  2 S  1.02100000E+01 -0.158078
  2 S  3.83800000E+00 -0.121831
  2 S  7.46600000E-01  0.549003

  3 S  2.24800000E-01  1.000000

  4 S  6.12400000E-02  1.000000

  5 P  1.35500000E+01  0.039919
  5 P  2.91700000E+00  0.217169
  5 P  7.97300000E-01  0.510319

  6 P  2.18500000E-01  1.000000

  7 P  5.61100000E-02  1.000000

  8 D  8.17000000E-01  1.000000

  9 D  2.30000000E-01  1.000000



 Summary of "ao basis" -> "ao basis" (cartesian)
 ------------------------------------------------------------------------------
       Tag                 Description            Shells   Functions and Types
 ---------------- ------------------------------  ------  ---------------------
 H                        aug-cc-pvdz                5        9   3s2p
 C                        aug-cc-pvdz                9       25   4s3p2d
 O                        aug-cc-pvdz                9       25   4s3p2d
 N                        aug-cc-pvdz                9       25   4s3p2d


                                 NWChem SCF Module
                                 -----------------



  ao basis        = "ao basis"
  functions       =   485
  atoms           =    29
  closed shells   =    54
  open shells     =     0
  charge          =   0.00
  wavefunction    = RHF 
  input vectors   = atomic
  output vectors  = ./ALA_ALA_1.movecs
  use symmetry    = F
  symmetry adapt  = F


 Summary of "ao basis" -> "ao basis" (cartesian)
 ------------------------------------------------------------------------------
       Tag                 Description            Shells   Functions and Types
 ---------------- ------------------------------  ------  ---------------------
 H                        aug-cc-pvdz                5        9   3s2p
 C                        aug-cc-pvdz                9       25   4s3p2d
 O                        aug-cc-pvdz                9       25   4s3p2d
 N                        aug-cc-pvdz                9       25   4s3p2d



 Forming initial guess at       0.7s


 !! The overlap matrix has   3 vectors deemed linearly dependent with
    eigenvalues:
 4.94D-06 7.05D-06 8.52D-06


      Superposition of Atomic Density Guess
      -------------------------------------

 Sum of atomic energies:        -696.03477360

      Non-variational initial energy
      ------------------------------

 Total energy =    -705.003421
 1-e energy   =   -2872.684027
 2-e energy   =    1197.326323
 HOMO         =      -0.310856
 LUMO         =       0.013172


 Starting SCF solution at     210.7s



 ----------------------------------------------
         Quadratically convergent ROHF

 Convergence threshold     :          1.000E-04
 Maximum no. of iterations :           30
 Final Fock-matrix accuracy:          1.000E-10
 ----------------------------------------------


              iter       energy          gnorm     gmax       time
             ----- ------------------- --------- --------- --------
                 1     -699.4297168099  2.37D+00  1.79D-01    296.2
                 2     -699.7266595975  7.80D-01  4.17D-02    554.7
                 3     -699.7805312239  6.44D-02  5.10D-03    991.7
                 4     -699.7811582730  1.69D-03  1.16D-04   1725.1
                 5     -699.7811586428  4.39D-06  2.75D-07   2716.0


       Final RHF  results 
       ------------------ 

         Total SCF energy =   -699.781158642780
      One-electron energy =  -2882.670842126607
      Two-electron energy =   1212.535401028746
 Nuclear repulsion energy =    970.354282455080

        Time for solution =   2556.2s


             Final eigenvalues
             -----------------

              1      
    1  -20.5568
    2  -20.5309
    3  -20.5030
    4  -15.6300
    5  -15.6027
    6  -15.5691
    7  -11.3857
    8  -11.3660
    9  -11.3396
   10  -11.3162
   11  -11.2917
   12  -11.2680
   13  -11.2596
   14  -11.2396
   15   -1.4213
   16   -1.3908
   17   -1.3651
   18   -1.2785
   19   -1.2487
   20   -1.1933
   21   -1.0844
   22   -1.0420
   23   -1.0175
   24   -0.9171
   25   -0.8867
   26   -0.8388
   27   -0.8080
   28   -0.7826
   29   -0.7409
   30   -0.7277
   31   -0.7052
   32   -0.6959
   33   -0.6656
   34   -0.6433
   35   -0.6392
   36   -0.6150
   37   -0.6043
   38   -0.5983
   39   -0.5933
   40   -0.5879
   41   -0.5678
   42   -0.5638
   43   -0.5574
   44   -0.5546
   45   -0.5347
   46   -0.5320
   47   -0.5162
   48   -0.4991
   49   -0.4566
   50   -0.4546
   51   -0.4319
   52   -0.4113
   53   -0.3881
   54   -0.3819
   55    0.0143
   56    0.0303
   57    0.0334
   58    0.0429
   59    0.0516
   60    0.0536
   61    0.0569
   62    0.0594
   63    0.0656
   64    0.0746

                       ROHF Final Molecular Orbital Analysis
                       -------------------------------------

 Vector   15  Occ=2.000000D+00  E=-1.421287D+00
              MO Center=  1.3D+00, -1.5D+00, -5.5D-01, r^2= 1.2D+00
   Bfn.  Coefficient  Atom+Function         Bfn.  Coefficient  Atom+Function  
  ----- ------------  ---------------      ----- ------------  ---------------
    79      0.344482   6 O  s                80      0.344218   6 O  s         
    54      0.243217   5 C  s                12      0.192420   2 C  s         

 Vector   16  Occ=2.000000D+00  E=-1.390839D+00
              MO Center= -1.6D+00,  2.5D-01, -4.9D-01, r^2= 1.5D+00
   Bfn.  Coefficient  Atom+Function         Bfn.  Coefficient  Atom+Function  
  ----- ------------  ---------------      ----- ------------  ---------------
   250      0.359989  16 O  s               249      0.339379  16 O  s         
   224      0.242636  15 C  s         

 Vector   17  Occ=2.000000D+00  E=-1.365056D+00
              MO Center=  3.9D-01,  3.2D+00, -5.5D-01, r^2= 1.2D+00
   Bfn.  Coefficient  Atom+Function         Bfn.  Coefficient  Atom+Function  
  ----- ------------  ---------------      ----- ------------  ---------------
   420      0.375443  26 O  s               419      0.348942  26 O  s         
   394      0.244721  25 C  s         

 Vector   18  Occ=2.000000D+00  E=-1.278490D+00
              MO Center=  1.6D-01, -1.9D+00, -2.1D-02, r^2= 2.1D+00
   Bfn.  Coefficient  Atom+Function         Bfn.  Coefficient  Atom+Function  
  ----- ------------  ---------------      ----- ------------  ---------------
   105      0.396320   7 N  s               104      0.335894   7 N  s         
    80     -0.217567   6 O  s               139     -0.189319   9 C  s         
    79     -0.180900   6 O  s               128      0.155385   8 H  s         

 Vector   19  Occ=2.000000D+00  E=-1.248659D+00
              MO Center= -5.5D-01,  5.0D-01,  3.1D-01, r^2= 2.5D+00
   Bfn.  Coefficient  Atom+Function         Bfn.  Coefficient  Atom+Function  
  ----- ------------  ---------------      ----- ------------  ---------------
   275      0.367265  17 N  s               274      0.330444  17 N  s         
   250     -0.201724  16 O  s               309     -0.195687  19 C  s         
   249     -0.166940  16 O  s               298      0.152085  18 H  s         
   395      0.151764  25 C  s         

 Vector   20  Occ=2.000000D+00  E=-1.193300D+00
              MO Center=  8.0D-01,  2.1D+00, -1.0D+00, r^2= 1.6D+00
   Bfn.  Coefficient  Atom+Function         Bfn.  Coefficient  Atom+Function  
  ----- ------------  ---------------      ----- ------------  ---------------
   445      0.384588  27 N  s               444      0.367691  27 N  s         
   309     -0.204392  19 C  s               420     -0.204675  26 O  s         
   398     -0.176476  25 C  py              419     -0.171978  26 O  s         
   468      0.161728  28 H  s               477      0.158893  29 H  s         
   396      0.152712  25 C  s         

 Vector   21  Occ=2.000000D+00  E=-1.084388D+00
              MO Center= -4.8D-01, -1.7D+00,  5.2D-02, r^2= 5.1D+00
   Bfn.  Coefficient  Atom+Function         Bfn.  Coefficient  Atom+Function  
  ----- ------------  ---------------      ----- ------------  ---------------
   138      0.234509   9 C  s               172      0.193084  11 C  s         

 Vector   22  Occ=2.000000D+00  E=-1.042000D+00
              MO Center= -7.9D-02,  1.3D+00,  1.0D+00, r^2= 4.9D+00
   Bfn.  Coefficient  Atom+Function         Bfn.  Coefficient  Atom+Function  
  ----- ------------  ---------------      ----- ------------  ---------------
   342      0.244164  21 C  s               308      0.235714  19 C  s         
   145     -0.170775   9 C  py              139     -0.154657   9 C  s         

 Vector   23  Occ=2.000000D+00  E=-1.017481D+00
              MO Center=  1.0D+00, -2.5D+00,  2.9D-01, r^2= 5.3D+00
   Bfn.  Coefficient  Atom+Function         Bfn.  Coefficient  Atom+Function  
  ----- ------------  ---------------      ----- ------------  ---------------
    11      0.308160   2 C  s               172      0.179000  11 C  s         
    55      0.161700   5 C  s         

 Vector   24  Occ=2.000000D+00  E=-9.170535D-01
              MO Center= -9.6D-01, -6.3D-01,  5.1D-01, r^2= 7.6D+00
   Bfn.  Coefficient  Atom+Function         Bfn.  Coefficient  Atom+Function  
  ----- ------------  ---------------      ----- ------------  ---------------
   139      0.223427   9 C  s               172     -0.215003  11 C  s         
   145      0.209466   9 C  py              342      0.187373  21 C  s         
   316      0.179325  19 C  pz              138      0.154793   9 C  s         

 Vector   25  Occ=2.000000D+00  E=-8.867476D-01
              MO Center= -2.6D-01,  8.1D-01,  5.9D-01, r^2= 7.6D+00
   Bfn.  Coefficient  Atom+Function         Bfn.  Coefficient  Atom+Function  
  ----- ------------  ---------------      ----- ------------  ---------------
   309      0.303632  19 C  s               316     -0.201805  19 C  pz        
   342     -0.196117  21 C  s               343     -0.185876  21 C  s         
   308      0.169083  19 C  s         

 Vector   26  Occ=2.000000D+00  E=-8.387676D-01
              MO Center=  2.6D-01, -1.9D+00,  6.3D-02, r^2= 4.0D+00
   Bfn.  Coefficient  Atom+Function         Bfn.  Coefficient  Atom+Function  
  ----- ------------  ---------------      ----- ------------  ---------------
   107      0.283649   7 N  px              128     -0.236694   8 H  s         
   105     -0.219307   7 N  s                54      0.213178   5 C  s         
    60     -0.211272   5 C  px              139      0.199882   9 C  s         
    12      0.173389   2 C  s                80     -0.168109   6 O  s         
    57     -0.157223   5 C  px        

 Vector   27  Occ=2.000000D+00  E=-8.080083D-01
              MO Center= -4.8D-01, -1.4D-02,  2.8D-01, r^2= 4.0D+00
   Bfn.  Coefficient  Atom+Function         Bfn.  Coefficient  Atom+Function  
  ----- ------------  ---------------      ----- ------------  ---------------
   277      0.245928  17 N  px              298      0.228672  18 H  s         
   279      0.208011  17 N  pz              224     -0.190561  15 C  s         
   275      0.179798  17 N  s               309     -0.178370  19 C  s         
   250      0.172167  16 O  s               145     -0.167880   9 C  py        
   225     -0.166900  15 C  s               299      0.162025  18 H  s         

 Vector   28  Occ=2.000000D+00  E=-7.826182D-01
              MO Center=  3.5D-01,  1.6D+00, -3.8D-01, r^2= 3.9D+00
   Bfn.  Coefficient  Atom+Function         Bfn.  Coefficient  Atom+Function  
  ----- ------------  ---------------      ----- ------------  ---------------
   402      0.223422  25 C  pz              449     -0.222877  27 N  pz        
   225      0.218063  15 C  s               315     -0.214080  19 C  py        
   394     -0.208745  25 C  s               477      0.184929  29 H  s         
   396      0.176368  25 C  s               298     -0.172194  18 H  s         
   316      0.160932  19 C  pz              420      0.161636  26 O  s         

 Vector   29  Occ=2.000000D+00  E=-7.409056D-01
              MO Center=  3.5D-01,  4.6D-01, -4.9D-01, r^2= 5.5D+00
   Bfn.  Coefficient  Atom+Function         Bfn.  Coefficient  Atom+Function  
  ----- ------------  ---------------      ----- ------------  ---------------
   448      0.272202  27 N  py              225      0.243487  15 C  s         
   468     -0.234800  28 H  s               145     -0.217101   9 C  py        
   395      0.215368  25 C  s               315     -0.191640  19 C  py        
   396     -0.188578  25 C  s               399     -0.161632  25 C  pz        
    83     -0.159506   6 O  py               56      0.157736   5 C  s         

 Vector   30  Occ=2.000000D+00  E=-7.276543D-01
              MO Center=  2.2D-01, -1.1D+00, -6.6D-02, r^2= 6.6D+00
   Bfn.  Coefficient  Atom+Function         Bfn.  Coefficient  Atom+Function  
  ----- ------------  ---------------      ----- ------------  ---------------
   145      0.362269   9 C  py              225     -0.292214  15 C  s         
   139      0.231184   9 C  s               109      0.188540   7 N  pz        
   128      0.184579   8 H  s               231      0.176100  15 C  py        
   226      0.170956  15 C  s                57      0.165053   5 C  px        
   108     -0.156288   7 N  py               55     -0.155132   5 C  s         

 Vector   31  Occ=2.000000D+00  E=-7.051759D-01
              MO Center= -2.1D-01, -5.1D-01, -1.7D-01, r^2= 7.2D+00
   Bfn.  Coefficient  Atom+Function         Bfn.  Coefficient  Atom+Function  
  ----- ------------  ---------------      ----- ------------  ---------------
   143      0.204633   9 C  pz              162     -0.190418  10 H  s         
   108      0.187490   7 N  py        

 Vector   32  Occ=2.000000D+00  E=-6.959486D-01
              MO Center=  1.0D+00, -7.4D-01, -4.0D-01, r^2= 6.3D+00
   Bfn.  Coefficient  Atom+Function         Bfn.  Coefficient  Atom+Function  
  ----- ------------  ---------------      ----- ------------  ---------------
    80     -0.227824   6 O  s                57      0.221521   5 C  px        
    83     -0.208240   6 O  py              448     -0.192677  27 N  py        
    84      0.187373   6 O  pz              468      0.150834  28 H  s         

 Vector   33  Occ=2.000000D+00  E=-6.656127D-01
              MO Center= -1.2D-01,  6.2D-01, -1.8D-01, r^2= 8.0D+00
   Bfn.  Coefficient  Atom+Function         Bfn.  Coefficient  Atom+Function  
  ----- ------------  ---------------      ----- ------------  ---------------
   278      0.203068  17 N  py              312     -0.177076  19 C  py        
   477     -0.164413  29 H  s               315     -0.159520  19 C  py        
    56     -0.152591   5 C  s               449      0.152688  27 N  pz        
   423      0.151726  26 O  py        

 Vector   34  Occ=2.000000D+00  E=-6.433354D-01
              MO Center=  4.7D-01, -8.9D-01,  9.7D-02, r^2= 8.8D+00
   Bfn.  Coefficient  Atom+Function         Bfn.  Coefficient  Atom+Function  
  ----- ------------  ---------------      ----- ------------  ---------------
   139      0.196750   9 C  s                59      0.187976   5 C  pz        
    44     -0.172386   4 H  s                15      0.161796   2 C  py        
    83      0.158900   6 O  py               16      0.156080   2 C  pz        
   226      0.153211  15 C  s         

 Vector   35  Occ=2.000000D+00  E=-6.392186D-01
              MO Center=  3.7D-01, -4.4D-01,  1.0D-01, r^2= 9.2D+00
   Bfn.  Coefficient  Atom+Function         Bfn.  Coefficient  Atom+Function  
  ----- ------------  ---------------      ----- ------------  ---------------
   139      0.179156   9 C  s               252      0.175901  16 O  px        
    16      0.170934   2 C  pz               35      0.160087   3 H  s         

 Vector   36  Occ=2.000000D+00  E=-6.150186D-01
              MO Center=  1.3D-01, -4.9D-01,  1.6D-01, r^2= 8.3D+00
   Bfn.  Coefficient  Atom+Function         Bfn.  Coefficient  Atom+Function  
  ----- ------------  ---------------      ----- ------------  ---------------
    58      0.176245   5 C  py               83     -0.155196   6 O  py        

 Vector   37  Occ=2.000000D+00  E=-6.042555D-01
              MO Center= -1.7D-02, -6.5D-01, -1.2D-01, r^2= 8.9D+00
   Bfn.  Coefficient  Atom+Function         Bfn.  Coefficient  Atom+Function  
  ----- ------------  ---------------      ----- ------------  ---------------
   145      0.186807   9 C  py              252     -0.181026  16 O  px        
   225     -0.176185  15 C  s                 2     -0.162992   1 H  s         
    82     -0.156334   6 O  px        

 Vector   38  Occ=2.000000D+00  E=-5.983417D-01
              MO Center=  6.2D-02, -3.8D-01, -1.6D-01, r^2= 1.0D+01
   Bfn.  Coefficient  Atom+Function         Bfn.  Coefficient  Atom+Function  
  ----- ------------  ---------------      ----- ------------  ---------------
   423     -0.195838  26 O  py              254      0.193495  16 O  pz        
     1     -0.170685   1 H  s               227     -0.167092  15 C  px        
   175      0.160278  11 C  px                2     -0.158761   1 H  s         

 Vector   39  Occ=2.000000D+00  E=-5.933392D-01
              MO Center=  2.2D-01, -1.2D+00,  1.0D-01, r^2= 1.2D+01
   Bfn.  Coefficient  Atom+Function         Bfn.  Coefficient  Atom+Function  
  ----- ------------  ---------------      ----- ------------  ---------------
     1      0.251383   1 H  s                14      0.238254   2 C  px        
   196      0.189245  12 H  s               423     -0.184004  26 O  py        
   197      0.178591  12 H  s                 2      0.177673   1 H  s         
   176      0.175664  11 C  py        

 Vector   40  Occ=2.000000D+00  E=-5.879210D-01
              MO Center= -1.6D-01,  1.4D+00,  3.3D-01, r^2= 7.4D+00
   Bfn.  Coefficient  Atom+Function         Bfn.  Coefficient  Atom+Function  
  ----- ------------  ---------------      ----- ------------  ---------------
   423     -0.208430  26 O  py              347      0.199573  21 C  pz        
   384      0.178159  24 H  s               397     -0.152918  25 C  px        

 Vector   41  Occ=2.000000D+00  E=-5.677591D-01
              MO Center= -4.1D-01,  1.1D+00,  2.8D-01, r^2= 8.5D+00
   Bfn.  Coefficient  Atom+Function         Bfn.  Coefficient  Atom+Function  
  ----- ------------  ---------------      ----- ------------  ---------------
   346      0.199047  21 C  py              375      0.192266  23 H  s         
   176      0.172619  11 C  py              225     -0.166978  15 C  s         
   313     -0.163840  19 C  pz              423      0.163282  26 O  py        
   139      0.161243   9 C  s               205     -0.155166  13 H  s         

 Vector   42  Occ=2.000000D+00  E=-5.638440D-01
              MO Center=  6.4D-03, -2.0D+00,  3.4D-01, r^2= 7.9D+00
   Bfn.  Coefficient  Atom+Function         Bfn.  Coefficient  Atom+Function  
  ----- ------------  ---------------      ----- ------------  ---------------
   177      0.244634  11 C  pz              214      0.238019  14 H  s         
   215      0.196586  14 H  s                44     -0.186222   4 H  s         
   174      0.162960  11 C  s                35      0.161561   3 H  s         
   108     -0.160846   7 N  py               16      0.157625   2 C  pz        
    15      0.151956   2 C  py        

 Vector   43  Occ=2.000000D+00  E=-5.573516D-01
              MO Center= -8.1D-01, -1.5D+00,  1.1D-01, r^2= 9.2D+00
   Bfn.  Coefficient  Atom+Function         Bfn.  Coefficient  Atom+Function  
  ----- ------------  ---------------      ----- ------------  ---------------
   196     -0.275283  12 H  s               175      0.268308  11 C  px        
   197     -0.254795  12 H  s               206      0.194152  13 H  s         
    12     -0.190390   2 C  s                55      0.187594   5 C  s         
     1      0.168996   1 H  s                14      0.166694   2 C  px        
   107      0.165057   7 N  px              141     -0.164793   9 C  px        

 Vector   44  Occ=2.000000D+00  E=-5.545555D-01
              MO Center=  2.7D-01,  2.6D-01,  4.7D-01, r^2= 1.0D+01
   Bfn.  Coefficient  Atom+Function         Bfn.  Coefficient  Atom+Function  
  ----- ------------  ---------------      ----- ------------  ---------------
   346      0.202354  21 C  py              376      0.188979  23 H  s         
   375      0.183319  23 H  s               367     -0.181544  22 H  s         
   333     -0.165238  20 H  s               366     -0.150049  22 H  s         

 Vector   45  Occ=2.000000D+00  E=-5.346653D-01
              MO Center= -6.3D-01,  5.5D-02,  5.0D-01, r^2= 8.7D+00
   Bfn.  Coefficient  Atom+Function         Bfn.  Coefficient  Atom+Function  
  ----- ------------  ---------------      ----- ------------  ---------------
   376      0.226338  23 H  s               346      0.222148  21 C  py        
   375      0.217199  23 H  s               206      0.179051  13 H  s         
   278      0.165185  17 N  py              215     -0.161148  14 H  s         
   228     -0.157971  15 C  py              162     -0.157059  10 H  s         
   145      0.153458   9 C  py              205      0.154112  13 H  s         

 Vector   46  Occ=2.000000D+00  E=-5.320471D-01
              MO Center=  4.6D-02,  1.7D+00,  1.1D+00, r^2= 6.1D+00
   Bfn.  Coefficient  Atom+Function         Bfn.  Coefficient  Atom+Function  
  ----- ------------  ---------------      ----- ------------  ---------------
   385      0.333057  24 H  s               384      0.287478  24 H  s         
   345     -0.239714  21 C  px              366     -0.173901  22 H  s         
   399      0.163661  25 C  pz              347      0.157107  21 C  pz        
   367     -0.154518  22 H  s         

 Vector   47  Occ=2.000000D+00  E=-5.161832D-01
              MO Center= -6.1D-01,  1.6D-01,  6.6D-02, r^2= 7.7D+00
   Bfn.  Coefficient  Atom+Function         Bfn.  Coefficient  Atom+Function  
  ----- ------------  ---------------      ----- ------------  ---------------
   347     -0.188520  21 C  pz              313      0.181542  19 C  pz        
   143      0.176255   9 C  pz              162     -0.157553  10 H  s         
   316      0.155483  19 C  pz              252      0.153194  16 O  px        
   309      0.153890  19 C  s         

 Vector   48  Occ=2.000000D+00  E=-4.991460D-01
              MO Center= -4.1D-02,  1.8D+00,  4.2D-01, r^2= 5.0D+00
   Bfn.  Coefficient  Atom+Function         Bfn.  Coefficient  Atom+Function  
  ----- ------------  ---------------      ----- ------------  ---------------
   311      0.273976  19 C  px              332     -0.252321  20 H  s         
   344     -0.202482  21 C  s               350     -0.203441  21 C  pz        
   396      0.194605  25 C  s               345     -0.187395  21 C  px        
   422     -0.181772  26 O  px              366     -0.177011  22 H  s         
   367     -0.159868  22 H  s               347     -0.154476  21 C  pz        

 Vector   49  Occ=2.000000D+00  E=-4.566416D-01
              MO Center=  8.1D-01, -1.2D+00, -4.5D-01, r^2= 4.5D+00
   Bfn.  Coefficient  Atom+Function         Bfn.  Coefficient  Atom+Function  
  ----- ------------  ---------------      ----- ------------  ---------------
    82      0.394941   6 O  px               85      0.319595   6 O  px        
    83     -0.215131   6 O  py              139      0.202602   9 C  s         
   225     -0.192512  15 C  s               276      0.186983  17 N  s         
   140     -0.183664   9 C  s                86     -0.167005   6 O  py        
    13      0.163923   2 C  s               111      0.156394   7 N  py        

 Vector   50  Occ=2.000000D+00  E=-4.545520D-01
              MO Center=  1.3D-01, -1.1D+00, -4.6D-01, r^2= 4.9D+00
   Bfn.  Coefficient  Atom+Function         Bfn.  Coefficient  Atom+Function  
  ----- ------------  ---------------      ----- ------------  ---------------
    82      0.291012   6 O  px              109     -0.252791   7 N  pz        
   253     -0.248759  16 O  py               84      0.233470   6 O  pz        
    85      0.230873   6 O  px              112     -0.225663   7 N  pz        
   139     -0.225660   9 C  s               256     -0.198309  16 O  py        
    87      0.179175   6 O  pz              254     -0.171164  16 O  pz        

 Vector   51  Occ=2.000000D+00  E=-4.318724D-01
              MO Center= -5.4D-01,  1.3D+00, -3.2D-01, r^2= 6.1D+00
   Bfn.  Coefficient  Atom+Function         Bfn.  Coefficient  Atom+Function  
  ----- ------------  ---------------      ----- ------------  ---------------
   254      0.290239  16 O  pz              424     -0.289342  26 O  pz        
   333     -0.266152  20 H  s               427     -0.225933  26 O  pz        
   257      0.222811  16 O  pz              277      0.215012  17 N  px        
   280      0.184099  17 N  px              422      0.183888  26 O  px        
   282     -0.163638  17 N  pz              279     -0.162517  17 N  pz        

 Vector   52  Occ=2.000000D+00  E=-4.112510D-01
              MO Center= -7.4D-01, -2.8D-01, -3.9D-01, r^2= 5.9D+00
   Bfn.  Coefficient  Atom+Function         Bfn.  Coefficient  Atom+Function  
  ----- ------------  ---------------      ----- ------------  ---------------
   253      0.345123  16 O  py              256      0.267772  16 O  py        
   145      0.246770   9 C  py              139      0.244271   9 C  s         
   108     -0.206977   7 N  py              109     -0.195380   7 N  pz        
   112     -0.185434   7 N  pz              111     -0.183198   7 N  py        
   142      0.176447   9 C  py              163     -0.161803  10 H  s         

 Vector   53  Occ=2.000000D+00  E=-3.880951D-01
              MO Center=  7.1D-01,  2.7D+00, -8.8D-01, r^2= 2.3D+00
   Bfn.  Coefficient  Atom+Function         Bfn.  Coefficient  Atom+Function  
  ----- ------------  ---------------      ----- ------------  ---------------
   422      0.384985  26 O  px              447     -0.340258  27 N  px        
   450     -0.302244  27 N  px              425      0.299809  26 O  px        
   449     -0.261936  27 N  pz              452     -0.213812  27 N  pz        
   139     -0.168555   9 C  s         

 Vector   54  Occ=2.000000D+00  E=-3.818794D-01
              MO Center= -2.8D-01,  1.9D+00, -1.2D-01, r^2= 4.6D+00
   Bfn.  Coefficient  Atom+Function         Bfn.  Coefficient  Atom+Function  
  ----- ------------  ---------------      ----- ------------  ---------------
   424      0.350093  26 O  pz              427      0.274750  26 O  pz        
   279     -0.259440  17 N  pz              282     -0.249429  17 N  pz        
   276     -0.236564  17 N  s               277      0.195826  17 N  px        
   280      0.182851  17 N  px              254      0.166860  16 O  pz        
   252     -0.161166  16 O  px        

 Vector   55  Occ=0.000000D+00  E= 1.430634D-02
              MO Center=  6.7D-01, -4.0D+00,  1.9D+00, r^2= 1.8D+01
   Bfn.  Coefficient  Atom+Function         Bfn.  Coefficient  Atom+Function  
  ----- ------------  ---------------      ----- ------------  ---------------
    63      2.295603   5 C  px              226      2.206849  15 C  s         
   234     -2.217786  15 C  py              300      2.207760  18 H  s         
    37     -2.083883   3 H  s               396      1.524241  25 C  s         
    12      1.506151   2 C  s                64     -1.461778   5 C  py        
   148     -1.354723   9 C  py              207     -1.325846  13 H  s         

 Vector   56  Occ=0.000000D+00  E= 3.025136D-02
              MO Center=  1.2D-01, -2.9D+00,  1.4D+00, r^2= 2.8D+01
   Bfn.  Coefficient  Atom+Function         Bfn.  Coefficient  Atom+Function  
  ----- ------------  ---------------      ----- ------------  ---------------
   106      3.669316   7 N  s               234      3.437200  15 C  py        
   207      3.080951  13 H  s                37     -2.833866   3 H  s         
   396      2.444304  25 C  s               233      2.222830  15 C  px        
    46      2.187454   4 H  s               386     -1.954996  24 H  s         
   300      1.935011  18 H  s               216     -1.799190  14 H  s         

 Vector   57  Occ=0.000000D+00  E= 3.344714D-02
              MO Center=  9.6D-01, -3.0D+00,  1.2D+00, r^2= 3.0D+01
   Bfn.  Coefficient  Atom+Function         Bfn.  Coefficient  Atom+Function  
  ----- ------------  ---------------      ----- ------------  ---------------
    63      3.511584   5 C  px              147      2.721814   9 C  px        
    12      2.237420   2 C  s               106      2.238316   7 N  s         
     3     -2.178516   1 H  s               173     -2.173078  11 C  s         
   276      2.043789  17 N  s               216      1.883443  14 H  s         
   215      1.675662  14 H  s                46     -1.485409   4 H  s         

 Vector   58  Occ=0.000000D+00  E= 4.285753D-02
              MO Center= -1.6D-01, -1.5D+00,  2.3D-01, r^2= 3.5D+01
   Bfn.  Coefficient  Atom+Function         Bfn.  Coefficient  Atom+Function  
  ----- ------------  ---------------      ----- ------------  ---------------
   396      3.738349  25 C  s               130      2.903056   8 H  s         
     3     -2.335104   1 H  s               164     -2.054860  10 H  s         
   106      1.695718   7 N  s               198     -1.621343  12 H  s         
   284     -1.468227  17 N  py              149     -1.453779   9 C  pz        
   174      1.435614  11 C  s               310      1.407679  19 C  s         

 Vector   59  Occ=0.000000D+00  E= 5.157564D-02
              MO Center= -3.9D-02, -1.0D+00,  2.0D+00, r^2= 3.8D+01
   Bfn.  Coefficient  Atom+Function         Bfn.  Coefficient  Atom+Function  
  ----- ------------  ---------------      ----- ------------  ---------------
   234      4.447943  15 C  py               46     -3.686059   4 H  s         
    56      3.390893   5 C  s               386     -3.282169  24 H  s         
   147     -2.740455   9 C  px              276     -2.554521  17 N  s         
   233      2.340135  15 C  px              396      2.196175  25 C  s         
    37      2.152238   3 H  s                63     -2.048856   5 C  px        

 Vector   60  Occ=0.000000D+00  E= 5.360253D-02
              MO Center=  2.9D-01, -2.0D+00,  1.0D+00, r^2= 3.5D+01
   Bfn.  Coefficient  Atom+Function         Bfn.  Coefficient  Atom+Function  
  ----- ------------  ---------------      ----- ------------  ---------------
   216      3.478686  14 H  s               174     -3.141042  11 C  s         
    63     -3.006255   5 C  px                3      2.728944   1 H  s         
   106     -2.741035   7 N  s                56      2.540127   5 C  s         
   164     -2.552511  10 H  s               130     -2.277723   8 H  s         
   368     -1.930704  22 H  s               207     -1.798217  13 H  s         

 Vector   61  Occ=0.000000D+00  E= 5.692500D-02
              MO Center=  1.1D+00, -1.0D-01, -1.3D+00, r^2= 3.6D+01
   Bfn.  Coefficient  Atom+Function         Bfn.  Coefficient  Atom+Function  
  ----- ------------  ---------------      ----- ------------  ---------------
   226      3.782763  15 C  s               446     -3.061649  27 N  s         
   479     -2.920481  29 H  s               130     -2.824043   8 H  s         
   198      2.699415  12 H  s                37      2.572263   3 H  s         
   233      2.500845  15 C  px              140      2.438986   9 C  s         
   405     -2.381438  25 C  pz              216     -2.157572  14 H  s         

 Vector   62  Occ=0.000000D+00  E= 5.938153D-02
              MO Center= -7.8D-02, -1.1D+00, -1.0D-01, r^2= 3.7D+01
   Bfn.  Coefficient  Atom+Function         Bfn.  Coefficient  Atom+Function  
  ----- ------------  ---------------      ----- ------------  ---------------
   164      4.729157  10 H  s                13     -3.913906   2 C  s         
   207     -3.835411  13 H  s               149      3.279250   9 C  pz        
    63      3.228713   5 C  px              226      2.624295  15 C  s         
   368     -2.377964  22 H  s               113      2.228291   7 N  px        
    56     -2.086079   5 C  s                37      2.018922   3 H  s         

 Vector   63  Occ=0.000000D+00  E= 6.558945D-02
              MO Center=  2.2D-01,  5.2D-01,  7.2D-01, r^2= 3.9D+01
   Bfn.  Coefficient  Atom+Function         Bfn.  Coefficient  Atom+Function  
  ----- ------------  ---------------      ----- ------------  ---------------
   300      5.502061  18 H  s               276      4.083963  17 N  s         
    13      3.067963   2 C  s                37     -2.935335   3 H  s         
   377     -2.897167  23 H  s                 3      2.705724   1 H  s         
   198     -2.639856  12 H  s               334     -2.617709  20 H  s         
   234      2.545588  15 C  py              226     -2.456861  15 C  s         

 Vector   64  Occ=0.000000D+00  E= 7.464070D-02
              MO Center=  5.6D-01, -9.9D-01,  1.1D+00, r^2= 4.1D+01
   Bfn.  Coefficient  Atom+Function         Bfn.  Coefficient  Atom+Function  
  ----- ------------  ---------------      ----- ------------  ---------------
   368      4.264185  22 H  s                46      4.208543   4 H  s         
    56     -4.043274   5 C  s                 3     -3.757623   1 H  s         
   147      3.572870   9 C  px               63      3.522348   5 C  px        
   207     -3.433978  13 H  s               198      2.975834  12 H  s         
    13     -2.577447   2 C  s               334     -2.526663  20 H  s         

 Vector   65  Occ=0.000000D+00  E= 7.655307D-02
              MO Center=  3.5D-01,  1.1D-01,  6.3D-01, r^2= 4.1D+01
   Bfn.  Coefficient  Atom+Function         Bfn.  Coefficient  Atom+Function  
  ----- ------------  ---------------      ----- ------------  ---------------
   207      4.825269  13 H  s               386      4.632173  24 H  s         
   130     -3.497658   8 H  s               164     -3.301019  10 H  s         
   377     -3.303365  23 H  s               446      2.826225  27 N  s         
   479      2.718330  29 H  s                63     -2.667340   5 C  px        
   234      2.666748  15 C  py              149     -2.453563   9 C  pz        

 Vector   66  Occ=0.000000D+00  E= 8.014642D-02
              MO Center= -1.3D+00,  9.4D-02,  1.2D+00, r^2= 3.4D+01
   Bfn.  Coefficient  Atom+Function         Bfn.  Coefficient  Atom+Function  
  ----- ------------  ---------------      ----- ------------  ---------------
   300      8.056482  18 H  s               174      7.432230  11 C  s         
    56     -7.137596   5 C  s               216     -4.947137  14 H  s         
   164     -4.853823  10 H  s               334      4.700431  20 H  s         
   344     -4.546902  21 C  s               149     -4.072065   9 C  pz        
   226     -3.864590  15 C  s               377     -3.844488  23 H  s         

 Vector   67  Occ=0.000000D+00  E= 8.547577D-02
              MO Center= -1.6D+00, -8.0D-01,  1.0D+00, r^2= 3.5D+01
   Bfn.  Coefficient  Atom+Function         Bfn.  Coefficient  Atom+Function  
  ----- ------------  ---------------      ----- ------------  ---------------
   198      5.732864  12 H  s               130      4.684147   8 H  s         
   334     -4.497523  20 H  s               216     -4.278980  14 H  s         
   234      4.105216  15 C  py              318      3.794927  19 C  py        
   386      3.793610  24 H  s               276     -3.321520  17 N  s         
   226      3.162291  15 C  s               140      3.105474   9 C  s         

 Vector   68  Occ=0.000000D+00  E= 9.599161D-02
              MO Center=  6.0D-01,  9.3D-01,  2.0D+00, r^2= 3.0D+01
   Bfn.  Coefficient  Atom+Function         Bfn.  Coefficient  Atom+Function  
  ----- ------------  ---------------      ----- ------------  ---------------
   300     10.191861  18 H  s               368     -6.219200  22 H  s         
   377      5.768360  23 H  s               130     -3.331154   8 H  s         
    56     -3.255608   5 C  s               164     -2.941073  10 H  s         
   344      2.621693  21 C  s               234     -2.561702  15 C  py        
   285     -2.401548  17 N  pz              334     -2.348369  20 H  s         

 Vector   69  Occ=0.000000D+00  E= 1.042641D-01
              MO Center=  1.4D+00, -2.2D-01, -1.5D+00, r^2= 3.0D+01
   Bfn.  Coefficient  Atom+Function         Bfn.  Coefficient  Atom+Function  
  ----- ------------  ---------------      ----- ------------  ---------------
   470     10.724392  28 H  s                56     -3.968790   5 C  s         
   164     -3.860307  10 H  s                63      3.779608   5 C  px        
   276      3.485225  17 N  s               234     -3.404192  15 C  py        
    64     -3.331879   5 C  py              479     -3.180931  29 H  s         
   149     -2.796894   9 C  pz               13     -2.779070   2 C  s         

 Vector   70  Occ=0.000000D+00  E= 1.156937D-01
              MO Center= -4.7D-02, -2.5D-01,  9.1D-02, r^2= 2.9D+01
   Bfn.  Coefficient  Atom+Function         Bfn.  Coefficient  Atom+Function  
  ----- ------------  ---------------      ----- ------------  ---------------
   344     12.589057  21 C  s                56     -8.435384   5 C  s         
   319     -7.712495  19 C  pz              174      6.976353  11 C  s         
   147      6.889675   9 C  px              396     -6.035505  25 C  s         
   300     -4.760839  18 H  s               317     -4.615929  19 C  px        
   353     -4.375525  21 C  pz              318     -4.205124  19 C  py        

 Vector   71  Occ=0.000000D+00  E= 1.207835D-01
              MO Center=  1.3D+00, -5.8D-01,  1.9D-01, r^2= 2.8D+01
   Bfn.  Coefficient  Atom+Function         Bfn.  Coefficient  Atom+Function  
  ----- ------------  ---------------      ----- ------------  ---------------
   344      9.137066  21 C  s               470      5.422509  28 H  s         
   319     -4.134338  19 C  pz              317     -3.697900  19 C  px        
   106      3.443103   7 N  s               226     -3.398652  15 C  s         
    63      2.976329   5 C  px              396     -2.955021  25 C  s         
   276     -2.855962  17 N  s               353     -2.806483  21 C  pz        

 Vector   72  Occ=0.000000D+00  E= 1.250612D-01
              MO Center=  6.7D-01, -1.1D+00,  8.3D-01, r^2= 3.4D+01
   Bfn.  Coefficient  Atom+Function         Bfn.  Coefficient  Atom+Function  
  ----- ------------  ---------------      ----- ------------  ---------------
   396     22.744367  25 C  s               344    -18.829468  21 C  s         
   226     14.574027  15 C  s               319     11.166926  19 C  pz        
    56     10.264671   5 C  s               106     -9.566872   7 N  s         
   310      7.107554  19 C  s               148     -6.654375   9 C  py        
   276     -6.109378  17 N  s               353      5.870821  21 C  pz        

 Vector   73  Occ=0.000000D+00  E= 1.280642D-01
              MO Center= -7.0D-01, -3.4D-01,  9.1D-01, r^2= 3.5D+01
   Bfn.  Coefficient  Atom+Function         Bfn.  Coefficient  Atom+Function  
  ----- ------------  ---------------      ----- ------------  ---------------
   396     26.663857  25 C  s               174     18.989071  11 C  s         
   344    -18.960888  21 C  s               226    -15.366279  15 C  s         
   319     13.957474  19 C  pz              140    -12.635920   9 C  s         
    56    -12.347058   5 C  s               234     11.299782  15 C  py        
   106      8.469986   7 N  s               148      7.870730   9 C  py        

 Vector   74  Occ=0.000000D+00  E= 1.384994D-01
              MO Center= -7.9D-01, -5.3D-01, -9.7D-02, r^2= 3.0D+01
   Bfn.  Coefficient  Atom+Function         Bfn.  Coefficient  Atom+Function  
  ----- ------------  ---------------      ----- ------------  ---------------
   226     13.792930  15 C  s               140     11.809100   9 C  s         
   276    -10.806804  17 N  s                13    -10.691943   2 C  s         
   174     -9.833101  11 C  s               344     -7.237733  21 C  s         
    63      7.014447   5 C  px              233      6.301643  15 C  px        
    56      6.227468   5 C  s               284      6.056216  17 N  py        

 Vector   75  Occ=0.000000D+00  E= 1.401340D-01
              MO Center=  4.6D-01,  1.3D-01,  1.4D-01, r^2= 3.2D+01
   Bfn.  Coefficient  Atom+Function         Bfn.  Coefficient  Atom+Function  
  ----- ------------  ---------------      ----- ------------  ---------------
   147     -6.495368   9 C  px               56      6.438424   5 C  s         
   404     -5.280777  25 C  py              470     -5.269454  28 H  s         
   396      5.165802  25 C  s               446     -5.144825  27 N  s         
   174     -4.559797  11 C  s               233      4.290882  15 C  px        
   234      3.725976  15 C  py              317      3.713203  19 C  px        

 Vector   76  Occ=0.000000D+00  E= 1.444323D-01
              MO Center= -3.3D-01, -2.5D+00,  2.9D-01, r^2= 2.3D+01
   Bfn.  Coefficient  Atom+Function         Bfn.  Coefficient  Atom+Function  
  ----- ------------  ---------------      ----- ------------  ---------------
    63     10.610333   5 C  px              147      7.130034   9 C  px        
    13     -4.496921   2 C  s               470     -4.100300  28 H  s         
    12      3.899810   2 C  s               173     -3.886758  11 C  s         
   164      3.650588  10 H  s               226      3.650008  15 C  s         
   234      3.530562  15 C  py              206      3.494338  13 H  s         

 Vector   77  Occ=0.000000D+00  E= 1.465939D-01
              MO Center=  1.3D+00, -2.1D+00,  3.4D-01, r^2= 1.7D+01
   Bfn.  Coefficient  Atom+Function         Bfn.  Coefficient  Atom+Function  
  ----- ------------  ---------------      ----- ------------  ---------------
   106      7.241843   7 N  s                63      6.157219   5 C  px        
    64     -5.741359   5 C  py               37     -4.670456   3 H  s         
   140      4.392139   9 C  s                22      4.190720   2 C  pz        
    13     -4.029691   2 C  s               234      3.640591  15 C  py        
   344     -3.609229  21 C  s               446     -3.264179  27 N  s         

 Vector   78  Occ=0.000000D+00  E= 1.496846D-01
              MO Center= -1.3D+00, -7.0D-01,  2.8D-01, r^2= 2.8D+01
   Bfn.  Coefficient  Atom+Function         Bfn.  Coefficient  Atom+Function  
  ----- ------------  ---------------      ----- ------------  ---------------
   344     -5.560333  21 C  s               113      5.531715   7 N  px        
    63      5.275862   5 C  px              147      4.742920   9 C  px        
    13     -4.667602   2 C  s                56     -4.501036   5 C  s         
   226      4.418927  15 C  s               216      4.291361  14 H  s         
   148     -4.135372   9 C  py              234     -3.728624  15 C  py        

 Vector   79  Occ=0.000000D+00  E= 1.521524D-01
              MO Center=  1.2D+00, -6.1D-01, -4.9D-01, r^2= 3.1D+01
   Bfn.  Coefficient  Atom+Function         Bfn.  Coefficient  Atom+Function  
  ----- ------------  ---------------      ----- ------------  ---------------
   396     13.830036  25 C  s               446     -8.723550  27 N  s         
   470     -8.352773  28 H  s               226     -7.852795  15 C  s         
   106      7.165419   7 N  s               276      5.449405  17 N  s         
   404     -5.429648  25 C  py              140     -5.032347   9 C  s         
   233     -4.817215  15 C  px              300      4.827045  18 H  s         

 Vector   80  Occ=0.000000D+00  E= 1.554856D-01
              MO Center= -2.7D-01, -1.1D+00,  3.0D-01, r^2= 2.8D+01
   Bfn.  Coefficient  Atom+Function         Bfn.  Coefficient  Atom+Function  
  ----- ------------  ---------------      ----- ------------  ---------------
   234      8.521008  15 C  py              226      5.684915  15 C  s         
   149     -5.651380   9 C  pz              318      5.293896  19 C  py        
   319      4.766231  19 C  pz              130      4.701531   8 H  s         
   344     -4.005029  21 C  s               106      3.778769   7 N  s         
   140      3.789111   9 C  s               235      3.471871  15 C  pz        

 Vector   81  Occ=0.000000D+00  E= 1.597196D-01
              MO Center=  7.4D-01, -1.6D+00,  2.1D-01, r^2= 2.8D+01
   Bfn.  Coefficient  Atom+Function         Bfn.  Coefficient  Atom+Function  
  ----- ------------  ---------------      ----- ------------  ---------------
   147      5.623059   9 C  px              174      5.035049  11 C  s         
    20     -5.000423   2 C  px              130     -5.025081   8 H  s         
   396      4.916814  25 C  s               405     -4.357991  25 C  pz        
   300     -4.036145  18 H  s                 3      3.739882   1 H  s         
    56     -3.601517   5 C  s                63      3.438099   5 C  px        

 Vector   82  Occ=0.000000D+00  E= 1.633766D-01
              MO Center= -8.7D-01,  4.8D-01, -3.0D-01, r^2= 2.8D+01
   Bfn.  Coefficient  Atom+Function         Bfn.  Coefficient  Atom+Function  
  ----- ------------  ---------------      ----- ------------  ---------------
   233     -7.863353  15 C  px               63      7.428177   5 C  px        
   276      7.244978  17 N  s               234     -7.060624  15 C  py        
    56     -6.741576   5 C  s               106      6.035619   7 N  s         
   235     -5.918281  15 C  pz              300      5.859746  18 H  s         
   148     -5.697887   9 C  py              319     -4.106408  19 C  pz        

 Vector   83  Occ=0.000000D+00  E= 1.657188D-01
              MO Center=  1.4D+00,  2.0D-02, -1.5D-01, r^2= 2.9D+01
   Bfn.  Coefficient  Atom+Function         Bfn.  Coefficient  Atom+Function  
  ----- ------------  ---------------      ----- ------------  ---------------
   446      9.853449  27 N  s               106      9.352892   7 N  s         
    56     -8.903277   5 C  s                63      8.418227   5 C  px        
   174      8.370100  11 C  s               403     -5.367125  25 C  px        
   318     -5.305191  19 C  py              226     -5.139419  15 C  s         
   310     -4.350373  19 C  s                12      3.941096   2 C  s         

 Vector   84  Occ=0.000000D+00  E= 1.703208D-01
              MO Center=  2.6D-01, -1.5D+00, -5.8D-02, r^2= 2.7D+01
   Bfn.  Coefficient  Atom+Function         Bfn.  Coefficient  Atom+Function  
  ----- ------------  ---------------      ----- ------------  ---------------
    13     11.877907   2 C  s               226    -11.252597  15 C  s         
    63    -10.640079   5 C  px              140     -7.680119   9 C  s         
   113     -7.288160   7 N  px              148      5.412414   9 C  py        
   149     -5.383523   9 C  pz               56      5.053481   5 C  s         
   446      4.887743  27 N  s               310     -4.616326  19 C  s         

 Vector   85  Occ=0.000000D+00  E= 1.715540D-01
              MO Center= -7.4D-01, -1.4D+00,  5.2D-01, r^2= 3.0D+01
   Bfn.  Coefficient  Atom+Function         Bfn.  Coefficient  Atom+Function  
  ----- ------------  ---------------      ----- ------------  ---------------
   226      9.040299  15 C  s               130      6.705316   8 H  s         
    13     -6.580408   2 C  s               140      6.539023   9 C  s         
   181     -5.793091  11 C  px              396     -5.004409  25 C  s         
   284      4.842105  17 N  py              276     -4.546628  17 N  s         
    20      4.410987   2 C  px               64     -4.404528   5 C  py        

 Vector   86  Occ=0.000000D+00  E= 1.778618D-01
              MO Center= -1.2D+00, -1.3D+00, -6.4D-02, r^2= 2.2D+01
   Bfn.  Coefficient  Atom+Function         Bfn.  Coefficient  Atom+Function  
  ----- ------------  ---------------      ----- ------------  ---------------
   234      7.366777  15 C  py              276     -6.545739  17 N  s         
   396     -4.903104  25 C  s               233      4.837542  15 C  px        
    56      4.662254   5 C  s               198      4.662715  12 H  s         
   310     -4.212899  19 C  s               300     -4.159256  18 H  s         
   235      4.042346  15 C  pz              470     -3.837865  28 H  s         

 Vector   87  Occ=0.000000D+00  E= 1.788755D-01
              MO Center= -9.5D-02,  5.7D-02,  1.7D-01, r^2= 2.9D+01
   Bfn.  Coefficient  Atom+Function         Bfn.  Coefficient  Atom+Function  
  ----- ------------  ---------------      ----- ------------  ---------------
   234      7.786060  15 C  py              470      6.147385  28 H  s         
    64     -5.460314   5 C  py              396     -5.299351  25 C  s         
   300      4.932070  18 H  s               147     -4.345026   9 C  px        
   405      3.842086  25 C  pz              310     -3.275295  19 C  s         
    81      3.230539   6 O  s               233      3.197577  15 C  px        

 Vector   88  Occ=0.000000D+00  E= 1.863665D-01
              MO Center=  2.1D-01, -6.0D-01, -7.7D-02, r^2= 2.8D+01
   Bfn.  Coefficient  Atom+Function         Bfn.  Coefficient  Atom+Function  
  ----- ------------  ---------------      ----- ------------  ---------------
   344      8.553924  21 C  s               149      7.197663   9 C  pz        
   174     -6.680261  11 C  s               318     -6.595600  19 C  py        
   235     -5.844472  15 C  pz              234     -5.231949  15 C  py        
    13     -4.595484   2 C  s               300      4.344793  18 H  s         
   148     -4.315497   9 C  py               22      4.101842   2 C  pz        

 Vector   89  Occ=0.000000D+00  E= 1.894425D-01
              MO Center=  5.9D-01,  8.4D-01,  3.1D-01, r^2= 2.7D+01
   Bfn.  Coefficient  Atom+Function         Bfn.  Coefficient  Atom+Function  
  ----- ------------  ---------------      ----- ------------  ---------------
   300      9.228949  18 H  s               470     -8.364244  28 H  s         
    65     -6.127606   5 C  pz               63      6.005455   5 C  px        
    56     -5.682468   5 C  s               106      5.698792   7 N  s         
   446     -5.248531  27 N  s               318      4.957320  19 C  py        
   174      4.382015  11 C  s                37     -4.258881   3 H  s         

 Vector   90  Occ=0.000000D+00  E= 1.904844D-01
              MO Center=  8.4D-01, -4.1D-01,  6.8D-01, r^2= 2.4D+01
   Bfn.  Coefficient  Atom+Function         Bfn.  Coefficient  Atom+Function  
  ----- ------------  ---------------      ----- ------------  ---------------
   148     12.255701   9 C  py              174     11.340329  11 C  s         
    13      8.262762   2 C  s               226     -7.451925  15 C  s         
   284      5.586088  17 N  py              300      5.401975  18 H  s         
   234      4.742048  15 C  py               63     -4.549660   5 C  px        
   235      4.369562  15 C  pz              377     -4.342703  23 H  s         

 Vector   91  Occ=0.000000D+00  E= 1.953311D-01
              MO Center= -3.8D-01,  5.1D-01,  7.8D-01, r^2= 2.6D+01
   Bfn.  Coefficient  Atom+Function         Bfn.  Coefficient  Atom+Function  
  ----- ------------  ---------------      ----- ------------  ---------------
    56     16.360730   5 C  s               174    -11.512924  11 C  s         
[...]
    81     -6.194772   6 O  s                63     -6.101084   5 C  px        

 Vector  136  Occ=0.000000D+00  E= 4.183451D-01
              MO Center=  4.4D-01, -3.3D-01,  5.1D-01, r^2= 1.7D+01
   Bfn.  Coefficient  Atom+Function         Bfn.  Coefficient  Atom+Function  
  ----- ------------  ---------------      ----- ------------  ---------------
   396     12.729159  25 C  s                56     -9.813830   5 C  s         
    13     -8.876921   2 C  s               147      8.744526   9 C  px        
    63      7.711089   5 C  px              235     -5.715340  15 C  pz        
   318     -5.626338  19 C  py              113      5.458013   7 N  px        
     2      5.238917   1 H  s               276     -5.255712  17 N  s         

 Vector  137  Occ=0.000000D+00  E= 4.252895D-01
              MO Center=  4.6D-01, -7.9D-01,  3.0D-01, r^2= 2.0D+01
   Bfn.  Coefficient  Atom+Function         Bfn.  Coefficient  Atom+Function  
  ----- ------------  ---------------      ----- ------------  ---------------
   234      8.474769  15 C  py              174      7.548785  11 C  s         
   148      5.148775   9 C  py              396     -4.900917  25 C  s         
    45      4.529484   4 H  s               343      4.347711  21 C  s         
   317      4.257835  19 C  px               12     -4.060033   2 C  s         
   318      3.964544  19 C  py              300     -3.891837  18 H  s         

 Vector  138  Occ=0.000000D+00  E= 4.308645D-01
              MO Center= -1.8D-02,  2.0D-01,  2.5D-01, r^2= 1.9D+01
   Bfn.  Coefficient  Atom+Function         Bfn.  Coefficient  Atom+Function  
  ----- ------------  ---------------      ----- ------------  ---------------
   276     18.452225  17 N  s                13     11.146050   2 C  s         
   226    -11.009127  15 C  s               140    -10.637421   9 C  s         
   113     -8.664188   7 N  px               63     -8.468735   5 C  px        
   174     -6.614335  11 C  s               285     -6.600626  17 N  pz        
   147     -6.424775   9 C  px              376      4.636062  23 H  s         

 Vector  139  Occ=0.000000D+00  E= 4.354450D-01
              MO Center= -4.8D-01,  1.4D-01, -1.1D-01, r^2= 1.8D+01
   Bfn.  Coefficient  Atom+Function         Bfn.  Coefficient  Atom+Function  
  ----- ------------  ---------------      ----- ------------  ---------------
   226     16.915822  15 C  s               276    -16.379583  17 N  s         
   344    -15.612869  21 C  s               234     13.605335  15 C  py        
   140     11.864472   9 C  s               396     10.502234  25 C  s         
    13     -8.522195   2 C  s               233      8.142505  15 C  px        
   319      7.232404  19 C  pz              163     -7.161976  10 H  s         

 Vector  140  Occ=0.000000D+00  E= 4.365812D-01
              MO Center=  6.7D-01, -1.5D+00, -1.7D-01, r^2= 1.9D+01
   Bfn.  Coefficient  Atom+Function         Bfn.  Coefficient  Atom+Function  
  ----- ------------  ---------------      ----- ------------  ---------------
    56     11.645711   5 C  s               173    -10.277078  11 C  s         
   276     -9.371542  17 N  s               174     -9.200424  11 C  s         
   235      8.110868  15 C  pz              206      6.935924  13 H  s         
    65      6.509901   5 C  pz              197      6.438420  12 H  s         
   215      6.358311  14 H  s               106     -5.321233   7 N  s         

 Vector  141  Occ=0.000000D+00  E= 4.404570D-01
              MO Center= -1.9D-01, -1.1D+00,  2.5D-01, r^2= 1.9D+01
   Bfn.  Coefficient  Atom+Function         Bfn.  Coefficient  Atom+Function  
  ----- ------------  ---------------      ----- ------------  ---------------
   396     13.975854  25 C  s               106     -8.892339   7 N  s         
   174     -7.956634  11 C  s               446     -7.501080  27 N  s         
   149      7.240718   9 C  pz              284     -7.144638  17 N  py        
   310      5.861009  19 C  s                12     -5.575333   2 C  s         
   215      5.016075  14 H  s               235     -4.865463  15 C  pz        

 Vector  142  Occ=0.000000D+00  E= 4.463488D-01
              MO Center=  7.4D-02, -4.9D-01,  1.2D-01, r^2= 1.7D+01
   Bfn.  Coefficient  Atom+Function         Bfn.  Coefficient  Atom+Function  
  ----- ------------  ---------------      ----- ------------  ---------------
   276     12.806074  17 N  s               284    -11.817915  17 N  py        
   140    -10.607775   9 C  s               174      9.863112  11 C  s         
   226     -9.778237  15 C  s               396      9.565596  25 C  s         
    12      8.460336   2 C  s                56     -8.182694   5 C  s         
   113      7.522743   7 N  px              285     -7.077512  17 N  pz        

 Vector  143  Occ=0.000000D+00  E= 4.488787D-01
              MO Center= -1.6D-02,  1.6D-01,  2.3D-01, r^2= 1.8D+01
   Bfn.  Coefficient  Atom+Function         Bfn.  Coefficient  Atom+Function  
  ----- ------------  ---------------      ----- ------------  ---------------
   396    -17.087761  25 C  s               234    -16.435050  15 C  py        
   226     16.179176  15 C  s               344     14.697104  21 C  s         
    13    -13.975683   2 C  s               446     13.966031  27 N  s         
   106    -11.413329   7 N  s               113     11.298400   7 N  px        
   140     10.434391   9 C  s               174     -7.921681  11 C  s         

 Vector  144  Occ=0.000000D+00  E= 4.558932D-01
              MO Center= -2.1D-01,  5.4D-01,  5.7D-01, r^2= 1.9D+01
   Bfn.  Coefficient  Atom+Function         Bfn.  Coefficient  Atom+Function  
  ----- ------------  ---------------      ----- ------------  ---------------
   344     15.775587  21 C  s               276    -11.500115  17 N  s         
   319     -8.468951  19 C  pz              226     -8.349755  15 C  s         
   283     -7.061510  17 N  px               13      6.698400   2 C  s         
   310     -6.489766  19 C  s               396     -6.324715  25 C  s         
   446      5.589310  27 N  s               299      5.337600  18 H  s         

 Vector  145  Occ=0.000000D+00  E= 4.643744D-01
              MO Center= -4.8D-01, -3.3D-01,  5.1D-01, r^2= 1.9D+01
   Bfn.  Coefficient  Atom+Function         Bfn.  Coefficient  Atom+Function  
  ----- ------------  ---------------      ----- ------------  ---------------
   396     21.169520  25 C  s               174     19.799050  11 C  s         
   226    -17.435316  15 C  s                56    -13.135792   5 C  s         
   140    -12.578667   9 C  s               235     -7.523913  15 C  pz        
   147      7.447424   9 C  px              113      7.209578   7 N  px        
   283     -6.598494  17 N  px              470     -6.599317  28 H  s         

 Vector  146  Occ=0.000000D+00  E= 4.651456D-01
              MO Center= -4.6D-01, -8.1D-01,  1.6D-01, r^2= 1.8D+01
   Bfn.  Coefficient  Atom+Function         Bfn.  Coefficient  Atom+Function  
  ----- ------------  ---------------      ----- ------------  ---------------
   174     29.605139  11 C  s               226    -20.684120  15 C  s         
    13     18.804232   2 C  s               148     13.306937   9 C  py        
    56    -13.142475   5 C  s               234     12.326279  15 C  py        
   140    -10.804787   9 C  s                63    -10.292350   5 C  px        
   173      8.558677  11 C  s               310     -8.573998  19 C  s         

 Vector  147  Occ=0.000000D+00  E= 4.750202D-01
              MO Center= -5.5D-01, -1.0D+00,  5.9D-01, r^2= 1.8D+01
   Bfn.  Coefficient  Atom+Function         Bfn.  Coefficient  Atom+Function  
  ----- ------------  ---------------      ----- ------------  ---------------
   174     15.542249  11 C  s                13     14.069772   2 C  s         
   234     10.522428  15 C  py              173     10.053442  11 C  s         
   226     -8.961623  15 C  s                56     -8.384013   5 C  s         
   206     -8.093801  13 H  s                63     -7.292703   5 C  px        
   148      6.353583   9 C  py               12     -6.088492   2 C  s         

 Vector  148  Occ=0.000000D+00  E= 4.789802D-01
              MO Center= -2.5D-01, -3.1D-02,  3.6D-01, r^2= 1.7D+01
   Bfn.  Coefficient  Atom+Function         Bfn.  Coefficient  Atom+Function  
  ----- ------------  ---------------      ----- ------------  ---------------
   344     17.484765  21 C  s               319    -10.151548  19 C  pz        
   396     -9.835394  25 C  s               174     -9.042183  11 C  s         
   276     -8.523602  17 N  s               235      7.456803  15 C  pz        
    12     -7.348003   2 C  s               113     -6.659762   7 N  px        
   385     -6.420450  24 H  s               140      5.988274   9 C  s         

 Vector  149  Occ=0.000000D+00  E= 4.829528D-01
              MO Center=  1.3D-01,  1.1D+00,  2.9D-01, r^2= 1.9D+01
   Bfn.  Coefficient  Atom+Function         Bfn.  Coefficient  Atom+Function  
  ----- ------------  ---------------      ----- ------------  ---------------
   344     13.731376  21 C  s                56    -12.468576   5 C  s         
   226     -9.775199  15 C  s               276      9.338148  17 N  s         
   376     -8.469889  23 H  s               343      7.955705  21 C  s         
   319     -7.613810  19 C  pz              106      7.120759   7 N  s         
   174      6.838008  11 C  s               385     -6.805751  24 H  s         

 Vector  150  Occ=0.000000D+00  E= 4.837986D-01
              MO Center=  4.4D-01, -3.5D-01,  3.5D-01, r^2= 1.6D+01
   Bfn.  Coefficient  Atom+Function         Bfn.  Coefficient  Atom+Function  
  ----- ------------  ---------------      ----- ------------  ---------------
   344     13.573926  21 C  s               343      8.789537  21 C  s         
   173      7.434686  11 C  s               367     -7.304574  22 H  s         
   147      7.100178   9 C  px               56     -6.932023   5 C  s         
   300     -6.962060  18 H  s               319     -5.852051  19 C  pz        
   174      5.733130  11 C  s               376     -5.512870  23 H  s         

 Vector  151  Occ=0.000000D+00  E= 4.877123D-01
              MO Center= -2.3D-01,  2.5D-01,  8.8D-01, r^2= 1.9D+01
   Bfn.  Coefficient  Atom+Function         Bfn.  Coefficient  Atom+Function  
  ----- ------------  ---------------      ----- ------------  ---------------
   396     13.612133  25 C  s                12    -11.856074   2 C  s         
   344    -11.081855  21 C  s               385      8.180229  24 H  s         
   173      6.272678  11 C  s               343     -6.202347  21 C  s         
    56     -6.064548   5 C  s               215     -5.958946  14 H  s         
     2      5.752011   1 H  s               319      5.245035  19 C  pz        

 Vector  152  Occ=0.000000D+00  E= 4.932936D-01
              MO Center=  2.4D-01, -4.9D-01,  6.4D-01, r^2= 1.7D+01
   Bfn.  Coefficient  Atom+Function         Bfn.  Coefficient  Atom+Function  
  ----- ------------  ---------------      ----- ------------  ---------------
    56     11.296417   5 C  s               300     -7.965114  18 H  s         
   276     -7.849909  17 N  s                81     -6.591514   6 O  s         
   234     -6.375852  15 C  py              149      5.302026   9 C  pz        
   174     -5.110338  11 C  s               344      5.062871  21 C  s         
   367     -5.030010  22 H  s                45      4.993546   4 H  s         

 Vector  153  Occ=0.000000D+00  E= 5.003145D-01
              MO Center= -1.6D-01, -4.6D-01,  5.4D-01, r^2= 1.8D+01
   Bfn.  Coefficient  Atom+Function         Bfn.  Coefficient  Atom+Function  
  ----- ------------  ---------------      ----- ------------  ---------------
   343     13.612925  21 C  s               344     12.997774  21 C  s         
   396    -11.218443  25 C  s               376     -8.055345  23 H  s         
   385     -7.477457  24 H  s               319     -6.747249  19 C  pz        
   106     -6.709172   7 N  s               318     -6.282455  19 C  py        
   367     -5.615726  22 H  s                12     -5.332267   2 C  s         


 center of mass
 --------------
 x =  -0.01506064 y =   0.09065904 z =  -0.07312165

 moments of inertia (a.u.)
 ------------------
        3826.269446188891           0.000000000000          -0.000000000000
           0.000000000000        1940.191277386451          -0.000000000000
          -0.000000000000          -0.000000000000        4638.449471094209

  Mulliken analysis of the total density
  --------------------------------------

    Atom       Charge   Shell Charges
 -----------   ------   -------------------------------------------------------
    1 H    1     0.97   0.76  0.22  0.01  0.03 -0.05
    2 C    6     6.28   2.01  0.66  0.24  0.11  2.07  1.04 -0.00  0.06  0.10
    3 H    1     0.88   0.76  0.14  0.01  0.03 -0.07
    4 H    1     0.84   0.76  0.11  0.00  0.03 -0.06
    5 C    6     5.23   2.01  0.68  0.09 -0.01  1.90  0.39 -0.04  0.24 -0.02
    6 O    8     8.76   2.01  0.82  0.99  0.16  2.80  1.85  0.14  0.02 -0.01
    7 N    7     7.53   2.01  0.72  0.81 -0.14  2.45  1.44  0.16  0.05  0.04
    8 H    1     0.97   0.77  0.21 -0.03  0.05 -0.04
    9 C    6     6.41   2.01  0.66  0.10  0.05  1.99  1.34 -0.02  0.14  0.14
   10 H    1     1.07   0.78  0.22  0.02  0.03  0.03
   11 C    6     5.67   2.01  0.66  0.23  0.11  2.04  0.60 -0.04  0.07 -0.00
   12 H    1     0.95   0.76  0.23 -0.01  0.03 -0.07
   13 H    1     1.01   0.77  0.28  0.01  0.03 -0.08
   14 H    1     0.94   0.77  0.19  0.02  0.03 -0.08
   15 C    6     4.78   2.01  0.68  0.04 -0.01  1.89  0.08  0.11  0.24 -0.25
   16 O    8     8.83   2.01  0.82  1.04  0.19  2.78  1.84  0.14  0.01 -0.01
   17 N    7     7.49   2.01  0.72  0.78 -0.15  2.45  1.43  0.16  0.06  0.04
   18 H    1     0.94   0.77  0.24 -0.05  0.05 -0.08
   19 C    6     6.24   2.01  0.66  0.06  0.01  1.99  1.29 -0.03  0.14  0.11
   20 H    1     1.06   0.77  0.25  0.01  0.03  0.01
   21 C    6     5.79   2.01  0.66  0.34  0.14  2.04  0.54 -0.04  0.07  0.03
   22 H    1     0.94   0.77  0.20  0.02  0.03 -0.07
   23 H    1     0.97   0.76  0.25 -0.00  0.03 -0.07
   24 H    1     0.96   0.77  0.24  0.01  0.03 -0.09
   25 C    6     4.60   2.01  0.68  0.11 -0.06  1.89 -0.15  0.00  0.24 -0.10
   26 O    8     8.81   2.01  0.82  1.03  0.19  2.79  1.83  0.14  0.01 -0.01
   27 N    7     7.15   2.01  0.72  0.80 -0.20  2.46  1.23  0.11  0.04 -0.02
   28 H    1     0.89   0.73  0.25 -0.01  0.06 -0.13
   29 H    1     1.02   0.76  0.24 -0.00  0.05 -0.03

       Multipole analysis of the density wrt the origin
       ------------------------------------------------

     L   x y z        total         open         nuclear
     -   - - -        -----         ----         -------
     0   0 0 0     -0.000000      0.000000    108.000000

     1   1 0 0      0.732571      0.000000      0.000000
     1   0 1 0     -3.632490      0.000000     -0.000000
     1   0 0 1      1.680739      0.000000      0.000000

     2   2 0 0    -65.350301      0.000000    781.151841
     2   1 1 0      0.705189      0.000000      5.416814
     2   1 0 1     -1.572240      0.000000      3.323683
     2   0 2 0    -67.774298      0.000000   1796.751506
     2   0 1 1      0.755447      0.000000      8.526286
     2   0 0 2    -60.743442      0.000000    339.917112


 Task  times  cpu:     2719.7s     wall:     3172.6s


                                NWChem Input Module
                                -------------------


 Summary of allocated global arrays
-----------------------------------
  No active global arrays


MA_summarize_allocated_blocks: starting scan ...
MA_summarize_allocated_blocks: scan completed: 0 heap blocks, 0 stack blocks
MA usage statistics:

	allocation statistics:
					      heap	     stack
					      ----	     -----
	current number of blocks	         0	         0
	maximum number of blocks	        16	        14
	current total bytes		         0	         0
	maximum total bytes		    102144	  24147816
	maximum total K-bytes		       103	     24148
	maximum total M-bytes		         1	        25


                                     CITATION
                                     --------
                Please cite the following reference when publishing
                           results obtained with NWChem:

          E. Apra, E. J. Bylaska, W. A. de Jong, N. Govind, K. Kowalski,
       T. P. Straatsma, M. Valiev, H. J. J. van Dam, Y. Alexeev, J. Anchell,
       V. Anisimov, F. W. Aquino, R. Atta-Fynn, J. Autschbach, N. P. Bauman,
     J. C. Becca, D. E. Bernholdt, K. Bhaskaran-Nair, S. Bogatko, P. Borowski,
         J. Boschen, J. Brabec, A. Bruner, E. Cauet, Y. Chen, G. N. Chuev,
      C. J. Cramer, J. Daily, M. J. O. Deegan, T. H. Dunning Jr., M. Dupuis,
   K. G. Dyall, G. I. Fann, S. A. Fischer, A. Fonari, H. Fruchtl, L. Gagliardi,
      J. Garza, N. Gawande, S. Ghosh, K. Glaesemann, A. W. Gotz, J. Hammond,
       V. Helms, E. D. Hermes, K. Hirao, S. Hirata, M. Jacquelin, L. Jensen,
   B. G. Johnson, H. Jonsson, R. A. Kendall, M. Klemm, R. Kobayashi, V. Konkov,
      S. Krishnamoorthy, M. Krishnan, Z. Lin, R. D. Lins, R. J. Littlefield,
      A. J. Logsdail, K. Lopata, W. Ma, A. V. Marenich, J. Martin del Campo,
   D. Mejia-Rodriguez, J. E. Moore, J. M. Mullin, T. Nakajima, D. R. Nascimento,
    J. A. Nichols, P. J. Nichols, J. Nieplocha, A. Otero-de-la-Roza, B. Palmer,
    A. Panyala, T. Pirojsirikul, B. Peng, R. Peverati, J. Pittner, L. Pollack,
   R. M. Richard, P. Sadayappan, G. C. Schatz, W. A. Shelton, D. W. Silverstein,
   D. M. A. Smith, T. A. Soares, D. Song, M. Swart, H. L. Taylor, G. S. Thomas,
            V. Tipparaju, D. G. Truhlar, K. Tsemekhman, T. Van Voorhis,
      A. Vazquez-Mayagoitia, P. Verma, O. Villa, A. Vishnu, K. D. Vogiatzis,
        D. Wang, J. H. Weare, M. J. Williamson, T. L. Windus, K. Wolinski,
        A. T. Wong, Q. Wu, C. Yang, Q. Yu, M. Zacharias, Z. Zhang, Y. Zhao,
                                and R. J. Harrison
                        "NWChem: Past, present, and future
                         J. Chem. Phys. 152, 184102 (2020)
                               doi:10.1063/5.0004997

                                      AUTHORS
                                      -------
  E. Apra, E. J. Bylaska, N. Govind, K. Kowalski, M. Valiev, D. Mejia-Rodriguez,
       A. Kunitsa, N. P. Bauman, A. Panyala, W. A. de Jong, T. P. Straatsma,
   H. J. J. van Dam, D. Wang, T. L. Windus, J. Hammond, J. Autschbach, A. Woods,
    K. Bhaskaran-Nair, J. Brabec, K. Lopata, S. A. Fischer, S. Krishnamoorthy,
     M. Jacquelin, W. Ma, M. Klemm, O. Villa, Y. Chen, V. Anisimov, F. Aquino,
     S. Hirata, M. T. Hackler, E. Hermes, L. Jensen, J. E. Moore, J. C. Becca,
      V. Konjkov, T. Risthaus, M. Malagoli, A. Marenich, A. Otero-de-la-Roza,
        J. Mullin, P. Nichols, R. Peverati, J. Pittner, Y. Zhao, P.-D. Fan,
        A. Fonari, M. J. Williamson, R. J. Harrison, J. R. Rehr, M. Dupuis,
     D. Silverstein, D. M. A. Smith, J. Nieplocha, V. Tipparaju, M. Krishnan,
     B. E. Van Kuiken, A. Vazquez-Mayagoitia, M. Swart, Q. Wu, T. Van Voorhis,
     A. A. Auer, M. Nooijen, L. D. Crosby, E. Brown, G. Cisneros, G. I. Fann,
   H. Fruchtl, J. Garza, K. Hirao, R. A. Kendall, J. A. Nichols, K. Tsemekhman,
    K. Wolinski, J. Anchell, D. E. Bernholdt, P. Borowski, T. Clark, D. Clerc,
   H. Dachsel, M. J. O. Deegan, K. Dyall, D. Elwood, E. Glendening, M. Gutowski,
   A. C. Hess, J. Jaffe, B. G. Johnson, J. Ju, R. Kobayashi, R. Kutteh, Z. Lin,
   R. Littlefield, X. Long, B. Meng, T. Nakajima, S. Niu, L. Pollack, M. Rosing,
   K. Glaesemann, G. Sandrone, M. Stave, H. Taylor, G. Thomas, J. H. van Lenthe,
                               A. T. Wong, Z. Zhang.

 Total times  cpu:     2719.7s     wall:     3172.8s
