export TMOUT=5400
export TMPDIR=/tmp
export PTMPDIR=/tmp/ptmp
 argument  1 = ALA_CYS_4.nw
                                         
                                         


             Northwest Computational Chemistry Package (NWChem) 7.2.0
             --------------------------------------------------------


                    Environmental Molecular Sciences Laboratory
                       Pacific Northwest National Laboratory
                                Richland, WA 99352

                              Copyright (c) 1994-2022
                       Pacific Northwest National Laboratory
                            Battelle Memorial Institute

             NWChem is an open-source computational chemistry package
                        distributed under the terms of the
                      Educational Community License (ECL) 2.0
             A copy of the license is included with this distribution
                              in the LICENSE.TXT file

                                  ACKNOWLEDGMENT
                                  --------------

            This software and its documentation were developed at the
            EMSL at Pacific Northwest National Laboratory, a multiprogram
            national laboratory, operated for the U.S. Department of Energy
            by Battelle under Contract Number DE-AC05-76RL01830. Support
            for this work was provided by the Department of Energy Office
            of Biological and Environmental Research, Office of Basic
            Energy Sciences, and the Office of Advanced Scientific Computing.


           Job information
           ---------------

    hostname        = nova18-61
    program         = /opt/rit/el9/20230413/app/linux-rhel9-x86_64_v3/gcc-11.2.1/nwchem-7.2.0-oxtctbuhfuzyfaoziquq6bki22grib3g/bin/nwchem
    date            = Thu Jun 26 09:36:42 2025

    compiled        = Wed_May_17_23:46:39_2023
    source          = /tmp/root/spack-stage/spack-stage-nwchem-7.2.0-oxtctbuhfuzyfaoziquq6bki22grib3g/spack-src
    nwchem branch   = 7.2.0
    nwchem revision = d0d141fd
    ga revision     = 5.8.0
    use scalapack   = T
    input           = ALA_CYS_4.nw
    prefix          = ALA_CYS_4.
    data base       = ./ALA_CYS_4.db
    status          = startup
    nproc           =        8
    time left       =     -1s



           Memory information
           ------------------

    heap     =   26214394 doubles =    200.0 Mbytes
    stack    =   26214399 doubles =    200.0 Mbytes
    global   =   52428800 doubles =    400.0 Mbytes (distinct from heap & stack)
    total    =  104857593 doubles =    800.0 Mbytes
    verify   = yes
    hardfail = no 


           Directory information
           ---------------------

  0 permanent = .
  0 scratch   = .




                                NWChem Input Module
                                -------------------



 Scaling coordinates for geometry "geometry" by  1.889725989
 (inverse scale =  0.529177249)

 C1  symmetry detected

          ------
          auto-z
          ------
  no constraints, skipping    0.0000000000000000     
  no constraints, skipping    0.0000000000000000     


                             Geometry "geometry" -> ""
                             -------------------------

 Output coordinates in angstroms (scale by  1.889725989 to convert to a.u.)

  No.       Tag          Charge          X              Y              Z
 ---- ---------------- ---------- -------------- -------------- --------------
    1 H                    1.0000     2.51910721    -3.36080062    -1.08511481
    2 C                    6.0000     1.72959104    -3.44262598    -0.33822671
    3 H                    1.0000     2.12533902    -3.17182220     0.63826233
    4 H                    1.0000     1.35106542    -4.46290897    -0.31896562
    5 C                    6.0000     0.61021850    -2.49723144    -0.70317091
    6 O                    8.0000     0.71115383    -1.77151168    -1.68384613
    7 N                    7.0000    -0.45303378    -2.48726372     0.09837586
    8 H                    1.0000    -0.44370158    -3.10197274     0.89507639
    9 C                    6.0000    -1.63854339    -1.63896993    -0.08271694
   10 H                    1.0000    -1.89698651    -1.65194967    -1.14311153
   11 C                    6.0000    -2.80301070    -2.28093477     0.68611205
   12 H                    1.0000    -2.94761989    -3.31033871     0.35640049
   13 H                    1.0000    -2.59683699    -2.26709098     1.75742281
   14 H                    1.0000    -3.72076432    -1.72201231     0.49727615
   15 C                    6.0000    -1.40436645    -0.15114582     0.28982645
   16 O                    8.0000    -2.22962190     0.47498401     0.95117422
   17 N                    7.0000    -0.26066085     0.41341973    -0.10472550
   18 H                    1.0000     0.35314718    -0.15753543    -0.67519013
   19 C                    6.0000     0.25275575     1.72660179     0.30598034
   20 H                    1.0000     0.07283466     1.83250426     1.37724644
   21 C                    6.0000     1.77557367     1.74005204     0.08494715
   22 H                    1.0000     1.98424358     1.66725730    -0.98447970
   23 H                    1.0000     2.18167904     2.68553088     0.45155482
   24 S                   16.0000     2.57035315     0.35710166     0.96213859
   25 H                    1.0000     3.82528119     0.63030176     0.58712481
   26 C                    6.0000    -0.44697512     2.93145845    -0.36637608
   27 O                    8.0000     0.19306851     3.90873700    -0.73662570
   28 N                    7.0000    -1.75679441     2.88616727    -0.56849268
   29 H                    1.0000    -2.28388198     2.09956100    -0.21405471
   30 H                    1.0000    -2.20339650     3.67048625    -1.01364020

      Atomic Mass 
      ----------- 

      H                  1.007825
      C                 12.000000
      O                 15.994910
      N                 14.003070
      S                 31.972070


 Effective nuclear repulsion energy (a.u.)    1194.4368774446

            Nuclear Dipole moment (a.u.) 
            ----------------------------
        X                 Y               Z
 ---------------- ---------------- ----------------
     0.0000000000     0.0000000000    -0.0000000000



                                Z-matrix (autoz)
                                -------- 

 Units are Angstrom for bonds and degrees for angles

      Type          Name      I     J     K     L     M      Value
      ----------- --------  ----- ----- ----- ----- ----- ----------
    1 Stretch                  1     2                       1.08990
    2 Stretch                  2     3                       1.08788
    3 Stretch                  2     4                       1.08841
    4 Stretch                  2     5                       1.50995
    5 Stretch                  5     6                       1.22417
    6 Stretch                  5     7                       1.33157
    7 Stretch                  7     8                       1.00632
    8 Stretch                  7     9                       1.46896
    9 Stretch                  9    10                       1.09151
   10 Stretch                  9    11                       1.53597
   11 Stretch                  9    15                       1.55153
   12 Stretch                 11    12                       1.09055
   13 Stretch                 11    13                       1.09106
   14 Stretch                 11    14                       1.09102
   15 Stretch                 15    16                       1.22901
   16 Stretch                 15    17                       1.33509
   17 Stretch                 17    18                       1.01399
   18 Stretch                 17    19                       1.46858
   19 Stretch                 19    20                       1.09142
   20 Stretch                 19    21                       1.53883
   21 Stretch                 19    26                       1.54705
   22 Stretch                 21    22                       1.09202
   23 Stretch                 21    23                       1.09236
   24 Stretch                 21    24                       1.82035
   25 Stretch                 24    25                       1.33795
   26 Stretch                 26    27                       1.22549
   27 Stretch                 26    28                       1.32610
   28 Stretch                 28    29                       1.01104
   29 Stretch                 28    30                       1.00636
   30 Bend                     1     2     3               109.44533
   31 Bend                     1     2     4               109.53815
   32 Bend                     1     2     5               108.92818
   33 Bend                     2     5     6               120.24313
   34 Bend                     2     5     7               116.81730
   35 Bend                     3     2     4               110.11941
   36 Bend                     3     2     5               109.31550
   37 Bend                     4     2     5               109.47397
   38 Bend                     5     7     8               117.68353
   39 Bend                     5     7     9               125.06692
   40 Bend                     6     5     7               122.93074
   41 Bend                     7     9    10               107.69718
   42 Bend                     7     9    11               107.98551
   43 Bend                     7     9    15               113.72573
   44 Bend                     8     7     9               117.24759
   45 Bend                     9    11    12               110.10349
   46 Bend                     9    11    13               110.05521
   47 Bend                     9    11    14               109.69302
   48 Bend                     9    15    16               121.09108
   49 Bend                     9    15    17               117.63523
   50 Bend                    10     9    11               107.56592
   51 Bend                    10     9    15               106.28459
   52 Bend                    11     9    15               113.26791
   53 Bend                    12    11    13               109.50557
   54 Bend                    12    11    14               108.64468
   55 Bend                    13    11    14               108.80849
   56 Bend                    15    17    18               116.53320
   57 Bend                    15    17    19               126.50979
   58 Bend                    16    15    17               121.25285
   59 Bend                    17    19    20               107.67579
   60 Bend                    17    19    21               108.27682
   61 Bend                    17    19    26               114.62847
   62 Bend                    18    17    19               116.69263
   63 Bend                    19    21    22               109.21892
   64 Bend                    19    21    23               109.10245
   65 Bend                    19    21    24               110.86742
   66 Bend                    19    26    27               121.07434
   67 Bend                    19    26    28               119.10355
   68 Bend                    20    19    21               107.65417
   69 Bend                    20    19    26               106.04837
   70 Bend                    21    19    26               112.23212
   71 Bend                    21    24    25                96.85287
   72 Bend                    22    21    23               108.38032
   73 Bend                    22    21    24               109.74508
   74 Bend                    23    21    24               109.48261
   75 Bend                    26    28    29               119.21414
   76 Bend                    26    28    30               118.62870
   77 Bend                    27    26    28               119.80538
   78 Bend                    29    28    30               122.01008
   79 Torsion                  1     2     5     6          -2.16839
   80 Torsion                  1     2     5     7         178.88133
   81 Torsion                  2     5     7     8           0.32231
   82 Torsion                  2     5     7     9         179.79822
   83 Torsion                  3     2     5     6         117.37779
   84 Torsion                  3     2     5     7         -61.57250
   85 Torsion                  4     2     5     6        -121.92170
   86 Torsion                  4     2     5     7          59.12802
   87 Torsion                  5     7     9    10          42.97862
   88 Torsion                  5     7     9    11         158.86950
   89 Torsion                  5     7     9    15         -74.52155
   90 Torsion                  6     5     7     8        -178.59725
   91 Torsion                  6     5     7     9           0.87867
   92 Torsion                  7     9    11    12         -55.41888
   93 Torsion                  7     9    11    13          65.38711
   94 Torsion                  7     9    11    14        -174.92995
   95 Torsion                  7     9    15    16        -135.79598
   96 Torsion                  7     9    15    17          42.56370
   97 Torsion                  8     7     9    10        -137.54340
   98 Torsion                  8     7     9    11         -21.65252
   99 Torsion                  8     7     9    15         104.95643
  100 Torsion                  9    15    17    18           3.78353
  101 Torsion                  9    15    17    19        -170.08201
  102 Torsion                 10     9    11    12          60.55778
  103 Torsion                 10     9    11    13        -178.63623
  104 Torsion                 10     9    11    14         -58.95328
  105 Torsion                 10     9    15    16         105.88888
  106 Torsion                 10     9    15    17         -75.75143
  107 Torsion                 11     9    15    16         -12.00723
  108 Torsion                 11     9    15    17         166.35246
  109 Torsion                 12    11     9    15         177.70556
  110 Torsion                 13    11     9    15         -61.48846
  111 Torsion                 14    11     9    15          58.19449
  112 Torsion                 15    17    19    20          41.79887
  113 Torsion                 15    17    19    21         157.93191
  114 Torsion                 15    17    19    26         -75.92919
  115 Torsion                 16    15    17    18        -177.85959
  116 Torsion                 16    15    17    19           8.27487
  117 Torsion                 17    19    21    22          65.63446
  118 Torsion                 17    19    21    23        -176.06306
  119 Torsion                 17    19    21    24         -55.41538
  120 Torsion                 17    19    26    27        -139.96004
  121 Torsion                 17    19    26    28          38.54900
  122 Torsion                 18    17    19    20        -132.05807
  123 Torsion                 18    17    19    21         -15.92503
  124 Torsion                 18    17    19    26         110.21387
  125 Torsion                 19    21    24    25         179.80147
  126 Torsion                 19    26    28    29           4.84165
  127 Torsion                 19    26    28    30        -179.47678
  128 Torsion                 20    19    21    22        -178.21847
  129 Torsion                 20    19    21    23         -59.91598
  130 Torsion                 20    19    21    24          60.73169
  131 Torsion                 20    19    26    27         101.39146
  132 Torsion                 20    19    26    28         -80.09950
  133 Torsion                 21    19    26    27         -15.89843
  134 Torsion                 21    19    26    28         162.61061
  135 Torsion                 22    21    19    26         -61.89114
  136 Torsion                 22    21    24    25          59.06271
  137 Torsion                 23    21    19    26          56.41135
  138 Torsion                 23    21    24    25         -59.77646
  139 Torsion                 24    21    19    26         177.05902
  140 Torsion                 27    26    28    29        -176.63003
  141 Torsion                 27    26    28    30          -0.94846


            XYZ format geometry
            -------------------
    30
 geometry
 H                     2.51910721    -3.36080062    -1.08511481
 C                     1.72959104    -3.44262598    -0.33822671
 H                     2.12533902    -3.17182220     0.63826233
 H                     1.35106542    -4.46290897    -0.31896562
 C                     0.61021850    -2.49723144    -0.70317091
 O                     0.71115383    -1.77151168    -1.68384613
 N                    -0.45303378    -2.48726372     0.09837586
 H                    -0.44370158    -3.10197274     0.89507639
 C                    -1.63854339    -1.63896993    -0.08271694
 H                    -1.89698651    -1.65194967    -1.14311153
 C                    -2.80301070    -2.28093477     0.68611205
 H                    -2.94761989    -3.31033871     0.35640049
 H                    -2.59683699    -2.26709098     1.75742281
 H                    -3.72076432    -1.72201231     0.49727615
 C                    -1.40436645    -0.15114582     0.28982645
 O                    -2.22962190     0.47498401     0.95117422
 N                    -0.26066085     0.41341973    -0.10472550
 H                     0.35314718    -0.15753543    -0.67519013
 C                     0.25275575     1.72660179     0.30598034
 H                     0.07283466     1.83250426     1.37724644
 C                     1.77557367     1.74005204     0.08494715
 H                     1.98424358     1.66725730    -0.98447970
 H                     2.18167904     2.68553088     0.45155482
 S                     2.57035315     0.35710166     0.96213859
 H                     3.82528119     0.63030176     0.58712481
 C                    -0.44697512     2.93145845    -0.36637608
 O                     0.19306851     3.90873700    -0.73662570
 N                    -1.75679441     2.88616727    -0.56849268
 H                    -2.28388198     2.09956100    -0.21405471
 H                    -2.20339650     3.67048625    -1.01364020

 ==============================================================================
                                internuclear distances
 ------------------------------------------------------------------------------
       center one      |      center two      | atomic units |  angstroms
 ------------------------------------------------------------------------------
    2 C                |   1 H                |     2.05960  |     1.08990
    3 H                |   2 C                |     2.05579  |     1.08788
    4 H                |   2 C                |     2.05679  |     1.08841
    5 C                |   2 C                |     2.85339  |     1.50995
    6 O                |   5 C                |     2.31334  |     1.22417
    7 N                |   5 C                |     2.51630  |     1.33157
    8 H                |   7 N                |     1.90167  |     1.00632
    9 C                |   7 N                |     2.77592  |     1.46896
   10 H                |   9 C                |     2.06266  |     1.09151
   11 C                |   9 C                |     2.90256  |     1.53597
   12 H                |  11 C                |     2.06084  |     1.09055
   13 H                |  11 C                |     2.06180  |     1.09106
   14 H                |  11 C                |     2.06173  |     1.09102
   15 C                |   9 C                |     2.93197  |     1.55153
   16 O                |  15 C                |     2.32249  |     1.22901
   17 N                |  15 C                |     2.52296  |     1.33509
   18 H                |  17 N                |     1.91617  |     1.01399
   19 C                |  17 N                |     2.77521  |     1.46858
   20 H                |  19 C                |     2.06249  |     1.09142
   21 C                |  19 C                |     2.90798  |     1.53883
   22 H                |  21 C                |     2.06363  |     1.09202
   23 H                |  21 C                |     2.06426  |     1.09236
   24 S                |  21 C                |     3.43997  |     1.82035
   25 H                |  24 S                |     2.52836  |     1.33795
   26 C                |  19 C                |     2.92350  |     1.54705
   27 O                |  26 C                |     2.31583  |     1.22549
   28 N                |  26 C                |     2.50596  |     1.32610
   29 H                |  28 N                |     1.91058  |     1.01104
   30 H                |  28 N                |     1.90175  |     1.00636
 ------------------------------------------------------------------------------
                         number of included internuclear distances:         29
 ==============================================================================



 ==============================================================================
                                 internuclear angles
 ------------------------------------------------------------------------------
        center 1       |       center 2       |       center 3       |  degrees
 ------------------------------------------------------------------------------
    1 H                |   2 C                |   3 H                |   109.45
    1 H                |   2 C                |   4 H                |   109.54
    1 H                |   2 C                |   5 C                |   108.93
    3 H                |   2 C                |   4 H                |   110.12
    3 H                |   2 C                |   5 C                |   109.32
    4 H                |   2 C                |   5 C                |   109.47
    2 C                |   5 C                |   6 O                |   120.24
    2 C                |   5 C                |   7 N                |   116.82
    6 O                |   5 C                |   7 N                |   122.93
    5 C                |   7 N                |   8 H                |   117.68
    5 C                |   7 N                |   9 C                |   125.07
    8 H                |   7 N                |   9 C                |   117.25
    7 N                |   9 C                |  10 H                |   107.70
    7 N                |   9 C                |  11 C                |   107.99
    7 N                |   9 C                |  15 C                |   113.73
   10 H                |   9 C                |  11 C                |   107.57
   10 H                |   9 C                |  15 C                |   106.28
   11 C                |   9 C                |  15 C                |   113.27
    9 C                |  11 C                |  12 H                |   110.10
    9 C                |  11 C                |  13 H                |   110.06
    9 C                |  11 C                |  14 H                |   109.69
   12 H                |  11 C                |  13 H                |   109.51
   12 H                |  11 C                |  14 H                |   108.64
   13 H                |  11 C                |  14 H                |   108.81
    9 C                |  15 C                |  16 O                |   121.09
    9 C                |  15 C                |  17 N                |   117.64
   16 O                |  15 C                |  17 N                |   121.25
   15 C                |  17 N                |  18 H                |   116.53
   15 C                |  17 N                |  19 C                |   126.51
   18 H                |  17 N                |  19 C                |   116.69
   17 N                |  19 C                |  20 H                |   107.68
   17 N                |  19 C                |  21 C                |   108.28
   17 N                |  19 C                |  26 C                |   114.63
   20 H                |  19 C                |  21 C                |   107.65
   20 H                |  19 C                |  26 C                |   106.05
   21 C                |  19 C                |  26 C                |   112.23
   19 C                |  21 C                |  22 H                |   109.22
   19 C                |  21 C                |  23 H                |   109.10
   19 C                |  21 C                |  24 S                |   110.87
   22 H                |  21 C                |  23 H                |   108.38
   22 H                |  21 C                |  24 S                |   109.75
   23 H                |  21 C                |  24 S                |   109.48
   21 C                |  24 S                |  25 H                |    96.85
   19 C                |  26 C                |  27 O                |   121.07
   19 C                |  26 C                |  28 N                |   119.10
   27 O                |  26 C                |  28 N                |   119.81
   26 C                |  28 N                |  29 H                |   119.21
   26 C                |  28 N                |  30 H                |   118.63
   29 H                |  28 N                |  30 H                |   122.01
 ------------------------------------------------------------------------------
                            number of included internuclear angles:         49
 ==============================================================================



  library name resolved from: environment
  library file name is: </opt/rit/el9/20230413/app/linux-rhel9-x86_64_v3/gcc-11.2.1/nwchem-7.2.0-oxtctbuhfuzyfaoziquq6bki22grib3g/share/nwchem/libraries/>
  


 Summary of "ao basis" -> "" (cartesian)
 ------------------------------------------------------------------------------
       Tag                 Description            Shells   Functions and Types
 ---------------- ------------------------------  ------  ---------------------
 *                        aug-cc-pvdz                 on all atoms 


                      Basis "ao basis" -> "ao basis" (cartesian)
                      -----
  H (Hydrogen)
  ------------
            Exponent  Coefficients 
       -------------- ---------------------------------------------------------
  1 S  1.30100000E+01  0.019685
  1 S  1.96200000E+00  0.137977
  1 S  4.44600000E-01  0.478148

  2 S  1.22000000E-01  1.000000

  3 S  2.97400000E-02  1.000000

  4 P  7.27000000E-01  1.000000

  5 P  1.41000000E-01  1.000000

  C (Carbon)
  ----------
            Exponent  Coefficients 
       -------------- ---------------------------------------------------------
  1 S  6.66500000E+03  0.000692
  1 S  1.00000000E+03  0.005329
  1 S  2.28000000E+02  0.027077
  1 S  6.47100000E+01  0.101718
  1 S  2.10600000E+01  0.274740
  1 S  7.49500000E+00  0.448564
  1 S  2.79700000E+00  0.285074
  1 S  5.21500000E-01  0.015204

  2 S  6.66500000E+03 -0.000146
  2 S  1.00000000E+03 -0.001154
  2 S  2.28000000E+02 -0.005725
  2 S  6.47100000E+01 -0.023312
  2 S  2.10600000E+01 -0.063955
  2 S  7.49500000E+00 -0.149981
  2 S  2.79700000E+00 -0.127262
  2 S  5.21500000E-01  0.544529

  3 S  1.59600000E-01  1.000000

  4 S  4.69000000E-02  1.000000

  5 P  9.43900000E+00  0.038109
  5 P  2.00200000E+00  0.209480
  5 P  5.45600000E-01  0.508557

  6 P  1.51700000E-01  1.000000

  7 P  4.04100000E-02  1.000000

  8 D  5.50000000E-01  1.000000

  9 D  1.51000000E-01  1.000000

  O (Oxygen)
  ----------
            Exponent  Coefficients 
       -------------- ---------------------------------------------------------
  1 S  1.17200000E+04  0.000710
  1 S  1.75900000E+03  0.005470
  1 S  4.00800000E+02  0.027837
  1 S  1.13700000E+02  0.104800
  1 S  3.70300000E+01  0.283062
  1 S  1.32700000E+01  0.448719
  1 S  5.02500000E+00  0.270952
  1 S  1.01300000E+00  0.015458

  2 S  1.17200000E+04 -0.000160
  2 S  1.75900000E+03 -0.001263
  2 S  4.00800000E+02 -0.006267
  2 S  1.13700000E+02 -0.025716
  2 S  3.70300000E+01 -0.070924
  2 S  1.32700000E+01 -0.165411
  2 S  5.02500000E+00 -0.116955
  2 S  1.01300000E+00  0.557368

  3 S  3.02300000E-01  1.000000

  4 S  7.89600000E-02  1.000000

  5 P  1.77000000E+01  0.043018
  5 P  3.85400000E+00  0.228913
  5 P  1.04600000E+00  0.508728

  6 P  2.75300000E-01  1.000000

  7 P  6.85600000E-02  1.000000

  8 D  1.18500000E+00  1.000000

  9 D  3.32000000E-01  1.000000

  N (Nitrogen)
  ------------
            Exponent  Coefficients 
       -------------- ---------------------------------------------------------
  1 S  9.04600000E+03  0.000700
  1 S  1.35700000E+03  0.005389
  1 S  3.09300000E+02  0.027406
  1 S  8.77300000E+01  0.103207
  1 S  2.85600000E+01  0.278723
  1 S  1.02100000E+01  0.448540
  1 S  3.83800000E+00  0.278238
  1 S  7.46600000E-01  0.015440

  2 S  9.04600000E+03 -0.000153
  2 S  1.35700000E+03 -0.001208
  2 S  3.09300000E+02 -0.005992
  2 S  8.77300000E+01 -0.024544
  2 S  2.85600000E+01 -0.067459
  2 S  1.02100000E+01 -0.158078
  2 S  3.83800000E+00 -0.121831
  2 S  7.46600000E-01  0.549003

  3 S  2.24800000E-01  1.000000

  4 S  6.12400000E-02  1.000000

  5 P  1.35500000E+01  0.039919
  5 P  2.91700000E+00  0.217169
  5 P  7.97300000E-01  0.510319

  6 P  2.18500000E-01  1.000000

  7 P  5.61100000E-02  1.000000

  8 D  8.17000000E-01  1.000000

  9 D  2.30000000E-01  1.000000

  S (Sulphur)
  -----------
            Exponent  Coefficients 
       -------------- ---------------------------------------------------------
  1 S  1.10800000E+05  0.000248
  1 S  1.66100000E+04  0.001920
  1 S  3.78100000E+03  0.009962
  1 S  1.07100000E+03  0.040298
  1 S  3.49800000E+02  0.128604
  1 S  1.26300000E+02  0.303480
  1 S  4.92600000E+01  0.421432
  1 S  2.01600000E+01  0.230781
  1 S  5.72000000E+00  0.017897
  1 S  2.18200000E+00 -0.002975
  1 S  4.32700000E-01  0.000850

  2 S  1.10800000E+05 -0.000069
  2 S  1.66100000E+04 -0.000528
  2 S  3.78100000E+03 -0.002797
  2 S  1.07100000E+03 -0.011265
  2 S  3.49800000E+02 -0.038883
  2 S  1.26300000E+02 -0.099503
  2 S  4.92600000E+01 -0.199740
  2 S  2.01600000E+01 -0.123360
  2 S  5.72000000E+00  0.513194
  2 S  2.18200000E+00  0.607120
  2 S  4.32700000E-01  0.039675

  3 S  1.10800000E+05  0.000020
  3 S  1.66100000E+04  0.000153
  3 S  3.78100000E+03  0.000810
  3 S  1.07100000E+03  0.003290
  3 S  3.49800000E+02  0.011297
  3 S  1.26300000E+02  0.029639
  3 S  4.92600000E+01  0.059985
  3 S  2.01600000E+01  0.041325
  3 S  5.72000000E+00 -0.207474
  3 S  2.18200000E+00 -0.392889
  3 S  4.32700000E-01  0.632840

  4 S  1.57000000E-01  1.000000

  5 S  5.07000000E-02  1.000000

  6 P  3.99700000E+02  0.004475
  6 P  9.41900000E+01  0.034171
  6 P  2.97500000E+01  0.144250
  6 P  1.07700000E+01  0.353928
  6 P  4.11900000E+00  0.459085
  6 P  1.62500000E+00  0.206383
  6 P  4.72600000E-01  0.010214

  7 P  3.99700000E+02 -0.001163
  7 P  9.41900000E+01 -0.008657
  7 P  2.97500000E+01 -0.039089
  7 P  1.07700000E+01 -0.093463
  7 P  4.11900000E+00 -0.147994
  7 P  1.62500000E+00  0.030190
  7 P  4.72600000E-01  0.561573

  8 P  1.40700000E-01  1.000000

  9 P  3.99000000E-02  1.000000

 10 D  4.79000000E-01  1.000000

 11 D  1.52000000E-01  1.000000



 Summary of "ao basis" -> "ao basis" (cartesian)
 ------------------------------------------------------------------------------
       Tag                 Description            Shells   Functions and Types
 ---------------- ------------------------------  ------  ---------------------
 H                        aug-cc-pvdz                5        9   3s2p
 C                        aug-cc-pvdz                9       25   4s3p2d
 O                        aug-cc-pvdz                9       25   4s3p2d
 N                        aug-cc-pvdz                9       25   4s3p2d
 S                        aug-cc-pvdz               11       29   5s4p2d


                                 NWChem SCF Module
                                 -----------------



  ao basis        = "ao basis"
  functions       =   514
  atoms           =    30
  closed shells   =    62
  open shells     =     0
  charge          =   0.00
  wavefunction    = RHF 
  input vectors   = atomic
  output vectors  = ./ALA_CYS_4.movecs
  use symmetry    = F
  symmetry adapt  = F


 Summary of "ao basis" -> "ao basis" (cartesian)
 ------------------------------------------------------------------------------
       Tag                 Description            Shells   Functions and Types
 ---------------- ------------------------------  ------  ---------------------
 H                        aug-cc-pvdz                5        9   3s2p
 C                        aug-cc-pvdz                9       25   4s3p2d
 O                        aug-cc-pvdz                9       25   4s3p2d
 N                        aug-cc-pvdz                9       25   4s3p2d
 S                        aug-cc-pvdz               11       29   5s4p2d



 Forming initial guess at       0.8s


 !! The overlap matrix has   3 vectors deemed linearly dependent with
    eigenvalues:
 3.01D-06 5.29D-06 9.60D-06


      Superposition of Atomic Density Guess
      -------------------------------------

 Sum of atomic energies:       -1093.51360735

      Non-variational initial energy
      ------------------------------

 Total energy =   -1102.827431
 1-e energy   =   -3869.967723
 2-e energy   =    1572.703414
 HOMO         =      -0.287116
 LUMO         =       0.006686


 Starting SCF solution at     170.5s



 ----------------------------------------------
         Quadratically convergent ROHF

 Convergence threshold     :          1.000E-04
 Maximum no. of iterations :           30
 Final Fock-matrix accuracy:          1.000E-10
 ----------------------------------------------


              iter       energy          gnorm     gmax       time
             ----- ------------------- --------- --------- --------
                 1    -1096.9587813666  2.35D+00  1.68D-01    315.9
                 2    -1097.2547733731  7.86D-01  4.29D-02    639.0
                 3    -1097.3098456866  6.40D-02  6.52D-03   1091.5
                 4    -1097.3104857323  4.03D-03  3.78D-04   1689.0
                 5    -1097.3104890197  8.79D-06  6.00D-07   2790.3


       Final RHF  results 
       ------------------ 

         Total SCF energy =  -1097.310489019729
      One-electron energy =  -3880.189740583877
      Two-electron energy =   1588.442374119503
 Nuclear repulsion energy =   1194.436877444645

        Time for solution =   2626.2s


             Final eigenvalues
             -----------------

              1      
    1  -91.9649
    2  -20.5448
    3  -20.5443
    4  -20.5191
    5  -15.6203
    6  -15.6019
    7  -15.5797
    8  -11.3744
    9  -11.3739
   10  -11.3549
   11  -11.3149
   12  -11.3093
   13  -11.2807
   14  -11.2544
   15  -11.2516
   16   -8.9664
   17   -6.6488
   18   -6.6475
   19   -6.6453
   20   -1.4127
   21   -1.4034
   22   -1.3806
   23   -1.2694
   24   -1.2524
   25   -1.2082
   26   -1.0888
   27   -1.0667
   28   -1.0058
   29   -0.9831
   30   -0.9045
   31   -0.8567
   32   -0.8304
   33   -0.8093
   34   -0.7849
   35   -0.7426
   36   -0.7309
   37   -0.7040
   38   -0.6896
   39   -0.6747
   40   -0.6700
   41   -0.6303
   42   -0.6203
   43   -0.6075
   44   -0.6001
   45   -0.5897
   46   -0.5830
   47   -0.5806
   48   -0.5668
   49   -0.5544
   50   -0.5510
   51   -0.5423
   52   -0.5375
   53   -0.5251
   54   -0.5187
   55   -0.4656
   56   -0.4607
   57   -0.4440
   58   -0.4380
   59   -0.4109
   60   -0.4015
   61   -0.3936
   62   -0.3646
   63    0.0232
   64    0.0363
   65    0.0399
   66    0.0425
   67    0.0490
   68    0.0557
   69    0.0600
   70    0.0627
   71    0.0633
   72    0.0710

                       ROHF Final Molecular Orbital Analysis
                       -------------------------------------

 Vector   20  Occ=2.000000D+00  E=-1.412748D+00
              MO Center= -1.5D-01, -1.3D+00, -6.3D-01, r^2= 3.9D+00
   Bfn.  Coefficient  Atom+Function         Bfn.  Coefficient  Atom+Function  
  ----- ------------  ---------------      ----- ------------  ---------------
    80      0.290171   6 O  s                79      0.286394   6 O  s         
    54      0.203840   5 C  s               250      0.192711  16 O  s         
   249      0.183084  16 O  s                12      0.152766   2 C  s         

 Vector   21  Occ=2.000000D+00  E=-1.403412D+00
              MO Center= -1.0D+00, -3.4D-01,  5.6D-02, r^2= 4.3D+00
   Bfn.  Coefficient  Atom+Function         Bfn.  Coefficient  Atom+Function  
  ----- ------------  ---------------      ----- ------------  ---------------
   250      0.313202  16 O  s               249      0.296180  16 O  s         
    79     -0.200470   6 O  s                80     -0.201346   6 O  s         
   224      0.196253  15 C  s         

 Vector   22  Occ=2.000000D+00  E=-1.380632D+00
              MO Center= -2.2D-01,  3.4D+00, -5.7D-01, r^2= 1.3D+00
   Bfn.  Coefficient  Atom+Function         Bfn.  Coefficient  Atom+Function  
  ----- ------------  ---------------      ----- ------------  ---------------
   449      0.371269  27 O  s               448      0.349472  27 O  s         
   423      0.242909  26 C  s         

 Vector   23  Occ=2.000000D+00  E=-1.269360D+00
              MO Center= -3.9D-01, -2.0D+00, -1.6D-01, r^2= 2.5D+00
   Bfn.  Coefficient  Atom+Function         Bfn.  Coefficient  Atom+Function  
  ----- ------------  ---------------      ----- ------------  ---------------
   105      0.373772   7 N  s               104      0.321622   7 N  s         
    80     -0.214304   6 O  s                79     -0.178663   6 O  s         

 Vector   24  Occ=2.000000D+00  E=-1.252438D+00
              MO Center= -4.2D-01,  2.9D-01,  3.8D-02, r^2= 2.8D+00
   Bfn.  Coefficient  Atom+Function         Bfn.  Coefficient  Atom+Function  
  ----- ------------  ---------------      ----- ------------  ---------------
   275      0.354885  17 N  s               274      0.321559  17 N  s         
   250     -0.190236  16 O  s               105     -0.178214   7 N  s         
   227      0.154594  15 C  px        

 Vector   25  Occ=2.000000D+00  E=-1.208201D+00
              MO Center= -1.3D+00,  2.9D+00, -5.2D-01, r^2= 1.6D+00
   Bfn.  Coefficient  Atom+Function         Bfn.  Coefficient  Atom+Function  
  ----- ------------  ---------------      ----- ------------  ---------------
   474      0.388506  28 N  s               473      0.368631  28 N  s         
   449     -0.211020  27 O  s               426     -0.196674  26 C  px        
   448     -0.173700  27 O  s               497      0.164325  29 H  s         
   506      0.157561  30 H  s         

 Vector   26  Occ=2.000000D+00  E=-1.088784D+00
              MO Center=  4.4D-01,  2.8D-01,  1.8D-01, r^2= 6.4D+00
   Bfn.  Coefficient  Atom+Function         Bfn.  Coefficient  Atom+Function  
  ----- ------------  ---------------      ----- ------------  ---------------
   342      0.214517  21 C  s               314      0.179104  19 C  px        
   308      0.175160  19 C  s               386      0.165181  24 S  s         
   309      0.158918  19 C  s         

 Vector   27  Occ=2.000000D+00  E=-1.066748D+00
              MO Center= -2.8D-01, -1.1D+00,  1.5D-01, r^2= 7.8D+00
   Bfn.  Coefficient  Atom+Function         Bfn.  Coefficient  Atom+Function  
  ----- ------------  ---------------      ----- ------------  ---------------
   138      0.200823   9 C  s               172      0.186572  11 C  s         
   144     -0.165535   9 C  px              225      0.162861  15 C  s         
   342      0.157246  21 C  s         

 Vector   28  Occ=2.000000D+00  E=-1.005810D+00
              MO Center=  6.3D-01, -3.0D+00, -1.8D-01, r^2= 4.7D+00
   Bfn.  Coefficient  Atom+Function         Bfn.  Coefficient  Atom+Function  
  ----- ------------  ---------------      ----- ------------  ---------------
    11      0.319889   2 C  s                55      0.185189   5 C  s         
   144     -0.161363   9 C  px              172      0.158071  11 C  s         

 Vector   29  Occ=2.000000D+00  E=-9.831222D-01
              MO Center=  9.4D-01,  9.1D-01,  4.3D-01, r^2= 5.8D+00
   Bfn.  Coefficient  Atom+Function         Bfn.  Coefficient  Atom+Function  
  ----- ------------  ---------------      ----- ------------  ---------------
   386      0.300027  24 S  s               308     -0.227564  19 C  s         
   348      0.179102  21 C  px              139      0.177424   9 C  s         
   387      0.174407  24 S  s         

 Vector   30  Occ=2.000000D+00  E=-9.044586D-01
              MO Center= -1.4D+00, -1.3D+00,  3.1D-01, r^2= 6.3D+00
   Bfn.  Coefficient  Atom+Function         Bfn.  Coefficient  Atom+Function  
  ----- ------------  ---------------      ----- ------------  ---------------
   139      0.313493   9 C  s               145      0.244218   9 C  py        
   172     -0.240460  11 C  s               173     -0.205646  11 C  s         
   309      0.187214  19 C  s               138      0.182864   9 C  s         
   225     -0.178720  15 C  s               174     -0.167225  11 C  s         

 Vector   31  Occ=2.000000D+00  E=-8.566899D-01
              MO Center=  1.1D+00,  1.6D+00,  1.3D-01, r^2= 5.6D+00
   Bfn.  Coefficient  Atom+Function         Bfn.  Coefficient  Atom+Function  
  ----- ------------  ---------------      ----- ------------  ---------------
   387      0.273403  24 S  s               386      0.241930  24 S  s         
   342     -0.224457  21 C  s               309      0.221268  19 C  s         
   343     -0.184306  21 C  s               314     -0.180541  19 C  px        
   425     -0.160076  26 C  s               311     -0.155298  19 C  px        
   366     -0.151690  22 H  s               423      0.151023  26 C  s         

 Vector   32  Occ=2.000000D+00  E=-8.303623D-01
              MO Center= -3.2D-01, -1.8D+00, -7.7D-02, r^2= 5.3D+00
   Bfn.  Coefficient  Atom+Function         Bfn.  Coefficient  Atom+Function  
  ----- ------------  ---------------      ----- ------------  ---------------
   107      0.238140   7 N  px              139      0.225115   9 C  s         
   109     -0.214056   7 N  pz               54      0.201948   5 C  s         
   128     -0.195241   8 H  s                80     -0.156826   6 O  s         
   309      0.156006  19 C  s         

 Vector   33  Occ=2.000000D+00  E=-8.093254D-01
              MO Center= -4.4D-01, -4.8D-01,  1.5D-02, r^2= 5.4D+00
   Bfn.  Coefficient  Atom+Function         Bfn.  Coefficient  Atom+Function  
  ----- ------------  ---------------      ----- ------------  ---------------
   277      0.249850  17 N  px              309     -0.217322  19 C  s         
   128     -0.206963   8 H  s               109     -0.192784   7 N  pz        
   145     -0.177948   9 C  py              224     -0.159763  15 C  s         
    55      0.158790   5 C  s               105     -0.159080   7 N  s         
   231     -0.158736  15 C  py              298      0.158605  18 H  s         

 Vector   34  Occ=2.000000D+00  E=-7.849067D-01
              MO Center= -6.7D-01,  1.9D+00, -2.4D-01, r^2= 4.3D+00
   Bfn.  Coefficient  Atom+Function         Bfn.  Coefficient  Atom+Function  
  ----- ------------  ---------------      ----- ------------  ---------------
   476      0.285830  28 N  px              225     -0.228032  15 C  s         
   298      0.195420  18 H  s               423      0.191418  26 C  s         
   315      0.183217  19 C  py              343      0.183151  21 C  s         
   429     -0.169963  26 C  px              449     -0.165253  27 O  s         
   497     -0.161438  29 H  s               275      0.156269  17 N  s         

 Vector   35  Occ=2.000000D+00  E=-7.426044D-01
              MO Center= -1.1D+00,  8.7D-01, -3.7D-02, r^2= 6.9D+00
   Bfn.  Coefficient  Atom+Function         Bfn.  Coefficient  Atom+Function  
  ----- ------------  ---------------      ----- ------------  ---------------
   477      0.235919  28 N  py              145      0.219770   9 C  py        
   497     -0.202750  29 H  s               506      0.179160  30 H  s         
   253     -0.173060  16 O  py        

 Vector   36  Occ=2.000000D+00  E=-7.309168D-01
              MO Center= -9.1D-01,  5.5D-01, -1.7D-01, r^2= 7.1D+00
   Bfn.  Coefficient  Atom+Function         Bfn.  Coefficient  Atom+Function  
  ----- ------------  ---------------      ----- ------------  ---------------
   225     -0.377557  15 C  s               145      0.354898   9 C  py        
   139      0.281665   9 C  s               497      0.211422  29 H  s         
   477     -0.186942  28 N  py              315      0.173812  19 C  py        
   231      0.168838  15 C  py              142      0.166958   9 C  py        
   228     -0.163571  15 C  py              476     -0.161809  28 N  px        

 Vector   37  Occ=2.000000D+00  E=-7.040267D-01
              MO Center=  3.1D-02, -1.1D+00, -2.2D-01, r^2= 7.7D+00
   Bfn.  Coefficient  Atom+Function         Bfn.  Coefficient  Atom+Function  
  ----- ------------  ---------------      ----- ------------  ---------------
   278     -0.164156  17 N  py               83      0.162087   6 O  py        
   108      0.152593   7 N  py        

 Vector   38  Occ=2.000000D+00  E=-6.895746D-01
              MO Center= -2.3D-01, -1.8D+00, -6.7D-01, r^2= 4.8D+00
   Bfn.  Coefficient  Atom+Function         Bfn.  Coefficient  Atom+Function  
  ----- ------------  ---------------      ----- ------------  ---------------
    80     -0.233872   6 O  s                84      0.230407   6 O  pz        
    12      0.214303   2 C  s               144      0.196118   9 C  px        
    83     -0.173086   6 O  py               57      0.162314   5 C  px        
   108      0.162883   7 N  py              143      0.157397   9 C  pz        
   162     -0.153503  10 H  s         

 Vector   39  Occ=2.000000D+00  E=-6.746729D-01
              MO Center= -6.9D-01,  1.0D+00, -1.7D-01, r^2= 8.6D+00
   Bfn.  Coefficient  Atom+Function         Bfn.  Coefficient  Atom+Function  
  ----- ------------  ---------------      ----- ------------  ---------------
   315      0.216901  19 C  py              506      0.188564  30 H  s         
   426      0.179651  26 C  px              477      0.172245  28 N  py        
   250      0.166448  16 O  s               452     -0.162081  27 O  py        
   312      0.159128  19 C  py              449     -0.152451  27 O  s         

 Vector   40  Occ=2.000000D+00  E=-6.700466D-01
              MO Center= -3.4D-01,  1.4D+00,  1.6D-02, r^2= 7.0D+00
   Bfn.  Coefficient  Atom+Function         Bfn.  Coefficient  Atom+Function  
  ----- ------------  ---------------      ----- ------------  ---------------
   313      0.222764  19 C  pz              426     -0.202248  26 C  px        
   225     -0.181545  15 C  s               139      0.174860   9 C  s         
   506     -0.167308  30 H  s               332      0.165913  20 H  s         
   452      0.154118  27 O  py        

 Vector   41  Occ=2.000000D+00  E=-6.303335D-01
              MO Center=  8.4D-01, -2.6D+00, -3.3D-01, r^2= 4.8D+00
   Bfn.  Coefficient  Atom+Function         Bfn.  Coefficient  Atom+Function  
  ----- ------------  ---------------      ----- ------------  ---------------
   139      0.324603   9 C  s                15      0.229799   2 C  py        
    44     -0.219280   4 H  s                35      0.214628   3 H  s         
    16      0.172790   2 C  pz               59      0.153046   5 C  pz        
    83      0.152679   6 O  py        

 Vector   42  Occ=2.000000D+00  E=-6.203203D-01
              MO Center= -1.0D+00, -7.1D-02,  3.4D-01, r^2= 7.2D+00
   Bfn.  Coefficient  Atom+Function         Bfn.  Coefficient  Atom+Function  
  ----- ------------  ---------------      ----- ------------  ---------------
   252      0.223431  16 O  px              254     -0.221295  16 O  pz        
   145     -0.199772   9 C  py              250     -0.178827  16 O  s         
   227     -0.168788  15 C  px              228      0.156300  15 C  py        

 Vector   43  Occ=2.000000D+00  E=-6.075168D-01
              MO Center=  5.9D-01,  1.7D+00, -2.5D-01, r^2= 7.8D+00
   Bfn.  Coefficient  Atom+Function         Bfn.  Coefficient  Atom+Function  
  ----- ------------  ---------------      ----- ------------  ---------------
   452      0.245227  27 O  py              449      0.192985  27 O  s         
   346      0.182054  21 C  py              424     -0.172979  26 C  s         
   375      0.169981  23 H  s               427     -0.167421  26 C  py        
   451      0.155203  27 O  px        

 Vector   44  Occ=2.000000D+00  E=-6.001428D-01
              MO Center= -5.8D-02, -1.3D+00, -3.0D-01, r^2= 8.2D+00
   Bfn.  Coefficient  Atom+Function         Bfn.  Coefficient  Atom+Function  
  ----- ------------  ---------------      ----- ------------  ---------------
    84      0.212808   6 O  pz               58      0.189497   5 C  py        
    59     -0.177732   5 C  pz               14      0.167269   2 C  px        
   128      0.150158   8 H  s         

 Vector   45  Occ=2.000000D+00  E=-5.897292D-01
              MO Center=  2.5D-01, -3.4D-01, -2.0D-01, r^2= 1.2D+01
   Bfn.  Coefficient  Atom+Function         Bfn.  Coefficient  Atom+Function  
  ----- ------------  ---------------      ----- ------------  ---------------
   139     -0.194810   9 C  s                16     -0.187295   2 C  pz        
     2      0.185566   1 H  s               225      0.172898  15 C  s         
   348     -0.157510  21 C  px              375     -0.157240  23 H  s         

 Vector   46  Occ=2.000000D+00  E=-5.830321D-01
              MO Center=  7.1D-01, -4.7D-01, -2.2D-01, r^2= 1.1D+01
   Bfn.  Coefficient  Atom+Function         Bfn.  Coefficient  Atom+Function  
  ----- ------------  ---------------      ----- ------------  ---------------
   376      0.201067  23 H  s               309      0.198513  19 C  s         
     1      0.190305   1 H  s               347      0.186245  21 C  pz        
     2      0.182385   1 H  s               226      0.182095  15 C  s         
   375      0.177206  23 H  s                16     -0.171457   2 C  pz        
   343     -0.166639  21 C  s               344     -0.167358  21 C  s         

 Vector   47  Occ=2.000000D+00  E=-5.806195D-01
              MO Center=  5.3D-02,  4.2D-02,  5.3D-03, r^2= 1.1D+01
   Bfn.  Coefficient  Atom+Function         Bfn.  Coefficient  Atom+Function  
  ----- ------------  ---------------      ----- ------------  ---------------
   344      0.219669  21 C  s               347     -0.183584  21 C  pz        
   215      0.181743  14 H  s               366      0.173515  22 H  s         
     1      0.172091   1 H  s               309     -0.169839  19 C  s         
    16     -0.157265   2 C  pz              173     -0.157849  11 C  s         
   376     -0.156007  23 H  s               174     -0.154708  11 C  s         

 Vector   48  Occ=2.000000D+00  E=-5.667540D-01
              MO Center= -1.2D+00,  6.6D-01,  2.4D-01, r^2= 8.5D+00
   Bfn.  Coefficient  Atom+Function         Bfn.  Coefficient  Atom+Function  
  ----- ------------  ---------------      ----- ------------  ---------------
   174     -0.214840  11 C  s               177     -0.199530  11 C  pz        
   205     -0.199500  13 H  s                56      0.198166   5 C  s         
   225     -0.190038  15 C  s               254      0.185763  16 O  pz        
   215      0.176914  14 H  s               139      0.170188   9 C  s         
   453     -0.155567  27 O  pz              229      0.152135  15 C  pz        

 Vector   49  Occ=2.000000D+00  E=-5.543571D-01
              MO Center= -4.4D-01, -1.6D+00,  7.1D-02, r^2= 9.4D+00
   Bfn.  Coefficient  Atom+Function         Bfn.  Coefficient  Atom+Function  
  ----- ------------  ---------------      ----- ------------  ---------------
   141     -0.179766   9 C  px              196     -0.179217  12 H  s         
    14      0.172811   2 C  px              175      0.172465  11 C  px        
   108     -0.168244   7 N  py              176      0.161777  11 C  py        
    44     -0.160552   4 H  s         

 Vector   50  Occ=2.000000D+00  E=-5.510302D-01
              MO Center= -1.0D+00, -1.3D+00,  2.2D-01, r^2= 1.0D+01
   Bfn.  Coefficient  Atom+Function         Bfn.  Coefficient  Atom+Function  
  ----- ------------  ---------------      ----- ------------  ---------------
   176      0.259591  11 C  py              215      0.259720  14 H  s         
   214      0.220943  14 H  s               196     -0.209110  12 H  s         
   197     -0.199810  12 H  s                12      0.182177   2 C  s         
    55     -0.158812   5 C  s               228      0.150229  15 C  py        

 Vector   51  Occ=2.000000D+00  E=-5.423410D-01
              MO Center=  2.2D-02, -2.0D+00, -2.6D-01, r^2= 7.5D+00
   Bfn.  Coefficient  Atom+Function         Bfn.  Coefficient  Atom+Function  
  ----- ------------  ---------------      ----- ------------  ---------------
    35      0.209093   3 H  s                83     -0.201024   6 O  py        
    16      0.199938   2 C  pz              175     -0.194100  11 C  px        
   107     -0.166697   7 N  px               86     -0.160878   6 O  py        
   141      0.161013   9 C  px               45     -0.154423   4 H  s         

 Vector   52  Occ=2.000000D+00  E=-5.375358D-01
              MO Center=  3.2D-01,  8.0D-01,  3.3D-01, r^2= 9.4D+00
   Bfn.  Coefficient  Atom+Function         Bfn.  Coefficient  Atom+Function  
  ----- ------------  ---------------      ----- ------------  ---------------
   392      0.220054  24 S  px              314      0.212049  19 C  px        
    56     -0.198533   5 C  s               344      0.198896  21 C  s         
   413      0.199380  25 H  s               174      0.169355  11 C  s         
   147      0.167393   9 C  px              311      0.164957  19 C  px        
   414      0.159548  25 H  s               345     -0.156417  21 C  px        

 Vector   53  Occ=2.000000D+00  E=-5.251458D-01
              MO Center= -1.1D+00, -7.3D-01,  2.3D-01, r^2= 7.6D+00
   Bfn.  Coefficient  Atom+Function         Bfn.  Coefficient  Atom+Function  
  ----- ------------  ---------------      ----- ------------  ---------------
   143      0.273190   9 C  pz              177     -0.241893  11 C  pz        
   162     -0.229390  10 H  s               178      0.214281  11 C  px        
   205     -0.203803  13 H  s               173      0.193245  11 C  s         
   345     -0.172421  21 C  px              174     -0.163649  11 C  s         
   311      0.161764  19 C  px              197      0.153151  12 H  s         

 Vector   54  Occ=2.000000D+00  E=-5.187280D-01
              MO Center=  7.4D-02,  1.1D+00,  1.3D-01, r^2= 7.2D+00
   Bfn.  Coefficient  Atom+Function         Bfn.  Coefficient  Atom+Function  
  ----- ------------  ---------------      ----- ------------  ---------------
   348      0.259295  21 C  px              332      0.223306  20 H  s         
   313      0.207517  19 C  pz              345      0.206040  21 C  px        
   311     -0.189384  19 C  px              343     -0.188188  21 C  s         
   478     -0.150287  28 N  pz        

 Vector   55  Occ=2.000000D+00  E=-4.656076D-01
              MO Center=  1.8D+00,  5.5D-01,  7.0D-01, r^2= 4.4D+00
   Bfn.  Coefficient  Atom+Function         Bfn.  Coefficient  Atom+Function  
  ----- ------------  ---------------      ----- ------------  ---------------
   387      0.325824  24 S  s               393     -0.319146  24 S  py        
   344      0.246423  21 C  s               394      0.219335  24 S  pz        
   346      0.210281  21 C  py              396     -0.205526  24 S  py        
   349      0.189318  21 C  py              347     -0.159471  21 C  pz        

 Vector   56  Occ=2.000000D+00  E=-4.607033D-01
              MO Center= -6.7D-01, -6.0D-01,  2.6D-02, r^2= 6.2D+00
   Bfn.  Coefficient  Atom+Function         Bfn.  Coefficient  Atom+Function  
  ----- ------------  ---------------      ----- ------------  ---------------
   253      0.322917  16 O  py              256      0.265916  16 O  py        
   252      0.238300  16 O  px               82     -0.229728   6 O  px        
   139      0.217180   9 C  s               255      0.184489  16 O  px        
    85     -0.178719   6 O  px        

 Vector   57  Occ=2.000000D+00  E=-4.440116D-01
              MO Center=  7.4D-02,  2.7D-01, -5.3D-01, r^2= 9.1D+00
   Bfn.  Coefficient  Atom+Function         Bfn.  Coefficient  Atom+Function  
  ----- ------------  ---------------      ----- ------------  ---------------
   451      0.284423  27 O  px               82      0.261684   6 O  px        
   454      0.215456  27 O  px               85      0.213264   6 O  px        
    83     -0.201377   6 O  py              343      0.184201  21 C  s         
   254     -0.176115  16 O  pz               86     -0.162367   6 O  py        
   174      0.155679  11 C  s         

 Vector   58  Occ=2.000000D+00  E=-4.379731D-01
              MO Center=  1.9D-01, -1.6D-01, -7.4D-01, r^2= 8.8D+00
   Bfn.  Coefficient  Atom+Function         Bfn.  Coefficient  Atom+Function  
  ----- ------------  ---------------      ----- ------------  ---------------
    82      0.366431   6 O  px               85      0.295161   6 O  px        
   451     -0.254723  27 O  px              226     -0.203079  15 C  s         
   454     -0.195257  27 O  px              105      0.184668   7 N  s         
   279     -0.175647  17 N  pz               83     -0.171984   6 O  py        
   225     -0.168731  15 C  s               140     -0.166481   9 C  s         

 Vector   59  Occ=2.000000D+00  E=-4.108546D-01
              MO Center= -7.7D-01, -9.0D-01, -1.7D-01, r^2= 6.2D+00
   Bfn.  Coefficient  Atom+Function         Bfn.  Coefficient  Atom+Function  
  ----- ------------  ---------------      ----- ------------  ---------------
   108      0.268339   7 N  py              253     -0.253076  16 O  py        
   111      0.248754   7 N  py              109      0.197867   7 N  pz        
   256     -0.197537  16 O  py               83     -0.180582   6 O  py        
   112      0.172056   7 N  pz              145     -0.167686   9 C  py        
   107      0.153467   7 N  px              228      0.150002  15 C  py        

 Vector   60  Occ=2.000000D+00  E=-4.015346D-01
              MO Center= -8.3D-01,  2.7D+00, -4.9D-01, r^2= 4.5D+00
   Bfn.  Coefficient  Atom+Function         Bfn.  Coefficient  Atom+Function  
  ----- ------------  ---------------      ----- ------------  ---------------
   453      0.367559  27 O  pz              478     -0.339322  28 N  pz        
   481     -0.288487  28 N  pz              456      0.283380  27 O  pz        
   477     -0.161911  28 N  py        

 Vector   61  Occ=2.000000D+00  E=-3.936441D-01
              MO Center= -4.0D-01,  1.9D+00, -1.2D-01, r^2= 4.8D+00
   Bfn.  Coefficient  Atom+Function         Bfn.  Coefficient  Atom+Function  
  ----- ------------  ---------------      ----- ------------  ---------------
   279      0.272829  17 N  pz              451     -0.257851  27 O  px        
   282      0.246617  17 N  pz              452      0.230992  27 O  py        
   454     -0.209247  27 O  px              254     -0.182975  16 O  pz        
   478     -0.170087  28 N  pz              455      0.168781  27 O  py        

 Vector   62  Occ=2.000000D+00  E=-3.646495D-01
              MO Center=  2.4D+00,  5.0D-01,  8.4D-01, r^2= 2.5D+00
   Bfn.  Coefficient  Atom+Function         Bfn.  Coefficient  Atom+Function  
  ----- ------------  ---------------      ----- ------------  ---------------
   394      0.419540  24 S  pz              397      0.401629  24 S  pz        
   396      0.320814  24 S  py              393      0.305339  24 S  py        
   367      0.212644  22 H  s               376     -0.180230  23 H  s         
    56      0.158014   5 C  s         

 Vector   63  Occ=0.000000D+00  E= 2.315623D-02
              MO Center= -4.6D-01, -4.8D+00,  9.1D-01, r^2= 1.9D+01
   Bfn.  Coefficient  Atom+Function         Bfn.  Coefficient  Atom+Function  
  ----- ------------  ---------------      ----- ------------  ---------------
   234      3.395603  15 C  py              233      2.778439  15 C  px        
   148      2.433626   9 C  py              425     -2.185560  26 C  s         
   198      2.123714  12 H  s               226     -2.099017  15 C  s         
   106      2.078960   7 N  s                46      1.894933   4 H  s         
   300     -1.706299  18 H  s                12     -1.642801   2 C  s         

 Vector   64  Occ=0.000000D+00  E= 3.632772D-02
              MO Center= -7.1D-02, -2.1D+00, -4.1D-03, r^2= 3.9D+01
   Bfn.  Coefficient  Atom+Function         Bfn.  Coefficient  Atom+Function  
  ----- ------------  ---------------      ----- ------------  ---------------
    63      3.615616   5 C  px               64     -2.798463   5 C  py        
    37     -2.213842   3 H  s               147      2.218955   9 C  px        
   140      2.152882   9 C  s               106      2.004257   7 N  s         
   198      1.985594  12 H  s                13     -1.911509   2 C  s         
   234      1.864041  15 C  py              276     -1.867179  17 N  s         

 Vector   65  Occ=0.000000D+00  E= 3.987630D-02
              MO Center=  9.3D-02,  6.1D-01, -6.8D-01, r^2= 3.9D+01
   Bfn.  Coefficient  Atom+Function         Bfn.  Coefficient  Atom+Function  
  ----- ------------  ---------------      ----- ------------  ---------------
   425      4.671965  26 C  s               317      4.098388  19 C  px        
   344     -3.983258  21 C  s               310      2.607454  19 C  s         
   164     -2.162818  10 H  s               234      2.120979  15 C  py        
   475     -2.077656  28 N  s               432     -1.901972  26 C  px        
   415     -1.661364  25 H  s               106      1.637331   7 N  s         

 Vector   66  Occ=0.000000D+00  E= 4.248681D-02
              MO Center= -2.9D-01, -2.9D+00,  1.2D+00, r^2= 2.8D+01
   Bfn.  Coefficient  Atom+Function         Bfn.  Coefficient  Atom+Function  
  ----- ------------  ---------------      ----- ------------  ---------------
   207      2.871144  13 H  s               147      2.295593   9 C  px        
    46     -2.144582   4 H  s               234     -1.961686  15 C  py        
   233     -1.950419  15 C  px              164     -1.873150  10 H  s         
     3     -1.703909   1 H  s               149     -1.694243   9 C  pz        
   334      1.618757  20 H  s               130      1.553069   8 H  s         

 Vector   67  Occ=0.000000D+00  E= 4.901382D-02
              MO Center= -6.4D-01,  3.3D-01, -3.1D-01, r^2= 4.6D+01
   Bfn.  Coefficient  Atom+Function         Bfn.  Coefficient  Atom+Function  
  ----- ------------  ---------------      ----- ------------  ---------------
   198      2.920202  12 H  s               432     -2.562464  26 C  px        
   318      2.408561  19 C  py              475     -2.345269  28 N  s         
   508     -2.312157  30 H  s               425     -2.065498  26 C  s         
   344      2.052052  21 C  s               415      1.922710  25 H  s         
   234      1.652611  15 C  py              317     -1.634699  19 C  px        

 Vector   68  Occ=0.000000D+00  E= 5.572169D-02
              MO Center=  1.1D-01, -6.6D-01,  4.7D-01, r^2= 4.4D+01
   Bfn.  Coefficient  Atom+Function         Bfn.  Coefficient  Atom+Function  
  ----- ------------  ---------------      ----- ------------  ---------------
    56      3.084957   5 C  s               216      2.974660  14 H  s         
   233      2.639459  15 C  px              174     -2.623086  11 C  s         
   226      2.624259  15 C  s                37      2.544894   3 H  s         
     3      2.393844   1 H  s               377     -2.404448  23 H  s         
   317      2.376196  19 C  px              130     -2.282606   8 H  s         

 Vector   69  Occ=0.000000D+00  E= 5.997534D-02
              MO Center=  2.4D-01, -2.3D+00,  3.7D-02, r^2= 3.5D+01
   Bfn.  Coefficient  Atom+Function         Bfn.  Coefficient  Atom+Function  
  ----- ------------  ---------------      ----- ------------  ---------------
   164      4.489262  10 H  s                37      3.761417   3 H  s         
     3     -3.570960   1 H  s                63      3.360041   5 C  px        
    13     -2.984219   2 C  s               207     -2.909009  13 H  s         
   148     -2.715663   9 C  py              149      2.672965   9 C  pz        
   174     -2.382441  11 C  s               226      2.385321  15 C  s         

 Vector   70  Occ=0.000000D+00  E= 6.269058D-02
              MO Center=  7.6D-01, -1.2D-01,  7.9D-03, r^2= 3.6D+01
   Bfn.  Coefficient  Atom+Function         Bfn.  Coefficient  Atom+Function  
  ----- ------------  ---------------      ----- ------------  ---------------
   368      3.869886  22 H  s               216     -2.756520  14 H  s         
   377     -2.672540  23 H  s               130      2.640947   8 H  s         
    46     -2.362894   4 H  s               164      2.304195  10 H  s         
   334     -2.087412  20 H  s               353      2.044786  21 C  pz        
   174     -2.025368  11 C  s               317     -2.024013  19 C  px        

 Vector   71  Occ=0.000000D+00  E= 6.330626D-02
              MO Center= -9.5D-01,  2.2D-01,  1.9D-01, r^2= 3.7D+01
   Bfn.  Coefficient  Atom+Function         Bfn.  Coefficient  Atom+Function  
  ----- ------------  ---------------      ----- ------------  ---------------
   164      4.778154  10 H  s               334      4.166223  20 H  s         
   149      3.253875   9 C  pz              198     -2.876729  12 H  s         
   425      2.729498  26 C  s               233     -2.515124  15 C  px        
    56     -2.433850   5 C  s               148     -2.316844   9 C  py        
   147      2.138897   9 C  px              207      2.042510  13 H  s         

 Vector   72  Occ=0.000000D+00  E= 7.096427D-02
              MO Center= -9.1D-01, -1.2D+00, -8.9D-02, r^2= 4.4D+01
   Bfn.  Coefficient  Atom+Function         Bfn.  Coefficient  Atom+Function  
  ----- ------------  ---------------      ----- ------------  ---------------
   198      5.183539  12 H  s               216     -4.057687  14 H  s         
    13      3.528495   2 C  s                46     -3.210442   4 H  s         
   334      3.200506  20 H  s               226     -3.108170  15 C  s         
    63     -2.927920   5 C  px              140     -2.876387   9 C  s         
   317      2.848045  19 C  px                3      2.828548   1 H  s         

 Vector   73  Occ=0.000000D+00  E= 7.830734D-02
              MO Center=  2.0D+00,  4.5D-02,  1.0D-01, r^2= 3.8D+01
   Bfn.  Coefficient  Atom+Function         Bfn.  Coefficient  Atom+Function  
  ----- ------------  ---------------      ----- ------------  ---------------
    37      4.182936   3 H  s               368      3.581741  22 H  s         
   415     -3.472045  25 H  s               344     -2.873387  21 C  s         
    46     -2.566651   4 H  s               226      2.391910  15 C  s         
   198      2.161720  12 H  s               300     -2.128256  18 H  s         
   207     -2.081416  13 H  s               377      1.819616  23 H  s         

 Vector   74  Occ=0.000000D+00  E= 8.341916D-02
              MO Center= -3.4D-01,  1.1D+00,  8.6D-01, r^2= 3.8D+01
   Bfn.  Coefficient  Atom+Function         Bfn.  Coefficient  Atom+Function  
  ----- ------------  ---------------      ----- ------------  ---------------
   174      6.516120  11 C  s               377     -5.710523  23 H  s         
   207     -4.500646  13 H  s               368      4.281697  22 H  s         
   334      4.196861  20 H  s               164     -3.158654  10 H  s         
   319     -3.173332  19 C  pz              499      3.009708  29 H  s         
   149     -2.886159   9 C  pz               56     -2.650827   5 C  s         

 Vector   75  Occ=0.000000D+00  E= 8.605802D-02
              MO Center=  8.3D-01, -1.8D+00,  2.3D-01, r^2= 3.7D+01
   Bfn.  Coefficient  Atom+Function         Bfn.  Coefficient  Atom+Function  
  ----- ------------  ---------------      ----- ------------  ---------------
   130      5.730200   8 H  s                 3      4.763981   1 H  s         
   377      4.165785  23 H  s               425      3.968618  26 C  s         
   207     -3.929582  13 H  s                46     -3.799279   4 H  s         
   226     -3.686529  15 C  s               147     -3.505304   9 C  px        
   368     -3.116301  22 H  s               140     -2.772670   9 C  s         

 Vector   76  Occ=0.000000D+00  E= 9.893837D-02
              MO Center= -2.2D+00,  4.2D-01,  1.1D-01, r^2= 3.7D+01
   Bfn.  Coefficient  Atom+Function         Bfn.  Coefficient  Atom+Function  
  ----- ------------  ---------------      ----- ------------  ---------------
   499      6.988132  29 H  s               216     -5.702710  14 H  s         
   344     -5.163522  21 C  s               226     -5.126108  15 C  s         
    56      4.719642   5 C  s               300     -4.609412  18 H  s         
    63     -4.242219   5 C  px              140     -4.139949   9 C  s         
   147     -3.592103   9 C  px              198      3.552945  12 H  s         

 Vector   77  Occ=0.000000D+00  E= 1.048480D-01
              MO Center= -1.5D-01,  1.1D-01, -1.4D+00, r^2= 2.8D+01
   Bfn.  Coefficient  Atom+Function         Bfn.  Coefficient  Atom+Function  
  ----- ------------  ---------------      ----- ------------  ---------------
   300     13.631957  18 H  s               174    -10.794345  11 C  s         
   276      7.573934  17 N  s               147     -6.903543   9 C  px        
   344      6.528798  21 C  s               425     -6.382925  26 C  s         
   234     -5.416483  15 C  py              368     -4.256186  22 H  s         
   318      3.923707  19 C  py              317     -3.096523  19 C  px        

 Vector   78  Occ=0.000000D+00  E= 1.063103D-01
              MO Center=  3.5D-01, -1.1D+00, -7.3D-02, r^2= 3.3D+01
   Bfn.  Coefficient  Atom+Function         Bfn.  Coefficient  Atom+Function  
  ----- ------------  ---------------      ----- ------------  ---------------
    56      7.790209   5 C  s               147     -5.810787   9 C  px        
   344     -5.752463  21 C  s               388      5.003038  24 S  s         
   234      4.691353  15 C  py              233      4.516127  15 C  px        
   499     -3.974646  29 H  s               174     -3.952043  11 C  s         
   318      3.864297  19 C  py              164      3.432287  10 H  s         

 Vector   79  Occ=0.000000D+00  E= 1.157509D-01
              MO Center=  6.5D-01, -2.9D-01,  6.3D-01, r^2= 3.3D+01
   Bfn.  Coefficient  Atom+Function         Bfn.  Coefficient  Atom+Function  
  ----- ------------  ---------------      ----- ------------  ---------------
   425      8.195475  26 C  s               388     -7.833705  24 S  s         
    56      7.487614   5 C  s                13      7.140129   2 C  s         
   300     -6.758979  18 H  s               140     -6.374276   9 C  s         
    64      5.812532   5 C  py               63     -5.518437   5 C  px        
   148      5.433862   9 C  py              226     -5.163109  15 C  s         

 Vector   80  Occ=0.000000D+00  E= 1.209007D-01
              MO Center=  1.2D+00,  8.9D-01,  6.1D-02, r^2= 2.9D+01
   Bfn.  Coefficient  Atom+Function         Bfn.  Coefficient  Atom+Function  
  ----- ------------  ---------------      ----- ------------  ---------------
   344     19.231089  21 C  s               425    -12.832181  26 C  s         
   300    -11.691541  18 H  s               317     -9.632171  19 C  px        
   368      6.901944  22 H  s               388     -5.451558  24 S  s         
   226     -5.249166  15 C  s               353      4.424711  21 C  pz        
   351     -4.239634  21 C  px              233      4.145732  15 C  px        

 Vector   81  Occ=0.000000D+00  E= 1.244512D-01
              MO Center= -1.4D-01, -9.9D-02, -5.5D-01, r^2= 3.0D+01
   Bfn.  Coefficient  Atom+Function         Bfn.  Coefficient  Atom+Function  
  ----- ------------  ---------------      ----- ------------  ---------------
   344     -7.847169  21 C  s               226      7.472513  15 C  s         
   174     -7.095541  11 C  s               300     -7.063372  18 H  s         
    63      6.473673   5 C  px              425      5.620711  26 C  s         
   317      5.173173  19 C  px               13     -5.042480   2 C  s         
   106      4.841934   7 N  s               433     -4.079949  26 C  py        

 Vector   82  Occ=0.000000D+00  E= 1.340478D-01
              MO Center= -8.2D-01, -2.3D+00,  2.5D-01, r^2= 3.1D+01
   Bfn.  Coefficient  Atom+Function         Bfn.  Coefficient  Atom+Function  
  ----- ------------  ---------------      ----- ------------  ---------------
   174     18.509292  11 C  s               226    -13.295261  15 C  s         
    56    -10.871877   5 C  s               148     10.152606   9 C  py        
   234      9.433328  15 C  py              425     -8.790575  26 C  s         
   106      8.541532   7 N  s               147      8.183558   9 C  px        
   318      6.940031  19 C  py              140     -5.935337   9 C  s         

 Vector   83  Occ=0.000000D+00  E= 1.413789D-01
              MO Center= -6.2D-01,  8.7D-01,  4.2D-01, r^2= 2.9D+01
   Bfn.  Coefficient  Atom+Function         Bfn.  Coefficient  Atom+Function  
  ----- ------------  ---------------      ----- ------------  ---------------
   147      7.363495   9 C  px              233     -6.831438  15 C  px        
    56     -5.990943   5 C  s               276      5.569652  17 N  s         
   284     -4.696396  17 N  py              174      4.562352  11 C  s         
   106     -4.294097   7 N  s               317     -4.248731  19 C  px        
   234     -3.513330  15 C  py              475      3.510677  28 N  s         

 Vector   84  Occ=0.000000D+00  E= 1.422388D-01
              MO Center= -5.5D-01, -1.4D+00,  2.2D-01, r^2= 3.0D+01
   Bfn.  Coefficient  Atom+Function         Bfn.  Coefficient  Atom+Function  
  ----- ------------  ---------------      ----- ------------  ---------------
   174     13.099695  11 C  s               234      7.729935  15 C  py        
    56     -6.272696   5 C  s               317      6.176968  19 C  px        
   226     -5.089529  15 C  s               147      5.018663   9 C  px        
   181      5.004245  11 C  px              106      4.947770   7 N  s         
   182      4.088164  11 C  py              344     -3.993647  21 C  s         

 Vector   85  Occ=0.000000D+00  E= 1.451692D-01
              MO Center=  2.0D+00, -5.3D-01,  2.2D-02, r^2= 2.4D+01
   Bfn.  Coefficient  Atom+Function         Bfn.  Coefficient  Atom+Function  
  ----- ------------  ---------------      ----- ------------  ---------------
   344    -10.329749  21 C  s               425      9.841903  26 C  s         
   317      9.486907  19 C  px               64     -6.521497   5 C  py        
   174      6.133613  11 C  s               106      5.211760   7 N  s         
   351      5.208048  21 C  px              310      4.664459  19 C  s         
   234      4.517664  15 C  py               56     -3.771467   5 C  s         

 Vector   86  Occ=0.000000D+00  E= 1.474627D-01
              MO Center=  1.2D-01, -1.8D+00,  1.3D-01, r^2= 2.9D+01
   Bfn.  Coefficient  Atom+Function         Bfn.  Coefficient  Atom+Function  
  ----- ------------  ---------------      ----- ------------  ---------------
    63      9.993979   5 C  px              344      8.888362  21 C  s         
   147      7.235250   9 C  px              425     -6.992453  26 C  s         
   140      6.480052   9 C  s               317     -6.409359  19 C  px        
    13     -5.416193   2 C  s               148     -5.142440   9 C  py        
   113      4.743337   7 N  px               56     -4.599877   5 C  s         

 Vector   87  Occ=0.000000D+00  E= 1.532987D-01
              MO Center= -7.4D-01, -1.8D-01, -1.2D-01, r^2= 3.0D+01
   Bfn.  Coefficient  Atom+Function         Bfn.  Coefficient  Atom+Function  
  ----- ------------  ---------------      ----- ------------  ---------------
   425     12.846564  26 C  s               475     -9.767796  28 N  s         
   317      9.592216  19 C  px              344     -9.282871  21 C  s         
   174      8.447367  11 C  s               432     -7.319575  26 C  px        
   310      6.948092  19 C  s               234      5.772650  15 C  py        
    13      4.666744   2 C  s               140     -4.388991   9 C  s         

 Vector   88  Occ=0.000000D+00  E= 1.552513D-01
              MO Center= -1.0D+00, -3.1D-01, -3.5D-01, r^2= 2.9D+01
   Bfn.  Coefficient  Atom+Function         Bfn.  Coefficient  Atom+Function  
  ----- ------------  ---------------      ----- ------------  ---------------
   226     16.225997  15 C  s               318     14.048056  19 C  py        
   233     13.321896  15 C  px              234     12.914116  15 C  py        
    56      9.931336   5 C  s               140      9.070310   9 C  s         
   425     -8.450199  26 C  s               300     -7.286388  18 H  s         
   317      6.771973  19 C  px              276     -5.583551  17 N  s         

 Vector   89  Occ=0.000000D+00  E= 1.567847D-01
              MO Center=  7.2D-01,  3.3D-01,  3.5D-01, r^2= 2.9D+01
   Bfn.  Coefficient  Atom+Function         Bfn.  Coefficient  Atom+Function  
  ----- ------------  ---------------      ----- ------------  ---------------
   147      7.909424   9 C  px              234     -7.486576  15 C  py        
    56     -6.909390   5 C  s               226     -6.881898  15 C  s         
   475     -6.178061  28 N  s               233     -6.033944  15 C  px        
   174      5.423017  11 C  s               432     -5.257144  26 C  px        
    63      4.289524   5 C  px              106      4.010537   7 N  s         

 Vector   90  Occ=0.000000D+00  E= 1.613418D-01
              MO Center=  6.5D-02, -2.3D+00,  4.1D-02, r^2= 3.2D+01
   Bfn.  Coefficient  Atom+Function         Bfn.  Coefficient  Atom+Function  
  ----- ------------  ---------------      ----- ------------  ---------------
   234      7.865693  15 C  py              344     -6.531436  21 C  s         
   317      6.124158  19 C  px              475     -5.437315  28 N  s         
   113     -5.371148   7 N  px              425      5.062927  26 C  s         
   147     -4.704092   9 C  px              432     -4.708692  26 C  px        
   226      4.480058  15 C  s                65      4.297480   5 C  pz        

 Vector   91  Occ=0.000000D+00  E= 1.648395D-01
              MO Center= -3.0D-01, -9.5D-01,  8.2D-02, r^2= 3.1D+01
   Bfn.  Coefficient  Atom+Function         Bfn.  Coefficient  Atom+Function  
  ----- ------------  ---------------      ----- ------------  ---------------
   106      9.263967   7 N  s               130      7.699984   8 H  s         
   425      5.313548  26 C  s                65     -5.250606   5 C  pz        
   300     -4.966205  18 H  s               310      4.833518  19 C  s         
   140      4.665569   9 C  s                37     -4.639354   3 H  s         
   226      4.638064  15 C  s                63      4.376026   5 C  px        

[...]

 Vector  150  Occ=0.000000D+00  E= 4.226265D-01
              MO Center=  1.8D-01, -8.4D-01,  2.2D-01, r^2= 2.0D+01
   Bfn.  Coefficient  Atom+Function         Bfn.  Coefficient  Atom+Function  
  ----- ------------  ---------------      ----- ------------  ---------------
    12     14.657461   2 C  s                56     12.477594   5 C  s         
   425     10.126655  26 C  s               226     -9.174617  15 C  s         
   318     -9.176803  19 C  py              388     -8.892508  24 S  s         
    36     -8.642199   3 H  s               140     -8.304515   9 C  s         
    45     -7.637845   4 H  s                 2     -6.637294   1 H  s         

 Vector  151  Occ=0.000000D+00  E= 4.240421D-01
              MO Center= -2.0D-01, -9.4D-01, -4.3D-01, r^2= 1.9D+01
   Bfn.  Coefficient  Atom+Function         Bfn.  Coefficient  Atom+Function  
  ----- ------------  ---------------      ----- ------------  ---------------
    56     10.127845   5 C  s               425     10.105726  26 C  s         
   475     -9.670263  28 N  s               233      8.275144  15 C  px        
   147     -7.962218   9 C  px              276     -7.846938  17 N  s         
    63     -7.364145   5 C  px              300     -6.666108  18 H  s         
   148      6.310954   9 C  py              317      5.219585  19 C  px        

 Vector  152  Occ=0.000000D+00  E= 4.314146D-01
              MO Center=  4.5D-01, -9.1D-01, -6.4D-01, r^2= 2.1D+01
   Bfn.  Coefficient  Atom+Function         Bfn.  Coefficient  Atom+Function  
  ----- ------------  ---------------      ----- ------------  ---------------
   276     13.596356  17 N  s               234    -12.046030  15 C  py        
    56    -10.648620   5 C  s               317     -9.126491  19 C  px        
   226     -8.476421  15 C  s               425     -8.426069  26 C  s         
    45      6.203878   4 H  s                12     -5.867635   2 C  s         
   300      4.626990  18 H  s               343     -4.627599  21 C  s         

 Vector  153  Occ=0.000000D+00  E= 4.322528D-01
              MO Center= -7.7D-02, -1.4D+00,  2.3D-01, r^2= 2.0D+01
   Bfn.  Coefficient  Atom+Function         Bfn.  Coefficient  Atom+Function  
  ----- ------------  ---------------      ----- ------------  ---------------
   425     17.633239  26 C  s               113     -8.496408   7 N  px        
   226     -8.187918  15 C  s               475     -8.039756  28 N  s         
    13      7.931704   2 C  s               310      7.772370  19 C  s         
   234     -7.015535  15 C  py              140     -6.749559   9 C  s         
   174     -6.224047  11 C  s               318     -5.996282  19 C  py        

 Vector  154  Occ=0.000000D+00  E= 4.389893D-01
              MO Center=  3.2D-01, -5.1D-01, -1.2D-01, r^2= 2.1D+01
   Bfn.  Coefficient  Atom+Function         Bfn.  Coefficient  Atom+Function  
  ----- ------------  ---------------      ----- ------------  ---------------
   174     11.936687  11 C  s               344    -11.018910  21 C  s         
   234     10.096163  15 C  py               56      7.118259   5 C  s         
   233      6.292568  15 C  px              475      6.256140  28 N  s         
   106     -6.018017   7 N  s               276     -5.909728  17 N  s         
   215     -5.345680  14 H  s               149      4.508861   9 C  pz        

 Vector  155  Occ=0.000000D+00  E= 4.486877D-01
              MO Center= -4.6D-01,  3.4D-01, -2.1D-01, r^2= 2.1D+01
   Bfn.  Coefficient  Atom+Function         Bfn.  Coefficient  Atom+Function  
  ----- ------------  ---------------      ----- ------------  ---------------
   344    -24.587339  21 C  s               425     23.426331  26 C  s         
   226     22.712953  15 C  s               317     17.539790  19 C  px        
   276    -14.681207  17 N  s                13    -10.964881   2 C  s         
   475     -7.874047  28 N  s               106     -7.761832   7 N  s         
   148     -7.481059   9 C  py               63      7.211718   5 C  px        

 Vector  156  Occ=0.000000D+00  E= 4.532790D-01
              MO Center=  3.5D-01, -9.1D-01,  2.2D-01, r^2= 1.9D+01
   Bfn.  Coefficient  Atom+Function         Bfn.  Coefficient  Atom+Function  
  ----- ------------  ---------------      ----- ------------  ---------------
   226     17.723617  15 C  s               174    -16.024169  11 C  s         
    12    -11.507511   2 C  s               344    -11.491336  21 C  s         
   148    -10.920728   9 C  py              300      9.627094  18 H  s         
    13     -9.396067   2 C  s               140      8.850248   9 C  s         
    36      7.691086   3 H  s               376      6.903402  23 H  s         

 Vector  157  Occ=0.000000D+00  E= 4.565293D-01
              MO Center= -8.1D-01, -1.1D-01,  1.3D-01, r^2= 1.8D+01
   Bfn.  Coefficient  Atom+Function         Bfn.  Coefficient  Atom+Function  
  ----- ------------  ---------------      ----- ------------  ---------------
   284      8.478972  17 N  py              140      7.692776   9 C  s         
   226      7.729193  15 C  s               283      6.592612  17 N  px        
   276     -5.490408  17 N  s               235     -5.450283  15 C  pz        
   319      5.455557  19 C  pz              425     -4.809367  26 C  s         
   344     -4.747019  21 C  s               225      4.693929  15 C  s         

 Vector  158  Occ=0.000000D+00  E= 4.603629D-01
              MO Center=  7.2D-01,  6.0D-01, -2.2D-01, r^2= 2.0D+01
   Bfn.  Coefficient  Atom+Function         Bfn.  Coefficient  Atom+Function  
  ----- ------------  ---------------      ----- ------------  ---------------
   276      7.186527  17 N  s               475      6.378194  28 N  s         
   147     -5.697943   9 C  px              450     -5.166874  27 O  s         
   318      5.115676  19 C  py              353     -4.774254  21 C  pz        
   367     -4.667407  22 H  s               368     -4.623091  22 H  s         
   432      4.565142  26 C  px              174     -4.188501  11 C  s         

 Vector  159  Occ=0.000000D+00  E= 4.651091D-01
              MO Center= -2.5D-01, -7.4D-01,  2.0D-01, r^2= 1.8D+01
   Bfn.  Coefficient  Atom+Function         Bfn.  Coefficient  Atom+Function  
  ----- ------------  ---------------      ----- ------------  ---------------
   276     11.593642  17 N  s               300     10.667138  18 H  s         
   174    -10.177940  11 C  s               206      8.099886  13 H  s         
   173     -7.902017  11 C  s               425     -6.822953  26 C  s         
   226     -6.619476  15 C  s                63     -5.666053   5 C  px        
   475      5.486576  28 N  s               319      4.891804  19 C  pz        

 Vector  160  Occ=0.000000D+00  E= 4.685523D-01
              MO Center= -1.0D+00, -1.0D+00,  1.3D-01, r^2= 1.8D+01
   Bfn.  Coefficient  Atom+Function         Bfn.  Coefficient  Atom+Function  
  ----- ------------  ---------------      ----- ------------  ---------------
   425     15.529148  26 C  s               106    -12.670288   7 N  s         
   234    -12.576174  15 C  py              140    -11.302550   9 C  s         
   475    -11.200630  28 N  s                13     10.438149   2 C  s         
   310      8.482855  19 C  s               226     -8.301191  15 C  s         
   276      7.443562  17 N  s                64      7.310870   5 C  py        

 Vector  161  Occ=0.000000D+00  E= 4.765209D-01
              MO Center= -1.0D+00, -1.6D+00,  4.2D-01, r^2= 1.8D+01
   Bfn.  Coefficient  Atom+Function         Bfn.  Coefficient  Atom+Function  
  ----- ------------  ---------------      ----- ------------  ---------------
   174     28.343708  11 C  s               425    -15.572910  26 C  s         
    56    -12.713667   5 C  s               234     10.732785  15 C  py        
   173      9.866221  11 C  s               206     -9.737733  13 H  s         
   197     -9.641785  12 H  s               106      8.047878   7 N  s         
   148      7.967145   9 C  py              147      6.865554   9 C  px        

 Vector  162  Occ=0.000000D+00  E= 4.790131D-01
              MO Center=  4.4D-01,  2.9D-01,  1.1D-02, r^2= 1.7D+01
   Bfn.  Coefficient  Atom+Function         Bfn.  Coefficient  Atom+Function  
  ----- ------------  ---------------      ----- ------------  ---------------
   234     18.641632  15 C  py              276    -15.545823  17 N  s         
   226     13.800145  15 C  s               233     11.312222  15 C  px        
    56     10.593794   5 C  s               425    -10.605318  26 C  s         
   140      7.961358   9 C  s               300     -7.820761  18 H  s         
   174      7.258797  11 C  s               283      6.521581  17 N  px        

 Vector  163  Occ=0.000000D+00  E= 4.812348D-01
              MO Center=  5.2D-01, -2.8D-01,  1.2D-01, r^2= 1.8D+01
   Bfn.  Coefficient  Atom+Function         Bfn.  Coefficient  Atom+Function  
  ----- ------------  ---------------      ----- ------------  ---------------
    13      9.898722   2 C  s                56      9.002969   5 C  s         
   113     -8.598990   7 N  px               63     -8.530412   5 C  px        
   148      8.565901   9 C  py              276      8.568204  17 N  s         
   425     -8.525710  26 C  s               226     -8.364364  15 C  s         
   147     -7.591922   9 C  px              318      6.365251  19 C  py        

 Vector  164  Occ=0.000000D+00  E= 4.889101D-01
              MO Center=  1.9D-02,  3.8D-01, -3.2D-01, r^2= 1.9D+01
   Bfn.  Coefficient  Atom+Function         Bfn.  Coefficient  Atom+Function  
  ----- ------------  ---------------      ----- ------------  ---------------
   344     16.313317  21 C  s                56    -14.366530   5 C  s         
   147     13.485907   9 C  px              317    -11.574828  19 C  px        
   367     -9.755589  22 H  s               425     -9.587669  26 C  s         
   283      8.868249  17 N  px              475      8.291657  28 N  s         
   226      8.048546  15 C  s               233     -7.739925  15 C  px        

 Vector  165  Occ=0.000000D+00  E= 4.937358D-01
              MO Center= -1.2D-01,  3.1D-01, -1.2D-01, r^2= 1.9D+01
   Bfn.  Coefficient  Atom+Function         Bfn.  Coefficient  Atom+Function  
  ----- ------------  ---------------      ----- ------------  ---------------
   425     10.628597  26 C  s                56     -7.780532   5 C  s         
    13     -7.397990   2 C  s               284     -7.290335  17 N  py        
   234     -5.985693  15 C  py              174     -4.810638  11 C  s         
   197      4.788214  12 H  s               333      4.627420  20 H  s         
   114     -4.356006   7 N  py               81      4.315182   6 O  s         

 Vector  166  Occ=0.000000D+00  E= 4.999112D-01
              MO Center= -5.5D-01, -1.2D+00,  1.1D-01, r^2= 1.8D+01
   Bfn.  Coefficient  Atom+Function         Bfn.  Coefficient  Atom+Function  
  ----- ------------  ---------------      ----- ------------  ---------------
   174     24.921995  11 C  s               344    -14.598256  21 C  s         
   234     13.157883  15 C  py              226    -12.971256  15 C  s         
   140    -10.303763   9 C  s               215     -8.216955  14 H  s         
   317      8.208326  19 C  px              147      7.465687   9 C  px        
   148      7.415469   9 C  py               13      7.180786   2 C  s         

 Vector  167  Occ=0.000000D+00  E= 5.061920D-01
              MO Center=  1.9D-01, -9.4D-02,  5.2D-02, r^2= 1.8D+01
   Bfn.  Coefficient  Atom+Function         Bfn.  Coefficient  Atom+Function  
  ----- ------------  ---------------      ----- ------------  ---------------
   174     26.772190  11 C  s               226    -19.613406  15 C  s         
   344     16.350897  21 C  s               140    -12.298353   9 C  s         
    56    -10.888922   5 C  s               147     10.690099   9 C  px        
   173      9.714779  11 C  s                13      9.619469   2 C  s         
   197     -9.114726  12 H  s               333     -8.433015  20 H  s         


 center of mass
 --------------
 x =   0.01292915 y =   0.08526593 z =  -0.00922762

 moments of inertia (a.u.)
 ------------------
        4399.191090992018           0.000000000001          -0.000000000001
           0.000000000001        2821.044467123592          -0.000000000000
          -0.000000000001          -0.000000000000        6276.975557444172

  Mulliken analysis of the total density
  --------------------------------------

    Atom       Charge   Shell Charges
 -----------   ------   -------------------------------------------------------
    1 H    1     0.96   0.76  0.21  0.01  0.03 -0.05
    2 C    6     6.24   2.01  0.66  0.21  0.08  2.07  1.04  0.01  0.06  0.10
    3 H    1     0.85   0.76  0.11 -0.00  0.03 -0.05
    4 H    1     0.88   0.76  0.13  0.01  0.03 -0.06
    5 C    6     5.21   2.01  0.68  0.07 -0.01  1.89  0.34 -0.02  0.24  0.02
    6 O    8     8.79   2.01  0.82  1.00  0.17  2.80  1.86  0.13  0.02 -0.01
    7 N    7     7.53   2.01  0.72  0.80 -0.07  2.45  1.44  0.10  0.05  0.04
    8 H    1     0.97   0.77  0.20 -0.02  0.05 -0.04
    9 C    6     6.65   2.01  0.66  0.04  0.00  1.99  1.75 -0.13  0.14  0.19
   10 H    1     0.96   0.78  0.14  0.00  0.03  0.01
   11 C    6     5.82   2.01  0.66  0.28  0.30  2.04  0.49 -0.04  0.07  0.01
   12 H    1     0.94   0.77  0.21  0.02  0.03 -0.09
   13 H    1     0.89   0.77  0.15  0.02  0.03 -0.08
   14 H    1     0.93   0.77  0.21  0.01  0.03 -0.08
   15 C    6     4.51   2.01  0.68 -0.07  0.03  1.88  0.18 -0.01  0.23 -0.42
   16 O    8     8.84   2.01  0.82  1.03  0.17  2.80  1.86  0.15  0.01 -0.01
   17 N    7     7.44   2.01  0.72  0.83 -0.08  2.45  1.43 -0.00  0.05  0.03
   18 H    1     0.90   0.73  0.27 -0.02  0.06 -0.14
   19 C    6     6.53   2.01  0.66  0.20 -0.03  1.99  1.41  0.00  0.14  0.15
   20 H    1     0.98   0.78  0.16  0.00  0.03  0.02
   21 C    6     6.09   2.01  0.66  0.24  0.04  1.99  1.00 -0.02  0.10  0.07
   22 H    1     0.96   0.77  0.19  0.01  0.03 -0.03
   23 H    1     1.04   0.77  0.29  0.01  0.03 -0.05
   24 S   16    15.40   2.00  2.03  0.87  0.67  0.01  6.00  2.32  1.52  0.06  0.10 -0.18
   25 H    1     1.15   0.71  0.35  0.00  0.03  0.05
   26 C    6     4.64   2.01  0.68  0.09  0.09  1.89 -0.13 -0.00  0.24 -0.22
   27 O    8     8.75   2.01  0.82  1.02  0.14  2.79  1.82  0.14  0.01 -0.01
   28 N    7     7.21   2.01  0.72  0.81 -0.15  2.47  1.25  0.08  0.04 -0.02
   29 H    1     0.92   0.73  0.20 -0.02  0.06 -0.05
   30 H    1     1.02   0.76  0.24 -0.00  0.05 -0.03

       Multipole analysis of the density wrt the origin
       ------------------------------------------------

     L   x y z        total         open         nuclear
     -   - - -        -----         ----         -------
     0   0 0 0     -0.000000      0.000000    124.000000

     1   1 0 0     -0.160781      0.000000      0.000000
     1   0 1 0     -2.350849      0.000000      0.000000
     1   0 0 1      0.543576      0.000000     -0.000000

     2   2 0 0    -66.703557      0.000000   1315.556151
     2   1 1 0     -1.202667      0.000000      7.443003
     2   1 0 1      4.219230      0.000000     -6.374690
     2   0 2 0    -73.078115      0.000000   2149.567994
     2   0 1 1     -2.375084      0.000000     -9.733489
     2   0 0 2    -79.290393      0.000000    257.523095


 Task  times  cpu:     2796.4s     wall:     2847.6s


                                NWChem Input Module
                                -------------------


 Summary of allocated global arrays
-----------------------------------
  No active global arrays


MA_summarize_allocated_blocks: starting scan ...
MA_summarize_allocated_blocks: scan completed: 0 heap blocks, 0 stack blocks
MA usage statistics:

	allocation statistics:
					      heap	     stack
					      ----	     -----
	current number of blocks	         0	         0
	maximum number of blocks	        16	        14
	current total bytes		         0	         0
	maximum total bytes		    118744	  31125016
	maximum total K-bytes		       119	     31126
	maximum total M-bytes		         1	        32


                                     CITATION
                                     --------
                Please cite the following reference when publishing
                           results obtained with NWChem:

          E. Apra, E. J. Bylaska, W. A. de Jong, N. Govind, K. Kowalski,
       T. P. Straatsma, M. Valiev, H. J. J. van Dam, Y. Alexeev, J. Anchell,
       V. Anisimov, F. W. Aquino, R. Atta-Fynn, J. Autschbach, N. P. Bauman,
     J. C. Becca, D. E. Bernholdt, K. Bhaskaran-Nair, S. Bogatko, P. Borowski,
         J. Boschen, J. Brabec, A. Bruner, E. Cauet, Y. Chen, G. N. Chuev,
      C. J. Cramer, J. Daily, M. J. O. Deegan, T. H. Dunning Jr., M. Dupuis,
   K. G. Dyall, G. I. Fann, S. A. Fischer, A. Fonari, H. Fruchtl, L. Gagliardi,
      J. Garza, N. Gawande, S. Ghosh, K. Glaesemann, A. W. Gotz, J. Hammond,
       V. Helms, E. D. Hermes, K. Hirao, S. Hirata, M. Jacquelin, L. Jensen,
   B. G. Johnson, H. Jonsson, R. A. Kendall, M. Klemm, R. Kobayashi, V. Konkov,
      S. Krishnamoorthy, M. Krishnan, Z. Lin, R. D. Lins, R. J. Littlefield,
      A. J. Logsdail, K. Lopata, W. Ma, A. V. Marenich, J. Martin del Campo,
   D. Mejia-Rodriguez, J. E. Moore, J. M. Mullin, T. Nakajima, D. R. Nascimento,
    J. A. Nichols, P. J. Nichols, J. Nieplocha, A. Otero-de-la-Roza, B. Palmer,
    A. Panyala, T. Pirojsirikul, B. Peng, R. Peverati, J. Pittner, L. Pollack,
   R. M. Richard, P. Sadayappan, G. C. Schatz, W. A. Shelton, D. W. Silverstein,
   D. M. A. Smith, T. A. Soares, D. Song, M. Swart, H. L. Taylor, G. S. Thomas,
            V. Tipparaju, D. G. Truhlar, K. Tsemekhman, T. Van Voorhis,
      A. Vazquez-Mayagoitia, P. Verma, O. Villa, A. Vishnu, K. D. Vogiatzis,
        D. Wang, J. H. Weare, M. J. Williamson, T. L. Windus, K. Wolinski,
        A. T. Wong, Q. Wu, C. Yang, Q. Yu, M. Zacharias, Z. Zhang, Y. Zhao,
                                and R. J. Harrison
                        "NWChem: Past, present, and future
                         J. Chem. Phys. 152, 184102 (2020)
                               doi:10.1063/5.0004997

                                      AUTHORS
                                      -------
  E. Apra, E. J. Bylaska, N. Govind, K. Kowalski, M. Valiev, D. Mejia-Rodriguez,
       A. Kunitsa, N. P. Bauman, A. Panyala, W. A. de Jong, T. P. Straatsma,
   H. J. J. van Dam, D. Wang, T. L. Windus, J. Hammond, J. Autschbach, A. Woods,
    K. Bhaskaran-Nair, J. Brabec, K. Lopata, S. A. Fischer, S. Krishnamoorthy,
     M. Jacquelin, W. Ma, M. Klemm, O. Villa, Y. Chen, V. Anisimov, F. Aquino,
     S. Hirata, M. T. Hackler, E. Hermes, L. Jensen, J. E. Moore, J. C. Becca,
      V. Konjkov, T. Risthaus, M. Malagoli, A. Marenich, A. Otero-de-la-Roza,
        J. Mullin, P. Nichols, R. Peverati, J. Pittner, Y. Zhao, P.-D. Fan,
        A. Fonari, M. J. Williamson, R. J. Harrison, J. R. Rehr, M. Dupuis,
     D. Silverstein, D. M. A. Smith, J. Nieplocha, V. Tipparaju, M. Krishnan,
     B. E. Van Kuiken, A. Vazquez-Mayagoitia, M. Swart, Q. Wu, T. Van Voorhis,
     A. A. Auer, M. Nooijen, L. D. Crosby, E. Brown, G. Cisneros, G. I. Fann,
   H. Fruchtl, J. Garza, K. Hirao, R. A. Kendall, J. A. Nichols, K. Tsemekhman,
    K. Wolinski, J. Anchell, D. E. Bernholdt, P. Borowski, T. Clark, D. Clerc,
   H. Dachsel, M. J. O. Deegan, K. Dyall, D. Elwood, E. Glendening, M. Gutowski,
   A. C. Hess, J. Jaffe, B. G. Johnson, J. Ju, R. Kobayashi, R. Kutteh, Z. Lin,
   R. Littlefield, X. Long, B. Meng, T. Nakajima, S. Niu, L. Pollack, M. Rosing,
   K. Glaesemann, G. Sandrone, M. Stave, H. Taylor, G. Thomas, J. H. van Lenthe,
                               A. T. Wong, Z. Zhang.

 Total times  cpu:     2796.4s     wall:     2848.1s
