export TMOUT=5400
export TMPDIR=/tmp
export PTMPDIR=/tmp/ptmp
 argument  1 = ALA_TYR_5.nw
                                         
                                         


             Northwest Computational Chemistry Package (NWChem) 7.2.0
             --------------------------------------------------------


                    Environmental Molecular Sciences Laboratory
                       Pacific Northwest National Laboratory
                                Richland, WA 99352

                              Copyright (c) 1994-2022
                       Pacific Northwest National Laboratory
                            Battelle Memorial Institute

             NWChem is an open-source computational chemistry package
                        distributed under the terms of the
                      Educational Community License (ECL) 2.0
             A copy of the license is included with this distribution
                              in the LICENSE.TXT file

                                  ACKNOWLEDGMENT
                                  --------------

            This software and its documentation were developed at the
            EMSL at Pacific Northwest National Laboratory, a multiprogram
            national laboratory, operated for the U.S. Department of Energy
            by Battelle under Contract Number DE-AC05-76RL01830. Support
            for this work was provided by the Department of Energy Office
            of Biological and Environmental Research, Office of Basic
            Energy Sciences, and the Office of Advanced Scientific Computing.


           Job information
           ---------------

    hostname        = nova18-wide-39
    program         = /opt/rit/el9/20230413/app/linux-rhel9-x86_64_v3/gcc-11.2.1/nwchem-7.2.0-oxtctbuhfuzyfaoziquq6bki22grib3g/bin/nwchem
    date            = Tue Jul  1 09:03:50 2025

    compiled        = Wed_May_17_23:46:39_2023
    source          = /tmp/root/spack-stage/spack-stage-nwchem-7.2.0-oxtctbuhfuzyfaoziquq6bki22grib3g/spack-src
    nwchem branch   = 7.2.0
    nwchem revision = d0d141fd
    ga revision     = 5.8.0
    use scalapack   = T
    input           = ALA_TYR_5.nw
    prefix          = ALA_TYR_5.
    data base       = ./ALA_TYR_5.db
    status          = startup
    nproc           =        1
    time left       =     -1s



           Memory information
           ------------------

    heap     =   26214396 doubles =    200.0 Mbytes
    stack    =   26214401 doubles =    200.0 Mbytes
    global   =   52428800 doubles =    400.0 Mbytes (distinct from heap & stack)
    total    =  104857597 doubles =    800.0 Mbytes
    verify   = yes
    hardfail = no 


           Directory information
           ---------------------

  0 permanent = .
  0 scratch   = .




                                NWChem Input Module
                                -------------------



 Scaling coordinates for geometry "geometry" by  1.889725989
 (inverse scale =  0.529177249)

 C1  symmetry detected

          ------
          auto-z
          ------
  no constraints, skipping    0.0000000000000000     
  no constraints, skipping    0.0000000000000000     


                             Geometry "geometry" -> ""
                             -------------------------

 Output coordinates in angstroms (scale by  1.889725989 to convert to a.u.)

  No.       Tag          Charge          X              Y              Z
 ---- ---------------- ---------- -------------- -------------- --------------
    1 H                    1.0000    -3.04433273    -4.26764939    -1.28346766
    2 C                    6.0000    -2.06132921    -4.55166703    -0.90987423
    3 H                    1.0000    -1.41719148    -4.81869746    -1.74606938
    4 H                    1.0000    -2.15788902    -5.39527396    -0.22930715
    5 C                    6.0000    -1.45991625    -3.37859338    -0.17496154
    6 O                    8.0000    -2.07928874    -2.32538615    -0.08497126
    7 N                    7.0000    -0.25339282    -3.56314791     0.35621343
    8 H                    1.0000     0.20574562    -4.44421838     0.19935772
    9 C                    6.0000     0.52818124    -2.49174317     0.97450532
   10 H                    1.0000    -0.14740832    -1.86497774     1.56048556
   11 C                    6.0000     1.55109877    -3.11564366     1.93148072
   12 H                    1.0000     2.24955833    -3.74111453     1.37366585
   13 H                    1.0000     2.10944865    -2.32581024     2.43767197
   14 H                    1.0000     1.03884035    -3.72098896     2.67977570
   15 C                    6.0000     1.20709701    -1.59367098    -0.07900155
   16 O                    8.0000     1.58552981    -2.05589261    -1.15519520
   17 N                    7.0000     1.40383618    -0.31669659     0.25294742
   18 H                    1.0000     1.08933773     0.00570675     1.15647595
   19 C                    6.0000     2.01481506     0.69603168    -0.61358201
   20 H                    1.0000     2.79663405     0.22673289    -1.21239060
   21 C                    6.0000     0.95260469     1.26551855    -1.57261424
   22 H                    1.0000     1.39539753     2.06420216    -2.16811907
   23 H                    1.0000     0.66464225     0.47758884    -2.26933111
   24 C                    6.0000    -0.30425156     1.79247159    -0.89922960
   25 C                    6.0000    -0.35506137     3.11337488    -0.40947776
   26 H                    1.0000     0.49899808     3.76687514    -0.51582558
   27 C                    6.0000    -1.51781909     3.58204363     0.23281975
   28 H                    1.0000    -1.56675669     4.58953211     0.61729743
   29 C                    6.0000    -2.63174549     2.73152233     0.39047916
   30 O                    8.0000    -3.74700814     3.18578844     1.01745407
   31 H                    1.0000    -4.41442580     2.50325373     1.08645426
   32 C                    6.0000    -2.58195210     1.40983299    -0.10135810
   33 H                    1.0000    -3.42470567     0.74662945     0.01848133
   34 C                    6.0000    -1.42053002     0.94703801    -0.74809574
   35 H                    1.0000    -1.38455414    -0.06924260    -1.11958525
   36 C                    6.0000     2.67430387     1.80503334     0.22314903
   37 O                    8.0000     2.43681906     1.93366634     1.41968090
   38 N                    7.0000     3.52012984     2.62624246    -0.38451701
   39 H                    1.0000     3.71744055     2.51989028    -1.36607072
   40 H                    1.0000     3.95581898     3.34807547     0.16681056

      Atomic Mass 
      ----------- 

      H                  1.007825
      C                 12.000000
      O                 15.994910
      N                 14.003070


 Effective nuclear repulsion energy (a.u.)    1723.4950835470

            Nuclear Dipole moment (a.u.) 
            ----------------------------
        X                 Y               Z
 ---------------- ---------------- ----------------
     0.0000000000     0.0000000000    -0.0000000000



                                Z-matrix (autoz)
                                -------- 

 Units are Angstrom for bonds and degrees for angles

      Type          Name      I     J     K     L     M      Value
      ----------- --------  ----- ----- ----- ----- ----- ----------
    1 Stretch                  1     2                       1.08928
    2 Stretch                  2     3                       1.08878
    3 Stretch                  2     4                       1.08819
    4 Stretch                  2     5                       1.50927
    5 Stretch                  5     6                       1.22514
    6 Stretch                  5     7                       1.33113
    7 Stretch                  7     8                       1.00583
    8 Stretch                  7     9                       1.46323
    9 Stretch                  9    10                       1.09208
   10 Stretch                  9    11                       1.53343
   11 Stretch                  9    15                       1.54186
   12 Stretch                 11    12                       1.09097
   13 Stretch                 11    13                       1.09171
   14 Stretch                 11    14                       1.09032
   15 Stretch                 15    16                       1.23087
   16 Stretch                 15    17                       1.33400
   17 Stretch                 17    18                       1.00956
   18 Stretch                 17    19                       1.46622
   19 Stretch                 19    20                       1.09090
   20 Stretch                 19    21                       1.54024
   21 Stretch                 19    36                       1.53783
   22 Stretch                 21    22                       1.09022
   23 Stretch                 21    23                       1.09049
   24 Stretch                 21    24                       1.52014
   25 Stretch                 24    25                       1.40969
   26 Stretch                 24    34                       1.40843
   27 Stretch                 25    26                       1.08064
   28 Stretch                 25    27                       1.40862
   29 Stretch                 27    28                       1.07947
   30 Stretch                 27    29                       1.41035
   31 Stretch                 29    30                       1.35767
   32 Stretch                 29    32                       1.41112
   33 Stretch                 30    31                       0.95711
   34 Stretch                 32    33                       1.07909
   35 Stretch                 32    34                       1.40760
   36 Stretch                 34    35                       1.08265
   37 Stretch                 36    37                       1.22664
   38 Stretch                 36    38                       1.32630
   39 Stretch                 38    39                       1.00682
   40 Stretch                 38    40                       1.00739
   41 Bend                     1     2     3               109.53810
   42 Bend                     1     2     4               109.66714
   43 Bend                     1     2     5               108.90182
   44 Bend                     2     5     6               120.16448
   45 Bend                     2     5     7               116.59766
   46 Bend                     3     2     4               110.04061
   47 Bend                     3     2     5               109.19889
   48 Bend                     4     2     5               109.47374
   49 Bend                     5     7     8               118.22693
   50 Bend                     5     7     9               123.45201
   51 Bend                     6     5     7               123.23714
   52 Bend                     7     9    10               108.45322
   53 Bend                     7     9    11               108.79019
   54 Bend                     7     9    15               111.89858
   55 Bend                     8     7     9               117.61106
   56 Bend                     9    11    12               109.95290
   57 Bend                     9    11    13               109.64419
   58 Bend                     9    11    14               109.92500
   59 Bend                     9    15    16               120.93429
   60 Bend                     9    15    17               116.90268
   61 Bend                    10     9    11               108.13877
   62 Bend                    10     9    15               107.74223
   63 Bend                    11     9    15               111.69494
   64 Bend                    12    11    13               108.93063
   65 Bend                    12    11    14               109.47499
   66 Bend                    13    11    14               108.88980
   67 Bend                    15    17    18               118.84595
   68 Bend                    15    17    19               125.13997
   69 Bend                    16    15    17               122.11991
   70 Bend                    17    19    20               109.02067
   71 Bend                    17    19    21               109.63279
   72 Bend                    17    19    36               110.80832
   73 Bend                    18    17    19               115.98648
   74 Bend                    19    21    22               109.32192
   75 Bend                    19    21    23               108.22624
   76 Bend                    19    21    24               114.99545
   77 Bend                    19    36    37               121.55669
   78 Bend                    19    36    38               118.08075
   79 Bend                    20    19    21               108.15118
   80 Bend                    20    19    36               107.55105
   81 Bend                    21    19    36               111.58577
   82 Bend                    21    24    25               120.56494
   83 Bend                    21    24    34               119.65345
   84 Bend                    22    21    23               106.71405
   85 Bend                    22    21    24               108.89406
   86 Bend                    23    21    24               108.37026
   87 Bend                    24    25    26               120.26294
   88 Bend                    24    25    27               119.99520
   89 Bend                    24    34    32               120.39107
   90 Bend                    24    34    35               120.02071
   91 Bend                    25    24    34               119.77617
   92 Bend                    25    27    28               120.68775
   93 Bend                    25    27    29               120.15196
   94 Bend                    26    25    27               119.73912
   95 Bend                    27    29    30               119.91070
   96 Bend                    27    29    32               119.86831
   97 Bend                    28    27    29               119.15829
   98 Bend                    29    30    31               111.56203
   99 Bend                    29    32    33               120.62259
  100 Bend                    29    32    34               119.81518
  101 Bend                    30    29    32               120.22081
  102 Bend                    32    34    35               119.58408
  103 Bend                    33    32    34               119.56124
  104 Bend                    36    38    39               120.41395
  105 Bend                    36    38    40               117.95199
  106 Bend                    37    36    38               120.36205
  107 Bend                    39    38    40               121.63331
  108 Torsion                  1     2     5     6          -0.15151
  109 Torsion                  1     2     5     7         179.55092
  110 Torsion                  2     5     7     8           3.16894
  111 Torsion                  2     5     7     9         173.26973
  112 Torsion                  3     2     5     6         119.42248
  113 Torsion                  3     2     5     7         -60.87509
  114 Torsion                  4     2     5     6        -120.04580
  115 Torsion                  4     2     5     7          59.65663
  116 Torsion                  5     7     9    10          40.62939
  117 Torsion                  5     7     9    11         158.02962
  118 Torsion                  5     7     9    15         -78.08003
  119 Torsion                  6     5     7     8        -177.13866
  120 Torsion                  6     5     7     9          -7.03786
  121 Torsion                  7     9    11    12          63.01466
  122 Torsion                  7     9    11    13        -177.24580
  123 Torsion                  7     9    11    14         -57.57374
  124 Torsion                  7     9    15    16         -32.40735
  125 Torsion                  7     9    15    17         149.93141
  126 Torsion                  8     7     9    10        -149.21302
  127 Torsion                  8     7     9    11         -31.81280
  128 Torsion                  8     7     9    15          92.07756
  129 Torsion                  9    15    17    18          -1.15350
  130 Torsion                  9    15    17    19        -179.16142
  131 Torsion                 10     9    11    12        -179.38539
  132 Torsion                 10     9    11    13         -59.64586
  133 Torsion                 10     9    11    14          60.02621
  134 Torsion                 10     9    15    16        -151.53734
  135 Torsion                 10     9    15    17          30.80142
  136 Torsion                 11     9    15    16          89.83753
  137 Torsion                 11     9    15    17         -87.82371
  138 Torsion                 12    11     9    15         -60.99666
  139 Torsion                 13    11     9    15          58.74288
  140 Torsion                 14    11     9    15         178.41495
  141 Torsion                 15    17    19    20         -35.38594
  142 Torsion                 15    17    19    21          82.83228
  143 Torsion                 15    17    19    36        -153.56549
  144 Torsion                 16    15    17    18        -178.78485
  145 Torsion                 16    15    17    19           3.20723
  146 Torsion                 17    19    21    22         176.23304
  147 Torsion                 17    19    21    23         -67.89786
  148 Torsion                 17    19    21    24          53.40823
  149 Torsion                 17    19    36    37         -14.64838
  150 Torsion                 17    19    36    38         165.09128
  151 Torsion                 18    17    19    20         146.55520
  152 Torsion                 18    17    19    21         -95.22658
  153 Torsion                 18    17    19    36          28.37565
  154 Torsion                 19    21    24    25          85.59921
  155 Torsion                 19    21    24    34         -93.55026
  156 Torsion                 19    36    38    39           0.09885
  157 Torsion                 19    36    38    40        -179.59130
  158 Torsion                 20    19    21    22         -65.00996
  159 Torsion                 20    19    21    23          50.85914
  160 Torsion                 20    19    21    24         172.16523
  161 Torsion                 20    19    36    37        -133.71776
  162 Torsion                 20    19    36    38          46.02190
  163 Torsion                 21    19    36    37         107.82446
  164 Torsion                 21    19    36    38         -72.43587
  165 Torsion                 21    24    25    26           0.47768
  166 Torsion                 21    24    25    27        -178.91771
  167 Torsion                 21    24    34    32         178.63079
  168 Torsion                 21    24    34    35          -0.62540
  169 Torsion                 22    21    19    36          53.08853
  170 Torsion                 22    21    24    25         -37.45438
  171 Torsion                 22    21    24    34         143.39615
  172 Torsion                 23    21    19    36         168.95763
  173 Torsion                 23    21    24    25        -153.17313
  174 Torsion                 23    21    24    34          27.67740
  175 Torsion                 24    21    19    36         -69.73628
  176 Torsion                 24    25    27    28         179.63300
  177 Torsion                 24    25    27    29           0.15266
  178 Torsion                 24    34    32    29           0.43421
  179 Torsion                 24    34    32    33        -179.20681
  180 Torsion                 25    24    34    32          -0.52546
  181 Torsion                 25    24    34    35        -179.78165
  182 Torsion                 25    27    29    30         179.60414
  183 Torsion                 25    27    29    32          -0.24399
  184 Torsion                 26    25    24    34         179.62610
  185 Torsion                 26    25    27    28           0.23443
  186 Torsion                 26    25    27    29        -179.24590
  187 Torsion                 27    25    24    34           0.23072
  188 Torsion                 27    29    30    31        -177.93111
  189 Torsion                 27    29    32    33         179.58869
  190 Torsion                 27    29    32    34          -0.04846
  191 Torsion                 28    27    29    30           0.11588
  192 Torsion                 28    27    29    32        -179.73225
  193 Torsion                 29    32    34    35         179.69365
  194 Torsion                 30    29    32    33          -0.25897
  195 Torsion                 30    29    32    34        -179.89611
  196 Torsion                 31    30    29    32           1.91648
  197 Torsion                 33    32    34    35           0.05262
  198 Torsion                 37    36    38    39         179.84175
  199 Torsion                 37    36    38    40           0.15160


            XYZ format geometry
            -------------------
    40
 geometry
 H                    -3.04433273    -4.26764939    -1.28346766
 C                    -2.06132921    -4.55166703    -0.90987423
 H                    -1.41719148    -4.81869746    -1.74606938
 H                    -2.15788902    -5.39527396    -0.22930715
 C                    -1.45991625    -3.37859338    -0.17496154
 O                    -2.07928874    -2.32538615    -0.08497126
 N                    -0.25339282    -3.56314791     0.35621343
 H                     0.20574562    -4.44421838     0.19935772
 C                     0.52818124    -2.49174317     0.97450532
 H                    -0.14740832    -1.86497774     1.56048556
 C                     1.55109877    -3.11564366     1.93148072
 H                     2.24955833    -3.74111453     1.37366585
 H                     2.10944865    -2.32581024     2.43767197
 H                     1.03884035    -3.72098896     2.67977570
 C                     1.20709701    -1.59367098    -0.07900155
 O                     1.58552981    -2.05589261    -1.15519520
 N                     1.40383618    -0.31669659     0.25294742
 H                     1.08933773     0.00570675     1.15647595
 C                     2.01481506     0.69603168    -0.61358201
 H                     2.79663405     0.22673289    -1.21239060
 C                     0.95260469     1.26551855    -1.57261424
 H                     1.39539753     2.06420216    -2.16811907
 H                     0.66464225     0.47758884    -2.26933111
 C                    -0.30425156     1.79247159    -0.89922960
 C                    -0.35506137     3.11337488    -0.40947776
 H                     0.49899808     3.76687514    -0.51582558
 C                    -1.51781909     3.58204363     0.23281975
 H                    -1.56675669     4.58953211     0.61729743
 C                    -2.63174549     2.73152233     0.39047916
 O                    -3.74700814     3.18578844     1.01745407
 H                    -4.41442580     2.50325373     1.08645426
 C                    -2.58195210     1.40983299    -0.10135810
 H                    -3.42470567     0.74662945     0.01848133
 C                    -1.42053002     0.94703801    -0.74809574
 H                    -1.38455414    -0.06924260    -1.11958525
 C                     2.67430387     1.80503334     0.22314903
 O                     2.43681906     1.93366634     1.41968090
 N                     3.52012984     2.62624246    -0.38451701
 H                     3.71744055     2.51989028    -1.36607072
 H                     3.95581898     3.34807547     0.16681056

 ==============================================================================
                                internuclear distances
 ------------------------------------------------------------------------------
       center one      |      center two      | atomic units |  angstroms
 ------------------------------------------------------------------------------
    2 C                |   1 H                |     2.05844  |     1.08928
    3 H                |   2 C                |     2.05750  |     1.08878
    4 H                |   2 C                |     2.05639  |     1.08819
    5 C                |   2 C                |     2.85211  |     1.50927
    6 O                |   5 C                |     2.31518  |     1.22514
    7 N                |   5 C                |     2.51547  |     1.33113
    8 H                |   7 N                |     1.90075  |     1.00583
    9 C                |   7 N                |     2.76511  |     1.46323
   10 H                |   9 C                |     2.06372  |     1.09208
   11 C                |   9 C                |     2.89777  |     1.53343
   12 H                |  11 C                |     2.06164  |     1.09097
   13 H                |  11 C                |     2.06302  |     1.09171
   14 H                |  11 C                |     2.06041  |     1.09032
   15 C                |   9 C                |     2.91370  |     1.54186
   16 O                |  15 C                |     2.32602  |     1.23087
   17 N                |  15 C                |     2.52090  |     1.33400
   18 H                |  17 N                |     1.90780  |     1.00956
   19 C                |  17 N                |     2.77074  |     1.46622
   20 H                |  19 C                |     2.06149  |     1.09090
   21 C                |  19 C                |     2.91064  |     1.54024
   22 H                |  21 C                |     2.06022  |     1.09022
   23 H                |  21 C                |     2.06073  |     1.09049
   24 C                |  21 C                |     2.87264  |     1.52014
   25 C                |  24 C                |     2.66393  |     1.40969
   26 H                |  25 C                |     2.04212  |     1.08064
   27 C                |  25 C                |     2.66190  |     1.40862
   28 H                |  27 C                |     2.03990  |     1.07947
   29 C                |  27 C                |     2.66517  |     1.41035
   30 O                |  29 C                |     2.56562  |     1.35767
   31 H                |  30 O                |     1.80868  |     0.95711
   32 C                |  29 C                |     2.66662  |     1.41112
   33 H                |  32 C                |     2.03918  |     1.07909
   34 C                |  24 C                |     2.66155  |     1.40843
   34 C                |  32 C                |     2.65999  |     1.40760
   35 H                |  34 C                |     2.04591  |     1.08265
   36 C                |  19 C                |     2.90608  |     1.53783
   37 O                |  36 C                |     2.31800  |     1.22664
   38 N                |  36 C                |     2.50634  |     1.32630
   39 H                |  38 N                |     1.90262  |     1.00682
   40 H                |  38 N                |     1.90369  |     1.00739
 ------------------------------------------------------------------------------
                         number of included internuclear distances:         40
 ==============================================================================



 ==============================================================================
                                 internuclear angles
 ------------------------------------------------------------------------------
        center 1       |       center 2       |       center 3       |  degrees
 ------------------------------------------------------------------------------
    1 H                |   2 C                |   3 H                |   109.54
    1 H                |   2 C                |   4 H                |   109.67
    1 H                |   2 C                |   5 C                |   108.90
    3 H                |   2 C                |   4 H                |   110.04
    3 H                |   2 C                |   5 C                |   109.20
    4 H                |   2 C                |   5 C                |   109.47
    2 C                |   5 C                |   6 O                |   120.16
    2 C                |   5 C                |   7 N                |   116.60
    6 O                |   5 C                |   7 N                |   123.24
    5 C                |   7 N                |   8 H                |   118.23
    5 C                |   7 N                |   9 C                |   123.45
    8 H                |   7 N                |   9 C                |   117.61
    7 N                |   9 C                |  10 H                |   108.45
    7 N                |   9 C                |  11 C                |   108.79
    7 N                |   9 C                |  15 C                |   111.90
   10 H                |   9 C                |  11 C                |   108.14
   10 H                |   9 C                |  15 C                |   107.74
   11 C                |   9 C                |  15 C                |   111.69
    9 C                |  11 C                |  12 H                |   109.95
    9 C                |  11 C                |  13 H                |   109.64
    9 C                |  11 C                |  14 H                |   109.92
   12 H                |  11 C                |  13 H                |   108.93
   12 H                |  11 C                |  14 H                |   109.47
   13 H                |  11 C                |  14 H                |   108.89
    9 C                |  15 C                |  16 O                |   120.93
    9 C                |  15 C                |  17 N                |   116.90
   16 O                |  15 C                |  17 N                |   122.12
   15 C                |  17 N                |  18 H                |   118.85
   15 C                |  17 N                |  19 C                |   125.14
   18 H                |  17 N                |  19 C                |   115.99
   17 N                |  19 C                |  20 H                |   109.02
   17 N                |  19 C                |  21 C                |   109.63
   17 N                |  19 C                |  36 C                |   110.81
   20 H                |  19 C                |  21 C                |   108.15
   20 H                |  19 C                |  36 C                |   107.55
   21 C                |  19 C                |  36 C                |   111.59
   19 C                |  21 C                |  22 H                |   109.32
   19 C                |  21 C                |  23 H                |   108.23
   19 C                |  21 C                |  24 C                |   115.00
   22 H                |  21 C                |  23 H                |   106.71
   22 H                |  21 C                |  24 C                |   108.89
   23 H                |  21 C                |  24 C                |   108.37
   21 C                |  24 C                |  25 C                |   120.56
   21 C                |  24 C                |  34 C                |   119.65
   25 C                |  24 C                |  34 C                |   119.78
   24 C                |  25 C                |  26 H                |   120.26
   24 C                |  25 C                |  27 C                |   120.00
   26 H                |  25 C                |  27 C                |   119.74
   25 C                |  27 C                |  28 H                |   120.69
   25 C                |  27 C                |  29 C                |   120.15
   28 H                |  27 C                |  29 C                |   119.16
   27 C                |  29 C                |  30 O                |   119.91
   27 C                |  29 C                |  32 C                |   119.87
   30 O                |  29 C                |  32 C                |   120.22
   29 C                |  30 O                |  31 H                |   111.56
   29 C                |  32 C                |  33 H                |   120.62
   29 C                |  32 C                |  34 C                |   119.82
   33 H                |  32 C                |  34 C                |   119.56
   24 C                |  34 C                |  32 C                |   120.39
   24 C                |  34 C                |  35 H                |   120.02
   32 C                |  34 C                |  35 H                |   119.58
   19 C                |  36 C                |  37 O                |   121.56
   19 C                |  36 C                |  38 N                |   118.08
   37 O                |  36 C                |  38 N                |   120.36
   36 C                |  38 N                |  39 H                |   120.41
   36 C                |  38 N                |  40 H                |   117.95
   39 H                |  38 N                |  40 H                |   121.63
 ------------------------------------------------------------------------------
                            number of included internuclear angles:         67
 ==============================================================================



  library name resolved from: environment
  library file name is: </opt/rit/el9/20230413/app/linux-rhel9-x86_64_v3/gcc-11.2.1/nwchem-7.2.0-oxtctbuhfuzyfaoziquq6bki22grib3g/share/nwchem/libraries/>
  


 Summary of "ao basis" -> "" (cartesian)
 ------------------------------------------------------------------------------
       Tag                 Description            Shells   Functions and Types
 ---------------- ------------------------------  ------  ---------------------
 *                        aug-cc-pvdz                 on all atoms 


                      Basis "ao basis" -> "ao basis" (cartesian)
                      -----
  H (Hydrogen)
  ------------
            Exponent  Coefficients 
       -------------- ---------------------------------------------------------
  1 S  1.30100000E+01  0.019685
  1 S  1.96200000E+00  0.137977
  1 S  4.44600000E-01  0.478148

  2 S  1.22000000E-01  1.000000

  3 S  2.97400000E-02  1.000000

  4 P  7.27000000E-01  1.000000

  5 P  1.41000000E-01  1.000000

  C (Carbon)
  ----------
            Exponent  Coefficients 
       -------------- ---------------------------------------------------------
  1 S  6.66500000E+03  0.000692
  1 S  1.00000000E+03  0.005329
  1 S  2.28000000E+02  0.027077
  1 S  6.47100000E+01  0.101718
  1 S  2.10600000E+01  0.274740
  1 S  7.49500000E+00  0.448564
  1 S  2.79700000E+00  0.285074
  1 S  5.21500000E-01  0.015204

  2 S  6.66500000E+03 -0.000146
  2 S  1.00000000E+03 -0.001154
  2 S  2.28000000E+02 -0.005725
  2 S  6.47100000E+01 -0.023312
  2 S  2.10600000E+01 -0.063955
  2 S  7.49500000E+00 -0.149981
  2 S  2.79700000E+00 -0.127262
  2 S  5.21500000E-01  0.544529

  3 S  1.59600000E-01  1.000000

  4 S  4.69000000E-02  1.000000

  5 P  9.43900000E+00  0.038109
  5 P  2.00200000E+00  0.209480
  5 P  5.45600000E-01  0.508557

  6 P  1.51700000E-01  1.000000

  7 P  4.04100000E-02  1.000000

  8 D  5.50000000E-01  1.000000

  9 D  1.51000000E-01  1.000000

  O (Oxygen)
  ----------
            Exponent  Coefficients 
       -------------- ---------------------------------------------------------
  1 S  1.17200000E+04  0.000710
  1 S  1.75900000E+03  0.005470
  1 S  4.00800000E+02  0.027837
  1 S  1.13700000E+02  0.104800
  1 S  3.70300000E+01  0.283062
  1 S  1.32700000E+01  0.448719
  1 S  5.02500000E+00  0.270952
  1 S  1.01300000E+00  0.015458

  2 S  1.17200000E+04 -0.000160
  2 S  1.75900000E+03 -0.001263
  2 S  4.00800000E+02 -0.006267
  2 S  1.13700000E+02 -0.025716
  2 S  3.70300000E+01 -0.070924
  2 S  1.32700000E+01 -0.165411
  2 S  5.02500000E+00 -0.116955
  2 S  1.01300000E+00  0.557368

  3 S  3.02300000E-01  1.000000

  4 S  7.89600000E-02  1.000000

  5 P  1.77000000E+01  0.043018
  5 P  3.85400000E+00  0.228913
  5 P  1.04600000E+00  0.508728

  6 P  2.75300000E-01  1.000000

  7 P  6.85600000E-02  1.000000

  8 D  1.18500000E+00  1.000000

  9 D  3.32000000E-01  1.000000

  N (Nitrogen)
  ------------
            Exponent  Coefficients 
       -------------- ---------------------------------------------------------
  1 S  9.04600000E+03  0.000700
  1 S  1.35700000E+03  0.005389
  1 S  3.09300000E+02  0.027406
  1 S  8.77300000E+01  0.103207
  1 S  2.85600000E+01  0.278723
  1 S  1.02100000E+01  0.448540
  1 S  3.83800000E+00  0.278238
  1 S  7.46600000E-01  0.015440

  2 S  9.04600000E+03 -0.000153
  2 S  1.35700000E+03 -0.001208
  2 S  3.09300000E+02 -0.005992
  2 S  8.77300000E+01 -0.024544
  2 S  2.85600000E+01 -0.067459
  2 S  1.02100000E+01 -0.158078
  2 S  3.83800000E+00 -0.121831
  2 S  7.46600000E-01  0.549003

  3 S  2.24800000E-01  1.000000

  4 S  6.12400000E-02  1.000000

  5 P  1.35500000E+01  0.039919
  5 P  2.91700000E+00  0.217169
  5 P  7.97300000E-01  0.510319

  6 P  2.18500000E-01  1.000000

  7 P  5.61100000E-02  1.000000

  8 D  8.17000000E-01  1.000000

  9 D  2.30000000E-01  1.000000



 Summary of "ao basis" -> "ao basis" (cartesian)
 ------------------------------------------------------------------------------
       Tag                 Description            Shells   Functions and Types
 ---------------- ------------------------------  ------  ---------------------
 H                        aug-cc-pvdz                5        9   3s2p
 C                        aug-cc-pvdz                9       25   4s3p2d
 O                        aug-cc-pvdz                9       25   4s3p2d
 N                        aug-cc-pvdz                9       25   4s3p2d


                                 NWChem SCF Module
                                 -----------------



  ao basis        = "ao basis"
  functions       =   696
  atoms           =    40
  closed shells   =    78
  open shells     =     0
  charge          =   0.00
  wavefunction    = RHF 
  input vectors   = atomic
  output vectors  = ./ALA_TYR_5.movecs
  use symmetry    = F
  symmetry adapt  = F


 Summary of "ao basis" -> "ao basis" (cartesian)
 ------------------------------------------------------------------------------
       Tag                 Description            Shells   Functions and Types
 ---------------- ------------------------------  ------  ---------------------
 H                        aug-cc-pvdz                5        9   3s2p
 C                        aug-cc-pvdz                9       25   4s3p2d
 O                        aug-cc-pvdz                9       25   4s3p2d
 N                        aug-cc-pvdz                9       25   4s3p2d



 Forming initial guess at       0.6s


 !! The overlap matrix has  14 vectors deemed linearly dependent with
    eigenvalues:
 9.41D-07 1.39D-06 1.55D-06 2.02D-06 2.27D-06 2.85D-06 4.43D-06 5.05D-06
 5.82D-06 6.31D-06 7.00D-06 8.36D-06 9.04D-06 9.78D-06


      Superposition of Atomic Density Guess
      -------------------------------------

 Sum of atomic energies:        -998.80105847

      Non-variational initial energy
      ------------------------------

 Total energy =   -1012.630281
 1-e energy   =   -4782.261346
 2-e energy   =    2046.135981
 HOMO         =      -0.254697
 LUMO         =      -0.024093


 Starting SCF solution at     831.8s



 ----------------------------------------------
         Quadratically convergent ROHF

 Convergence threshold     :          1.000E-04
 Maximum no. of iterations :           30
 Final Fock-matrix accuracy:          1.000E-10
 ----------------------------------------------


              iter       energy          gnorm     gmax       time
             ----- ------------------- --------- --------- --------
                 1    -1003.7760849401  2.59D+00  2.01D-01   1731.2
                 2    -1004.1465218298  9.28D-01  5.29D-02   3867.0
                 3    -1004.2198787012  6.59D-02  3.75D-03   7218.0
                 4    -1004.2205164328  4.02D-03  4.20D-04  11660.1
                 5    -1004.2205195604  1.02D-05  1.67D-06  20450.1


       Final RHF  results 
       ------------------ 

         Total SCF energy =  -1004.220519560375
      One-electron energy =  -4797.991217366299
      Two-electron energy =   2070.275614258969
 Nuclear repulsion energy =   1723.495083546955

        Time for solution =  19621.2s


             Final eigenvalues
             -----------------

              1      
    1  -20.5911
    2  -20.5363
    3  -20.5254
    4  -20.5241
    5  -15.6108
    6  -15.5990
    7  -15.5971
    8  -11.3699
    9  -11.3572
   10  -11.3546
   11  -11.3044
   12  -11.3023
   13  -11.2993
   14  -11.2484
   15  -11.2457
   16  -11.2429
   17  -11.2415
   18  -11.2366
   19  -11.2351
   20  -11.2315
   21  -11.2305
   22   -1.4048
   23   -1.3990
   24   -1.3888
   25   -1.3792
   26   -1.2469
   27   -1.2429
   28   -1.2372
   29   -1.1391
   30   -1.0770
   31   -1.0523
   32   -1.0072
   33   -0.9975
   34   -0.9898
   35   -0.9104
   36   -0.8886
   37   -0.8376
   38   -0.8266
   39   -0.8092
   40   -0.7993
   41   -0.7786
   42   -0.7605
   43   -0.7292
   44   -0.7210
   45   -0.6817
   46   -0.6756
   47   -0.6697
   48   -0.6646
   49   -0.6464
   50   -0.6386
   51   -0.6263
   52   -0.6224
   53   -0.6083
   54   -0.6044
   55   -0.5899
   56   -0.5837
   57   -0.5816
   58   -0.5770
   59   -0.5735
   60   -0.5704
   61   -0.5597
   62   -0.5530
   63   -0.5439
   64   -0.5374
   65   -0.5269
   66   -0.5183
   67   -0.5078
   68   -0.4847
   69   -0.4786
   70   -0.4620
   71   -0.4340
   72   -0.4279
   73   -0.4261
   74   -0.4220
   75   -0.3985
   76   -0.3939
   77   -0.3273
   78   -0.2978
   79    0.0260
   80    0.0308
   81    0.0412
   82    0.0431
   83    0.0470
   84    0.0506
   85    0.0521
   86    0.0566
   87    0.0630
   88    0.0655

                       ROHF Final Molecular Orbital Analysis
                       -------------------------------------

 Vector   22  Occ=2.000000D+00  E=-1.404826D+00
              MO Center= -3.6D+00,  3.0D+00,  9.1D-01, r^2= 6.0D-01
   Bfn.  Coefficient  Atom+Function         Bfn.  Coefficient  Atom+Function  
  ----- ------------  ---------------      ----- ------------  ---------------
   504      0.460788  30 O  s               503      0.409604  30 O  s         
   480     -0.285738  29 C  s               527      0.194793  31 H  s         

 Vector   23  Occ=2.000000D+00  E=-1.398970D+00
              MO Center=  2.5D+00,  1.7D+00,  7.5D-01, r^2= 2.2D+00
   Bfn.  Coefficient  Atom+Function         Bfn.  Coefficient  Atom+Function  
  ----- ------------  ---------------      ----- ------------  ---------------
   631      0.358039  37 O  s               630      0.332964  37 O  s         
   605      0.239324  36 C  s         

 Vector   24  Occ=2.000000D+00  E=-1.388775D+00
              MO Center= -4.7D-01, -2.2D+00, -1.8D-01, r^2= 4.7D+00
   Bfn.  Coefficient  Atom+Function         Bfn.  Coefficient  Atom+Function  
  ----- ------------  ---------------      ----- ------------  ---------------
    80      0.276883   6 O  s                79      0.271996   6 O  s         
   250      0.209356  16 O  s                54      0.198187   5 C  s         
   249      0.190361  16 O  s         

 Vector   25  Occ=2.000000D+00  E=-1.379166D+00
              MO Center=  3.5D-01, -2.0D+00, -4.4D-01, r^2= 4.2D+00
   Bfn.  Coefficient  Atom+Function         Bfn.  Coefficient  Atom+Function  
  ----- ------------  ---------------      ----- ------------  ---------------
   250      0.296688  16 O  s               249      0.279123  16 O  s         
    80     -0.218059   6 O  s                79     -0.216764   6 O  s         
   224      0.194097  15 C  s         

 Vector   26  Occ=2.000000D+00  E=-1.246895D+00
              MO Center= -4.3D-01, -3.2D+00,  2.7D-01, r^2= 1.9D+00
   Bfn.  Coefficient  Atom+Function         Bfn.  Coefficient  Atom+Function  
  ----- ------------  ---------------      ----- ------------  ---------------
   105      0.421920   7 N  s               104      0.338916   7 N  s         
    80     -0.214563   6 O  s                79     -0.183448   6 O  s         
    57      0.160262   5 C  px              128      0.155957   8 H  s         

 Vector   27  Occ=2.000000D+00  E=-1.242923D+00
              MO Center=  1.5D+00, -3.5D-01, -2.1D-02, r^2= 2.6D+00
   Bfn.  Coefficient  Atom+Function         Bfn.  Coefficient  Atom+Function  
  ----- ------------  ---------------      ----- ------------  ---------------
   275      0.389997  17 N  s               274      0.325580  17 N  s         
   250     -0.207629  16 O  s               249     -0.170262  16 O  s         
   308      0.152284  19 C  s         

 Vector   28  Occ=2.000000D+00  E=-1.237197D+00
              MO Center=  3.1D+00,  2.2D+00, -1.1D-01, r^2= 2.1D+00
   Bfn.  Coefficient  Atom+Function         Bfn.  Coefficient  Atom+Function  
  ----- ------------  ---------------      ----- ------------  ---------------
   656      0.388606  38 N  s               655      0.361538  38 N  s         
   631     -0.205468  37 O  s               630     -0.172947  37 O  s         
   679      0.167232  39 H  s               610     -0.161215  36 C  pz        
   688      0.153402  40 H  s         

 Vector   29  Occ=2.000000D+00  E=-1.139104D+00
              MO Center= -1.0D+00,  2.1D+00, -4.2D-01, r^2= 3.0D+00
   Bfn.  Coefficient  Atom+Function         Bfn.  Coefficient  Atom+Function  
  ----- ------------  ---------------      ----- ------------  ---------------
   385      0.209249  24 C  s               410      0.179263  25 C  s         
   571      0.172854  34 C  s         

 Vector   30  Occ=2.000000D+00  E=-1.076960D+00
              MO Center=  5.7D-01, -7.5D-01,  7.5D-02, r^2= 9.1D+00
   Bfn.  Coefficient  Atom+Function         Bfn.  Coefficient  Atom+Function  
  ----- ------------  ---------------      ----- ------------  ---------------
   138      0.175781   9 C  s               308     -0.171785  19 C  s         
   342     -0.153602  21 C  s         

 Vector   31  Occ=2.000000D+00  E=-1.052309D+00
              MO Center=  1.6D-01, -9.0D-01,  8.3D-02, r^2= 1.1D+01
   Bfn.  Coefficient  Atom+Function         Bfn.  Coefficient  Atom+Function  
  ----- ------------  ---------------      ----- ------------  ---------------
   309      0.195569  19 C  s               342      0.171705  21 C  s         
    12     -0.170282   2 C  s               172      0.167503  11 C  s         
   138      0.162999   9 C  s         

 Vector   32  Occ=2.000000D+00  E=-1.007224D+00
              MO Center= -1.5D+00,  2.3D+00, -2.4D-01, r^2= 3.0D+00
   Bfn.  Coefficient  Atom+Function         Bfn.  Coefficient  Atom+Function  
  ----- ------------  ---------------      ----- ------------  ---------------
   446      0.278438  27 C  s               573     -0.243772  34 C  s         
   412      0.228405  25 C  s               444     -0.219381  27 C  s         
   571      0.216877  34 C  s               537      0.210351  32 C  s         
   410     -0.200552  25 C  s               469     -0.159588  28 H  s         
   596      0.150441  35 H  s         

 Vector   33  Occ=2.000000D+00  E=-9.974506D-01
              MO Center= -1.0D+00, -1.5D+00, -4.0D-01, r^2= 1.4D+01
   Bfn.  Coefficient  Atom+Function         Bfn.  Coefficient  Atom+Function  
  ----- ------------  ---------------      ----- ------------  ---------------
    11      0.251836   2 C  s               387     -0.150604  24 C  s         

 Vector   34  Occ=2.000000D+00  E=-9.898116D-01
              MO Center= -3.7D-01, -1.1D+00, -1.2D-02, r^2= 1.4D+01
   Bfn.  Coefficient  Atom+Function         Bfn.  Coefficient  Atom+Function  
  ----- ------------  ---------------      ----- ------------  ---------------
    11      0.201415   2 C  s               146      0.166594   9 C  pz        
   172      0.164604  11 C  s         

 Vector   35  Occ=2.000000D+00  E=-9.103587D-01
              MO Center=  4.3D-01,  2.8D-01, -1.3D-01, r^2= 1.0D+01
   Bfn.  Coefficient  Atom+Function         Bfn.  Coefficient  Atom+Function  
  ----- ------------  ---------------      ----- ------------  ---------------
   139      0.260364   9 C  s               316     -0.222586  19 C  pz        
   342      0.214640  21 C  s               146     -0.210274   9 C  pz        
   225     -0.174495  15 C  s         

 Vector   36  Occ=2.000000D+00  E=-8.885654D-01
              MO Center=  1.1D+00, -9.1D-01,  4.7D-01, r^2= 1.1D+01
   Bfn.  Coefficient  Atom+Function         Bfn.  Coefficient  Atom+Function  
  ----- ------------  ---------------      ----- ------------  ---------------
   139      0.221779   9 C  s               146     -0.211536   9 C  pz        
   172     -0.190209  11 C  s               138      0.166851   9 C  s         
   316      0.160348  19 C  pz        

 Vector   37  Occ=2.000000D+00  E=-8.376449D-01
              MO Center= -1.6D+00,  2.1D+00, -1.8D-01, r^2= 4.8D+00
   Bfn.  Coefficient  Atom+Function         Bfn.  Coefficient  Atom+Function  
  ----- ------------  ---------------      ----- ------------  ---------------
   539      0.377055  32 C  s               412      0.237985  25 C  s         
   596      0.215249  35 H  s               482      0.209734  29 C  py        
   562     -0.210483  33 H  s               435     -0.185314  26 H  s         
   537     -0.176849  32 C  s               556      0.175928  32 C  dxy       
   446     -0.171707  27 C  s               538     -0.172418  32 C  s         

 Vector   38  Occ=2.000000D+00  E=-8.266016D-01
              MO Center=  1.6D+00,  4.3D-02,  4.4D-02, r^2= 1.2D+01
   Bfn.  Coefficient  Atom+Function         Bfn.  Coefficient  Atom+Function  
  ----- ------------  ---------------      ----- ------------  ---------------
   605     -0.177346  36 C  s               278      0.173842  17 N  py        
   658      0.174006  38 N  px              659      0.171601  38 N  py        
   107      0.169343   7 N  px              309     -0.155467  19 C  s         
   225     -0.151302  15 C  s               688      0.151491  40 H  s         

 Vector   39  Occ=2.000000D+00  E=-8.092045D-01
              MO Center= -4.7D-01,  1.1D+00, -4.1D-02, r^2= 1.1D+01
   Bfn.  Coefficient  Atom+Function         Bfn.  Coefficient  Atom+Function  
  ----- ------------  ---------------      ----- ------------  ---------------
   446      0.228488  27 C  s               387     -0.167900  24 C  s         
   506      0.163483  30 O  px              480     -0.152960  29 C  s         

 Vector   40  Occ=2.000000D+00  E=-7.993191D-01
              MO Center=  1.3D-01, -1.9D+00,  1.6D-01, r^2= 9.6D+00
   Bfn.  Coefficient  Atom+Function         Bfn.  Coefficient  Atom+Function  
  ----- ------------  ---------------      ----- ------------  ---------------
   128      0.261079   8 H  s               107      0.240782   7 N  px        
   105      0.209136   7 N  s               108     -0.182720   7 N  py        
   139     -0.182324   9 C  s                54     -0.163466   5 C  s         
    55     -0.162241   5 C  s         

 Vector   41  Occ=2.000000D+00  E=-7.786414D-01
              MO Center=  7.4D-01,  8.8D-01, -9.4D-02, r^2= 8.4D+00
   Bfn.  Coefficient  Atom+Function         Bfn.  Coefficient  Atom+Function  
  ----- ------------  ---------------      ----- ------------  ---------------
   298      0.237532  18 H  s               387      0.231206  24 C  s         
   316     -0.223791  19 C  pz              275      0.214398  17 N  s         
   446     -0.207324  27 C  s               480      0.207500  29 C  s         
   225     -0.203717  15 C  s               279      0.201194  17 N  pz        
   333     -0.178982  20 H  s               607     -0.164952  36 C  s         

 Vector   42  Occ=2.000000D+00  E=-7.605398D-01
              MO Center=  2.5D+00,  1.2D+00, -1.8D-01, r^2= 7.7D+00
   Bfn.  Coefficient  Atom+Function         Bfn.  Coefficient  Atom+Function  
  ----- ------------  ---------------      ----- ------------  ---------------
   660      0.324920  38 N  pz              679     -0.275904  39 H  s         
   688      0.195374  40 H  s               279     -0.153310  17 N  pz        

 Vector   43  Occ=2.000000D+00  E=-7.291872D-01
              MO Center= -2.3D+00,  2.5D+00,  1.8D-01, r^2= 4.9D+00
   Bfn.  Coefficient  Atom+Function         Bfn.  Coefficient  Atom+Function  
  ----- ------------  ---------------      ----- ------------  ---------------
   539      0.387706  32 C  s               506     -0.294027  30 O  px        
   527      0.244761  31 H  s               412      0.230966  25 C  s         
   387     -0.220651  24 C  s               435     -0.199224  26 H  s         
   445      0.198785  27 C  s               481      0.188868  29 C  px        
   434     -0.185445  26 H  s               480     -0.163757  29 C  s         

 Vector   44  Occ=2.000000D+00  E=-7.209506D-01
              MO Center=  1.4D+00, -9.0D-01,  1.1D-01, r^2= 1.1D+01
   Bfn.  Coefficient  Atom+Function         Bfn.  Coefficient  Atom+Function  
  ----- ------------  ---------------      ----- ------------  ---------------
   225      0.319305  15 C  s               139     -0.248835   9 C  s         
   145     -0.216075   9 C  py               55      0.212967   5 C  s         
   688     -0.213440  40 H  s               228      0.200247  15 C  py        
   144     -0.183865   9 C  px              141     -0.174771   9 C  px        
   659     -0.172737  38 N  py               12     -0.159643   2 C  s         

 Vector   45  Occ=2.000000D+00  E=-6.816798D-01
              MO Center=  4.0D-01, -1.4D+00, -5.8D-02, r^2= 1.0D+01
   Bfn.  Coefficient  Atom+Function         Bfn.  Coefficient  Atom+Function  
  ----- ------------  ---------------      ----- ------------  ---------------
   174      0.193400  11 C  s               387      0.187401  24 C  s         
   607     -0.178725  36 C  s               108      0.177131   7 N  py        
   254      0.150417  16 O  pz        

 Vector   46  Occ=2.000000D+00  E=-6.756408D-01
              MO Center= -6.3D-01, -1.7D+00, -1.1D-01, r^2= 1.1D+01
   Bfn.  Coefficient  Atom+Function         Bfn.  Coefficient  Atom+Function  
  ----- ------------  ---------------      ----- ------------  ---------------
    83      0.268028   6 O  py               80      0.221477   6 O  s         
    12     -0.207412   2 C  s                57      0.194864   5 C  px        
    18     -0.179169   2 C  py               15     -0.175329   2 C  py        

 Vector   47  Occ=2.000000D+00  E=-6.697040D-01
              MO Center=  1.1D+00, -1.0D-01,  3.5D-01, r^2= 1.1D+01
   Bfn.  Coefficient  Atom+Function         Bfn.  Coefficient  Atom+Function  
  ----- ------------  ---------------      ----- ------------  ---------------
   635      0.221135  37 O  pz              631      0.179148  37 O  s         
   608      0.160295  36 C  px              275      0.157925  17 N  s         
   231     -0.154258  15 C  py        

 Vector   48  Occ=2.000000D+00  E=-6.645620D-01
              MO Center= -1.3D+00,  8.1D-01, -1.5D-02, r^2= 1.1D+01
   Bfn.  Coefficient  Atom+Function         Bfn.  Coefficient  Atom+Function  
  ----- ------------  ---------------      ----- ------------  ---------------
    56      0.240814   5 C  s               507      0.212085  30 O  py        
   139     -0.182930   9 C  s               574     -0.171532  34 C  px        
   412      0.153612  25 C  s               510      0.150120  30 O  py        

 Vector   49  Occ=2.000000D+00  E=-6.463980D-01
              MO Center=  8.7D-01,  4.2D-01, -1.9D-01, r^2= 9.0D+00
   Bfn.  Coefficient  Atom+Function         Bfn.  Coefficient  Atom+Function  
  ----- ------------  ---------------      ----- ------------  ---------------
   311     -0.223238  19 C  px              139      0.206082   9 C  s         
   347      0.172112  21 C  pz              387      0.150608  24 C  s         

 Vector   50  Occ=2.000000D+00  E=-6.385898D-01
              MO Center= -2.1D-01,  1.4D+00, -7.1D-02, r^2= 9.5D+00
   Bfn.  Coefficient  Atom+Function         Bfn.  Coefficient  Atom+Function  
  ----- ------------  ---------------      ----- ------------  ---------------
   387      0.210216  24 C  s               539     -0.205263  32 C  s         
   562      0.192350  33 H  s               561      0.186296  33 H  s         
   480      0.179219  29 C  s               226      0.176546  15 C  s         
   343      0.163965  21 C  s               277      0.154145  17 N  px        
   468      0.154730  28 H  s         

 Vector   51  Occ=2.000000D+00  E=-6.263433D-01
              MO Center=  9.7D-01,  1.1D+00, -3.6D-02, r^2= 9.7D+00
   Bfn.  Coefficient  Atom+Function         Bfn.  Coefficient  Atom+Function  
  ----- ------------  ---------------      ----- ------------  ---------------
   315      0.217454  19 C  py              635      0.209291  37 O  pz        
   610     -0.184027  36 C  pz              606     -0.168871  36 C  s         
   375     -0.158490  23 H  s               312      0.154132  19 C  py        
   347      0.152158  21 C  pz        

 Vector   52  Occ=2.000000D+00  E=-6.224190D-01
              MO Center= -5.0D-01, -2.7D+00, -4.5D-01, r^2= 9.1D+00
   Bfn.  Coefficient  Atom+Function         Bfn.  Coefficient  Atom+Function  
  ----- ------------  ---------------      ----- ------------  ---------------
   139      0.250648   9 C  s               254     -0.227643  16 O  pz        
   225     -0.224453  15 C  s                16     -0.203762   2 C  pz        
    44     -0.182527   4 H  s                59     -0.171498   5 C  pz        
   163     -0.170285  10 H  s                35      0.165998   3 H  s         
   250      0.158249  16 O  s         

 Vector   53  Occ=2.000000D+00  E=-6.083035D-01
              MO Center= -8.9D-02, -6.8D-01, -2.2D-01, r^2= 1.3D+01
   Bfn.  Coefficient  Atom+Function         Bfn.  Coefficient  Atom+Function  
  ----- ------------  ---------------      ----- ------------  ---------------
   596      0.178104  35 H  s               376     -0.175971  23 H  s         
   538     -0.173110  32 C  s               539      0.169978  32 C  s         
   254      0.164964  16 O  pz              635      0.152559  37 O  pz        

 Vector   54  Occ=2.000000D+00  E=-6.043729D-01
              MO Center=  5.0D-01, -4.0D-01,  2.1D-01, r^2= 1.2D+01
   Bfn.  Coefficient  Atom+Function         Bfn.  Coefficient  Atom+Function  
  ----- ------------  ---------------      ----- ------------  ---------------
   177      0.184900  11 C  pz              214      0.173001  14 H  s         
   252     -0.157023  16 O  px              539     -0.155304  32 C  s         

 Vector   55  Occ=2.000000D+00  E=-5.898652D-01
              MO Center=  2.1D-03, -9.0D-02, -1.3D-01, r^2= 1.3D+01
   Bfn.  Coefficient  Atom+Function         Bfn.  Coefficient  Atom+Function  
  ----- ------------  ---------------      ----- ------------  ---------------
   139      0.188223   9 C  s               575      0.173966  34 C  py        
   596     -0.171579  35 H  s         

 Vector   56  Occ=2.000000D+00  E=-5.837465D-01
              MO Center= -3.1D-01, -1.9D+00,  4.6D-01, r^2= 1.2D+01
   Bfn.  Coefficient  Atom+Function         Bfn.  Coefficient  Atom+Function  
  ----- ------------  ---------------      ----- ------------  ---------------
   205      0.217997  13 H  s                58      0.216041   5 C  py        
   176      0.181629  11 C  py              145      0.178188   9 C  py        
   412     -0.174631  25 C  s                83     -0.170923   6 O  py        
   163     -0.163027  10 H  s                14     -0.161533   2 C  px        
   206      0.160596  13 H  s                82      0.154324   6 O  px        

 Vector   57  Occ=2.000000D+00  E=-5.815744D-01
              MO Center= -3.2D+00,  2.9D+00,  7.5D-01, r^2= 2.6D+00
   Bfn.  Coefficient  Atom+Function         Bfn.  Coefficient  Atom+Function  
  ----- ------------  ---------------      ----- ------------  ---------------
   508      0.437178  30 O  pz              511      0.330829  30 O  pz        
   483      0.213079  29 C  pz              506      0.202174  30 O  px        
   507     -0.171723  30 O  py              509      0.152817  30 O  px        

 Vector   58  Occ=2.000000D+00  E=-5.769584D-01
              MO Center= -9.5D-01,  1.1D+00,  1.7D-02, r^2= 1.1D+01
   Bfn.  Coefficient  Atom+Function         Bfn.  Coefficient  Atom+Function  
  ----- ------------  ---------------      ----- ------------  ---------------
   446      0.245954  27 C  s               448     -0.217500  27 C  py        
   412      0.214878  25 C  s               469     -0.201706  28 H  s         
   596      0.200149  35 H  s               575     -0.198262  34 C  py        
   468     -0.195611  28 H  s               573     -0.195299  34 C  s         
   413     -0.191901  25 C  px              435     -0.181681  26 H  s         

 Vector   59  Occ=2.000000D+00  E=-5.735488D-01
              MO Center=  1.2D-02,  4.1D-01,  6.3D-02, r^2= 1.6D+01
   Bfn.  Coefficient  Atom+Function         Bfn.  Coefficient  Atom+Function  
  ----- ------------  ---------------      ----- ------------  ---------------
   507      0.194072  30 O  py              635      0.172822  37 O  pz        
   539     -0.171199  32 C  s         

 Vector   60  Occ=2.000000D+00  E=-5.704220D-01
              MO Center= -1.1D+00, -1.8D+00, -1.6D-01, r^2= 1.3D+01
   Bfn.  Coefficient  Atom+Function         Bfn.  Coefficient  Atom+Function  
  ----- ------------  ---------------      ----- ------------  ---------------
     2      0.222939   1 H  s                82     -0.209732   6 O  px        
     1      0.183952   1 H  s                15      0.182949   2 C  py        
    58     -0.171261   5 C  py               14     -0.165538   2 C  px        
    83      0.150406   6 O  py        

 Vector   61  Occ=2.000000D+00  E=-5.597070D-01
              MO Center=  2.5D-01,  1.0D+00, -1.2D-01, r^2= 1.2D+01
   Bfn.  Coefficient  Atom+Function         Bfn.  Coefficient  Atom+Function  
  ----- ------------  ---------------      ----- ------------  ---------------
   539      0.316463  32 C  s               333     -0.204803  20 H  s         
   507     -0.197385  30 O  py              435     -0.189835  26 H  s         
   412      0.177487  25 C  s               226     -0.165371  15 C  s         
   480     -0.160695  29 C  s               279     -0.156956  17 N  pz        
   366      0.156841  22 H  s               332     -0.152752  20 H  s         

 Vector   62  Occ=2.000000D+00  E=-5.529623D-01
              MO Center=  7.5D-01, -1.1D+00,  1.5D-01, r^2= 1.3D+01
   Bfn.  Coefficient  Atom+Function         Bfn.  Coefficient  Atom+Function  
  ----- ------------  ---------------      ----- ------------  ---------------
   177      0.192529  11 C  pz               16      0.151665   2 C  pz        
   214      0.152076  14 H  s         

 Vector   63  Occ=2.000000D+00  E=-5.438965D-01
              MO Center=  3.9D-01, -2.7D+00,  5.9D-01, r^2= 8.8D+00
   Bfn.  Coefficient  Atom+Function         Bfn.  Coefficient  Atom+Function  
  ----- ------------  ---------------      ----- ------------  ---------------
   206      0.245437  13 H  s               215     -0.227213  14 H  s         
   214     -0.217257  14 H  s               175      0.215085  11 C  px        
    55     -0.208720   5 C  s               163      0.204327  10 H  s         
   205      0.197106  13 H  s                 1     -0.193218   1 H  s         
    14      0.189374   2 C  px               12      0.186202   2 C  s         

 Vector   64  Occ=2.000000D+00  E=-5.374097D-01
              MO Center=  8.6D-01, -1.6D+00,  4.3D-01, r^2= 1.0D+01
   Bfn.  Coefficient  Atom+Function         Bfn.  Coefficient  Atom+Function  
  ----- ------------  ---------------      ----- ------------  ---------------
   196      0.225021  12 H  s               197      0.183822  12 H  s         
   142      0.170572   9 C  py              162      0.171180  10 H  s         
   206     -0.164202  13 H  s               347     -0.160192  21 C  pz        
   163      0.151716  10 H  s               176     -0.151139  11 C  py        

 Vector   65  Occ=2.000000D+00  E=-5.269487D-01
              MO Center= -2.3D-01,  1.4D+00, -4.7D-01, r^2= 9.4D+00
   Bfn.  Coefficient  Atom+Function         Bfn.  Coefficient  Atom+Function  
  ----- ------------  ---------------      ----- ------------  ---------------
   376      0.307977  23 H  s               367     -0.287958  22 H  s         
   346     -0.262867  21 C  py              375      0.244304  23 H  s         
   507     -0.206098  30 O  py              539      0.189475  32 C  s         
   366     -0.183296  22 H  s         

 Vector   66  Occ=2.000000D+00  E=-5.182508D-01
              MO Center= -6.4D-01, -2.9D+00,  1.7D-02, r^2= 7.0D+00
   Bfn.  Coefficient  Atom+Function         Bfn.  Coefficient  Atom+Function  
  ----- ------------  ---------------      ----- ------------  ---------------
    84      0.189685   6 O  pz               35      0.180276   3 H  s         
   109      0.179927   7 N  pz               82     -0.153264   6 O  px        
   253     -0.153631  16 O  py        

 Vector   67  Occ=2.000000D+00  E=-5.077638D-01
              MO Center=  3.0D-01, -1.9D+00,  1.4D-01, r^2= 7.6D+00
   Bfn.  Coefficient  Atom+Function         Bfn.  Coefficient  Atom+Function  
  ----- ------------  ---------------      ----- ------------  ---------------
   163      0.249702  10 H  s               141     -0.210763   9 C  px        
   252      0.203503  16 O  px              162      0.193624  10 H  s         
   309     -0.194182  19 C  s               174      0.186379  11 C  s         
   343      0.174102  21 C  s                56     -0.160063   5 C  s         
   255      0.159130  16 O  px              173     -0.154554  11 C  s         

 Vector   68  Occ=2.000000D+00  E=-4.846668D-01
              MO Center= -4.1D-01,  1.5D+00, -5.6D-01, r^2= 6.4D+00
   Bfn.  Coefficient  Atom+Function         Bfn.  Coefficient  Atom+Function  
  ----- ------------  ---------------      ----- ------------  ---------------
   388      0.263565  24 C  px              562     -0.244995  33 H  s         
   445      0.235442  27 C  s               435     -0.224849  26 H  s         
   345     -0.218083  21 C  px              446     -0.218326  27 C  s         
   485     -0.209957  29 C  py              574     -0.207650  34 C  px        
   348     -0.187981  21 C  px              561     -0.176741  33 H  s         

 Vector   69  Occ=2.000000D+00  E=-4.785979D-01
              MO Center= -9.0D-01,  1.9D+00, -3.4D-01, r^2= 6.8D+00
   Bfn.  Coefficient  Atom+Function         Bfn.  Coefficient  Atom+Function  
  ----- ------------  ---------------      ----- ------------  ---------------
   596      0.326996  35 H  s               539      0.228516  32 C  s         
   392      0.216896  24 C  py              389      0.214617  24 C  py        
   469      0.214870  28 H  s               414     -0.213057  25 C  py        
   482     -0.199496  29 C  py              595      0.184373  35 H  s         
   485     -0.182219  29 C  py              541      0.183060  32 C  py        

 Vector   70  Occ=2.000000D+00  E=-4.620423D-01
              MO Center= -1.3D+00,  2.2D+00, -1.9D-01, r^2= 5.1D+00
   Bfn.  Coefficient  Atom+Function         Bfn.  Coefficient  Atom+Function  
  ----- ------------  ---------------      ----- ------------  ---------------
   508      0.226908  30 O  pz              415     -0.192404  25 C  pz        
   390     -0.184411  24 C  pz              576     -0.179510  34 C  pz        
   511      0.174891  30 O  pz               56      0.164529   5 C  s         
   449     -0.159302  27 C  pz              542     -0.157761  32 C  pz        

 Vector   71  Occ=2.000000D+00  E=-4.339685D-01
              MO Center=  1.8D+00,  7.2D-01,  4.0D-01, r^2= 7.1D+00
   Bfn.  Coefficient  Atom+Function         Bfn.  Coefficient  Atom+Function  
  ----- ------------  ---------------      ----- ------------  ---------------
   634      0.361898  37 O  py              637      0.290019  37 O  py        
   633      0.257338  37 O  px              309     -0.225354  19 C  s         
   636      0.208946  37 O  px              253     -0.179188  16 O  py        
   376      0.178438  23 H  s               624      0.172023  36 C  dxy       
   656     -0.157920  38 N  s         

 Vector   72  Occ=2.000000D+00  E=-4.278625D-01
              MO Center=  1.4D+00, -8.5D-01, -1.3D-01, r^2= 8.1D+00
   Bfn.  Coefficient  Atom+Function         Bfn.  Coefficient  Atom+Function  
  ----- ------------  ---------------      ----- ------------  ---------------
   253      0.371220  16 O  py              309     -0.319180  19 C  s         
   256      0.303029  16 O  py              633      0.266683  37 O  px        
   636      0.216686  37 O  px              139      0.212290   9 C  s         
   225     -0.199146  15 C  s               276      0.192258  17 N  s         
   606      0.192843  36 C  s               612     -0.191370  36 C  py        

 Vector   73  Occ=2.000000D+00  E=-4.260599D-01
              MO Center=  2.7D+00,  1.8D+00,  3.0D-01, r^2= 4.9D+00
   Bfn.  Coefficient  Atom+Function         Bfn.  Coefficient  Atom+Function  
  ----- ------------  ---------------      ----- ------------  ---------------
   658      0.319697  38 N  px              634      0.306821  37 O  py        
   661      0.293559  38 N  px              637      0.243914  37 O  py        
   659     -0.239470  38 N  py              633     -0.230732  37 O  px        
   662     -0.191751  38 N  py              636     -0.180389  37 O  px        
    56      0.165323   5 C  s         

 Vector   74  Occ=2.000000D+00  E=-4.220217D-01
              MO Center= -1.8D+00, -2.8D+00, -1.7D-01, r^2= 2.4D+00
   Bfn.  Coefficient  Atom+Function         Bfn.  Coefficient  Atom+Function  
  ----- ------------  ---------------      ----- ------------  ---------------
    82      0.370485   6 O  px               84      0.312196   6 O  pz        
    85      0.300549   6 O  px               83      0.244951   6 O  py        
    87      0.244967   6 O  pz               13     -0.221887   2 C  s         
    15      0.202979   2 C  py              105     -0.199543   7 N  s         
    18      0.195887   2 C  py               86      0.185363   6 O  py        

 Vector   75  Occ=2.000000D+00  E=-3.985283D-01
              MO Center=  3.4D-02, -2.3D+00,  4.0D-02, r^2= 4.8D+00
   Bfn.  Coefficient  Atom+Function         Bfn.  Coefficient  Atom+Function  
  ----- ------------  ---------------      ----- ------------  ---------------
   109      0.317856   7 N  pz              112      0.279313   7 N  pz        
   252      0.204363  16 O  px               84     -0.200737   6 O  pz        
   139     -0.191069   9 C  s               280     -0.163367  17 N  px        
   255      0.161888  16 O  px              277     -0.159860  17 N  px        
    82      0.157461   6 O  px               87     -0.154604   6 O  pz        

 Vector   76  Occ=2.000000D+00  E=-3.938977D-01
              MO Center=  1.1D+00, -1.0D+00, -2.5D-01, r^2= 4.6D+00
   Bfn.  Coefficient  Atom+Function         Bfn.  Coefficient  Atom+Function  
  ----- ------------  ---------------      ----- ------------  ---------------
   277      0.357661  17 N  px              280      0.320722  17 N  px        
   252     -0.243242  16 O  px              276      0.232083  17 N  s         
   255     -0.192628  16 O  px              254     -0.171901  16 O  pz        
   309     -0.168521  19 C  s               109      0.166254   7 N  pz        
   282      0.160075  17 N  pz              279      0.156066  17 N  pz        

 Vector   77  Occ=2.000000D+00  E=-3.272961D-01
              MO Center= -1.5D+00,  2.2D+00, -2.5D-01, r^2= 3.4D+00
   Bfn.  Coefficient  Atom+Function         Bfn.  Coefficient  Atom+Function  
  ----- ------------  ---------------      ----- ------------  ---------------
   542     -0.255999  32 C  pz              415      0.243211  25 C  pz        
   449      0.241661  27 C  pz              576     -0.230809  34 C  pz        
   545     -0.205831  32 C  pz              452      0.188373  27 C  pz        
   418      0.179154  25 C  pz              579     -0.178300  34 C  pz        
   276      0.165665  17 N  s         

 Vector   78  Occ=2.000000D+00  E=-2.978210D-01
              MO Center= -1.5D+00,  2.3D+00, -2.0D-01, r^2= 4.0D+00
   Bfn.  Coefficient  Atom+Function         Bfn.  Coefficient  Atom+Function  
  ----- ------------  ---------------      ----- ------------  ---------------
   390      0.280878  24 C  pz              483     -0.250387  29 C  pz        
   393      0.243626  24 C  pz              309     -0.239498  19 C  s         
   508      0.192543  30 O  pz              486     -0.189899  29 C  pz        
   343      0.178396  21 C  s               449     -0.176158  27 C  pz        
   511      0.159430  30 O  pz              542     -0.156200  32 C  pz        

 Vector   79  Occ=0.000000D+00  E= 2.601943D-02
              MO Center=  4.2D+00,  3.1D+00, -1.6D+00, r^2= 2.0D+01
   Bfn.  Coefficient  Atom+Function         Bfn.  Coefficient  Atom+Function  
  ----- ------------  ---------------      ----- ------------  ---------------
   657      3.371675  38 N  s               226     -2.759504  15 C  s         
   615     -2.314228  36 C  py              310     -1.916339  19 C  s         
   681      1.817064  39 H  s               318     -1.760251  19 C  py        
   607     -1.714266  36 C  s               690      1.669556  40 H  s         
   317     -1.581216  19 C  px              614     -1.563772  36 C  px        

 Vector   80  Occ=0.000000D+00  E= 3.076890D-02
              MO Center= -1.3D-01, -5.1D+00,  1.2D+00, r^2= 2.7D+01
   Bfn.  Coefficient  Atom+Function         Bfn.  Coefficient  Atom+Function  
  ----- ------------  ---------------      ----- ------------  ---------------
   234      2.328935  15 C  py              216      2.105238  14 H  s         
   148      2.087489   9 C  py              106      2.005163   7 N  s         
    46      1.922752   4 H  s                56     -1.788343   5 C  s         
    12     -1.696322   2 C  s               318      1.575056  19 C  py        
   173     -1.508218  11 C  s               446     -1.376673  27 C  s         

 Vector   81  Occ=0.000000D+00  E= 4.121849D-02
              MO Center= -2.8D+00, -6.0D-01,  5.9D-01, r^2= 4.2D+01
   Bfn.  Coefficient  Atom+Function         Bfn.  Coefficient  Atom+Function  
  ----- ------------  ---------------      ----- ------------  ---------------
   226      4.389242  15 C  s               539     -4.242472  32 C  s         
   412     -3.965423  25 C  s               147     -3.511128   9 C  px        
   573      3.149479  34 C  s               396      3.081029  24 C  pz        
   480      2.935760  29 C  s               140      2.666807   9 C  s         
   394     -2.669888  24 C  px              395      2.607932  24 C  py        

 Vector   82  Occ=0.000000D+00  E= 4.306800D-02
              MO Center= -3.5D-01, -1.4D+00,  4.7D-01, r^2= 4.7D+01
   Bfn.  Coefficient  Atom+Function         Bfn.  Coefficient  Atom+Function  
  ----- ------------  ---------------      ----- ------------  ---------------
   539     -2.923367  32 C  s                56      2.898310   5 C  s         
   149      2.494909   9 C  pz               12     -2.287760   2 C  s         
   147      2.275632   9 C  px               63      2.214898   5 C  px        
   174     -2.111112  11 C  s               216     -1.976110  14 H  s         
    64      1.924377   5 C  py              607      1.834738  36 C  s         

 Vector   83  Occ=0.000000D+00  E= 4.700071D-02
              MO Center=  1.2D+00,  8.4D-01, -3.2D-01, r^2= 4.8D+01
   Bfn.  Coefficient  Atom+Function         Bfn.  Coefficient  Atom+Function  
  ----- ------------  ---------------      ----- ------------  ---------------
   446      4.816712  27 C  s               412      2.753107  25 C  s         
   334     -2.608594  20 H  s               436      2.545476  26 H  s         
   573     -2.422877  34 C  s               395     -2.397266  24 C  py        
   487     -2.290603  29 C  px              420     -2.243608  25 C  py        
   368     -1.980316  22 H  s               488     -1.985963  29 C  py        

 Vector   84  Occ=0.000000D+00  E= 5.062239D-02
              MO Center=  1.4D+00,  2.4D+00, -1.4D+00, r^2= 4.0D+01
   Bfn.  Coefficient  Atom+Function         Bfn.  Coefficient  Atom+Function  
  ----- ------------  ---------------      ----- ------------  ---------------
   368      4.586244  22 H  s               395     -3.823902  24 C  py        
   353      3.773803  21 C  pz              317      3.344640  19 C  px        
   573     -3.292793  34 C  s               412      3.120363  25 C  s         
   539     -2.776128  32 C  s               446      2.584708  27 C  s         
   334     -2.469693  20 H  s               419     -2.473697  25 C  px        

 Vector   85  Occ=0.000000D+00  E= 5.207307D-02
              MO Center=  4.9D-01, -1.2D+00,  5.2D-01, r^2= 5.0D+01
   Bfn.  Coefficient  Atom+Function         Bfn.  Coefficient  Atom+Function  
  ----- ------------  ---------------      ----- ------------  ---------------
   446      4.238157  27 C  s               470      3.119700  28 H  s         
   198      2.990746  12 H  s               395     -2.847210  24 C  py        
   387     -2.831274  24 C  s               216     -2.451464  14 H  s         
   539     -2.344389  32 C  s               454     -2.220581  27 C  py        
    37      2.153022   3 H  s               547     -2.065663  32 C  py        

 Vector   86  Occ=0.000000D+00  E= 5.659760D-02
              MO Center= -1.0D+00, -2.1D+00,  3.2D-01, r^2= 4.5D+01
   Bfn.  Coefficient  Atom+Function         Bfn.  Coefficient  Atom+Function  
  ----- ------------  ---------------      ----- ------------  ---------------
   207      3.057812  13 H  s               174     -2.946906  11 C  s         
   130     -2.848804   8 H  s                 3      2.822472   1 H  s         
   106     -2.614232   7 N  s               234     -1.855531  15 C  py        
    56      1.729596   5 C  s               529     -1.724970  31 H  s         
   539     -1.637619  32 C  s                63      1.580690   5 C  px        

 Vector   87  Occ=0.000000D+00  E= 6.300296D-02
              MO Center=  4.0D-01,  8.9D-01, -5.3D-02, r^2= 5.2D+01
   Bfn.  Coefficient  Atom+Function         Bfn.  Coefficient  Atom+Function  
  ----- ------------  ---------------      ----- ------------  ---------------
   446      5.632016  27 C  s               470      4.911657  28 H  s         
   334      4.722686  20 H  s               454     -3.631376  27 C  py        
    13     -3.455548   2 C  s               317     -3.138351  19 C  px        
   539     -2.832508  32 C  s               563     -2.808487  33 H  s         
   387     -2.730412  24 C  s               547     -2.544500  32 C  py        

 Vector   88  Occ=0.000000D+00  E= 6.553742D-02
              MO Center= -2.7D-01, -2.7D+00, -6.6D-01, r^2= 4.0D+01
   Bfn.  Coefficient  Atom+Function         Bfn.  Coefficient  Atom+Function  
  ----- ------------  ---------------      ----- ------------  ---------------
   387     -3.807107  24 C  s                56      3.482667   5 C  s         
   164     -3.369626  10 H  s                37     -3.351834   3 H  s         
[...]

 Vector  197  Occ=0.000000D+00  E= 4.457887D-01
              MO Center= -7.0D-01, -1.4D+00, -5.3D-01, r^2= 2.4D+01
   Bfn.  Coefficient  Atom+Function         Bfn.  Coefficient  Atom+Function  
  ----- ------------  ---------------      ----- ------------  ---------------
   539     16.065435  32 C  s               412     10.223910  25 C  s         
   226     -9.355464  15 C  s               284     -8.260565  17 N  py        
   480     -7.973213  29 C  s                63      7.729143   5 C  px        
   446     -7.593952  27 C  s               351      7.151322  21 C  px        
   319      6.504813  19 C  pz              607     -6.504094  36 C  s         

 Vector  198  Occ=0.000000D+00  E= 4.472157D-01
              MO Center=  3.1D-01, -6.8D-02, -2.3D-01, r^2= 2.2D+01
   Bfn.  Coefficient  Atom+Function         Bfn.  Coefficient  Atom+Function  
  ----- ------------  ---------------      ----- ------------  ---------------
   318     10.677740  19 C  py              539      9.178156  32 C  s         
   581      7.433587  34 C  py              387     -6.263764  24 C  s         
   148     -6.209582   9 C  py              657     -6.022260  38 N  s         
   352     -5.820042  21 C  py              284     -5.504883  17 N  py        
   276     -5.064271  17 N  s                12      5.015964   2 C  s         

 Vector  199  Occ=0.000000D+00  E= 4.509254D-01
              MO Center=  4.7D-01,  5.4D-01,  3.0D-01, r^2= 2.4D+01
   Bfn.  Coefficient  Atom+Function         Bfn.  Coefficient  Atom+Function  
  ----- ------------  ---------------      ----- ------------  ---------------
   412     14.370759  25 C  s               480    -13.409059  29 C  s         
   539     12.751811  32 C  s               276     10.382008  17 N  s         
   226    -10.177660  15 C  s               106      9.966274   7 N  s         
   147      9.501469   9 C  px              573     -9.034928  34 C  s         
   419     -8.933932  25 C  px              607     -7.877551  36 C  s         

 Vector  200  Occ=0.000000D+00  E= 4.538696D-01
              MO Center=  4.6D-01, -8.5D-01,  1.3D-01, r^2= 2.4D+01
   Bfn.  Coefficient  Atom+Function         Bfn.  Coefficient  Atom+Function  
  ----- ------------  ---------------      ----- ------------  ---------------
   387     11.162031  24 C  s               276     10.242648  17 N  s         
   607     -8.107340  36 C  s               412      7.350119  25 C  s         
   446     -6.714198  27 C  s               420      6.448693  25 C  py        
    56     -5.919974   5 C  s                81      5.733257   6 O  s         
   573     -5.633502  34 C  s               657      5.561315  38 N  s         

 Vector  201  Occ=0.000000D+00  E= 4.581561D-01
              MO Center= -2.3D-02, -1.3D+00,  5.0D-02, r^2= 2.4D+01
   Bfn.  Coefficient  Atom+Function         Bfn.  Coefficient  Atom+Function  
  ----- ------------  ---------------      ----- ------------  ---------------
   387    -10.175457  24 C  s               235      9.802945  15 C  pz        
   581      8.876873  34 C  py              113     -8.177658   7 N  px        
   284     -7.644476  17 N  py              234     -7.488427  15 C  py        
   446      7.153509  27 C  s               396      6.871999  24 C  pz        
   421     -6.029364  25 C  pz              607      5.873704  36 C  s         

 Vector  202  Occ=0.000000D+00  E= 4.608927D-01
              MO Center= -6.8D-01, -2.2D+00,  2.8D-01, r^2= 2.3D+01
   Bfn.  Coefficient  Atom+Function         Bfn.  Coefficient  Atom+Function  
  ----- ------------  ---------------      ----- ------------  ---------------
   174     17.760135  11 C  s                56    -15.804247   5 C  s         
   412     13.370197  25 C  s               480    -12.560990  29 C  s         
   173     10.270169  11 C  s               206     -8.631503  13 H  s         
   149     -8.142673   9 C  pz              233     -8.130764  15 C  px        
   215     -7.604956  14 H  s               395     -7.357960  24 C  py        

 Vector  203  Occ=0.000000D+00  E= 4.629284D-01
              MO Center= -4.4D-01, -1.2D+00, -5.7D-02, r^2= 2.5D+01
   Bfn.  Coefficient  Atom+Function         Bfn.  Coefficient  Atom+Function  
  ----- ------------  ---------------      ----- ------------  ---------------
   539     13.807920  32 C  s               173     -9.201612  11 C  s         
   197      8.488012  12 H  s               387     -8.257810  24 C  s         
   226     -6.358908  15 C  s               396     -6.116277  24 C  pz        
   148      5.509665   9 C  py               56      5.355571   5 C  s         
    13      5.199170   2 C  s                36     -4.679351   3 H  s         

 Vector  204  Occ=0.000000D+00  E= 4.699083D-01
              MO Center= -2.7D-01, -1.2D+00,  1.4D-02, r^2= 2.4D+01
   Bfn.  Coefficient  Atom+Function         Bfn.  Coefficient  Atom+Function  
  ----- ------------  ---------------      ----- ------------  ---------------
   147      8.167388   9 C  px              284      7.786802  17 N  py        
   657      7.442841  38 N  s               173      7.210028  11 C  s         
   174      7.156476  11 C  s               607     -7.065602  36 C  s         
   106      6.088963   7 N  s               197     -5.666590  12 H  s         
   234      5.582419  15 C  py              446     -5.586897  27 C  s         

 Vector  205  Occ=0.000000D+00  E= 4.752797D-01
              MO Center=  5.1D-01, -6.1D-01,  3.1D-01, r^2= 2.2D+01
   Bfn.  Coefficient  Atom+Function         Bfn.  Coefficient  Atom+Function  
  ----- ------------  ---------------      ----- ------------  ---------------
   539     12.581221  32 C  s               318    -10.143034  19 C  py        
   174     -9.499854  11 C  s               226     -9.501495  15 C  s         
   284     -7.437457  17 N  py               12     -7.029317   2 C  s         
   387     -6.236102  24 C  s               580      6.210275  34 C  px        
   234     -6.025835  15 C  py              480     -5.875356  29 C  s         

 Vector  206  Occ=0.000000D+00  E= 4.780572D-01
              MO Center= -6.2D-01,  6.3D-01, -1.2D-02, r^2= 2.2D+01
   Bfn.  Coefficient  Atom+Function         Bfn.  Coefficient  Atom+Function  
  ----- ------------  ---------------      ----- ------------  ---------------
   539     20.560685  32 C  s                56    -11.912365   5 C  s         
   396    -11.513299  24 C  pz              412     11.063641  25 C  s         
   387    -10.364838  24 C  s               394      9.841352  24 C  px        
   174      9.006797  11 C  s               607     -8.946089  36 C  s         
   573     -8.019068  34 C  s               351      7.743247  21 C  px        

 Vector  207  Occ=0.000000D+00  E= 4.822029D-01
              MO Center= -6.9D-01,  5.1D-01,  3.6D-01, r^2= 2.5D+01
   Bfn.  Coefficient  Atom+Function         Bfn.  Coefficient  Atom+Function  
  ----- ------------  ---------------      ----- ------------  ---------------
   276     11.812243  17 N  s               412      9.715996  25 C  s         
    56     -8.902396   5 C  s               480     -8.026504  29 C  s         
   174      7.302432  11 C  s               573     -5.891025  34 C  s         
    81      5.830772   6 O  s               300      5.451103  18 H  s         
   235     -5.334170  15 C  pz              607     -5.107735  36 C  s         

 Vector  208  Occ=0.000000D+00  E= 4.853216D-01
              MO Center= -1.8D-01,  4.7D-01, -5.8D-02, r^2= 2.3D+01
   Bfn.  Coefficient  Atom+Function         Bfn.  Coefficient  Atom+Function  
  ----- ------------  ---------------      ----- ------------  ---------------
   480     18.418626  29 C  s               276     -7.766525  17 N  s         
   505     -7.443964  30 O  s               174      7.070293  11 C  s         
   412     -6.609061  25 C  s               446      6.212442  27 C  s         
    12      5.889960   2 C  s               226      5.746497  15 C  s         
   149     -5.515573   9 C  pz              283      5.459613  17 N  px        

 Vector  209  Occ=0.000000D+00  E= 4.869102D-01
              MO Center=  1.1D-01, -3.3D-01,  6.8D-01, r^2= 2.2D+01
   Bfn.  Coefficient  Atom+Function         Bfn.  Coefficient  Atom+Function  
  ----- ------------  ---------------      ----- ------------  ---------------
   387     20.139297  24 C  s               174     13.709146  11 C  s         
   607    -11.995401  36 C  s                56    -11.699809   5 C  s         
   539    -11.242983  32 C  s               234     10.240538  15 C  py        
   480      9.116675  29 C  s               310     -8.716736  19 C  s         
   446     -8.464250  27 C  s               226      7.248378  15 C  s         

 Vector  210  Occ=0.000000D+00  E= 4.924155D-01
              MO Center= -9.8D-01,  1.1D+00, -2.0D-01, r^2= 1.8D+01
   Bfn.  Coefficient  Atom+Function         Bfn.  Coefficient  Atom+Function  
  ----- ------------  ---------------      ----- ------------  ---------------
   344    -12.982667  21 C  s               276     12.804857  17 N  s         
   387    -12.436737  24 C  s               480     11.612797  29 C  s         
   394     -8.812264  24 C  px              420     -8.555286  25 C  py        
   539      7.779538  32 C  s               580      7.682178  34 C  px        
   573     -7.123238  34 C  s               367      5.960299  22 H  s         

 Vector  211  Occ=0.000000D+00  E= 4.942189D-01
              MO Center=  8.0D-01, -5.1D-01,  3.2D-01, r^2= 2.4D+01
   Bfn.  Coefficient  Atom+Function         Bfn.  Coefficient  Atom+Function  
  ----- ------------  ---------------      ----- ------------  ---------------
    56     14.920738   5 C  s               174    -11.548317  11 C  s         
   657     10.553723  38 N  s               149     10.458623   9 C  pz        
   226    -10.409483  15 C  s               412     10.331975  25 C  s         
   480    -10.263187  29 C  s               276      8.900352  17 N  s         
   147      7.655199   9 C  px              394     -7.567140  24 C  px        

 Vector  212  Occ=0.000000D+00  E= 4.999857D-01
              MO Center=  4.0D-01,  1.2D-01,  1.4D-01, r^2= 2.3D+01
   Bfn.  Coefficient  Atom+Function         Bfn.  Coefficient  Atom+Function  
  ----- ------------  ---------------      ----- ------------  ---------------
   539     20.336135  32 C  s               446    -17.555846  27 C  s         
   607    -14.482593  36 C  s               412     13.841475  25 C  s         
   148     13.085398   9 C  py              657     13.055835  38 N  s         
   226    -12.155444  15 C  s                13     11.196677   2 C  s         
   310    -10.268325  19 C  s               480    -10.084047  29 C  s         

 Vector  213  Occ=0.000000D+00  E= 5.071188D-01
              MO Center= -1.8D-01,  1.7D-01, -1.3D-01, r^2= 2.2D+01
   Bfn.  Coefficient  Atom+Function         Bfn.  Coefficient  Atom+Function  
  ----- ------------  ---------------      ----- ------------  ---------------
   174     11.913416  11 C  s               394    -10.993491  24 C  px        
   284      8.854800  17 N  py              344     -8.819123  21 C  s         
   149     -6.833359   9 C  pz              367      6.774579  22 H  s         
    56     -6.240521   5 C  s               319     -5.941354  19 C  pz        
   352      5.753447  21 C  py              580      5.372393  34 C  px        


 center of mass
 --------------
 x =  -0.01369337 y =   0.06646719 z =   0.00389040

 moments of inertia (a.u.)
 ------------------
        7806.609873017544          -0.000000000001          -0.000000000000
          -0.000000000001        5220.317174530852          -0.000000000001
          -0.000000000000          -0.000000000001       11330.353814104561

  Mulliken analysis of the total density
  --------------------------------------

    Atom       Charge   Shell Charges
 -----------   ------   -------------------------------------------------------
    1 H    1     1.00   0.76  0.25  0.01  0.03 -0.05
    2 C    6     6.23   2.01  0.66  0.24  0.08  2.07  1.02  0.00  0.06  0.10
    3 H    1     0.86   0.76  0.14 -0.00  0.03 -0.06
    4 H    1     0.87   0.76  0.14 -0.00  0.03 -0.06
    5 C    6     5.14   2.01  0.68  0.10 -0.08  1.89  0.28 -0.01  0.24  0.03
    6 O    8     8.73   2.01  0.82  0.99  0.15  2.79  1.84  0.14  0.01 -0.02
    7 N    7     7.61   2.01  0.72  0.83 -0.07  2.45  1.44  0.13  0.05  0.05
    8 H    1     0.95   0.77  0.19 -0.02  0.05 -0.05
    9 C    6     6.64   2.01  0.66  0.21  0.07  2.00  1.40  0.01  0.14  0.16
   10 H    1     1.15   0.78  0.35  0.00  0.03 -0.00
   11 C    6     5.70   2.01  0.66  0.26  0.17  2.04  0.51 -0.03  0.07  0.01
   12 H    1     0.93   0.77  0.17  0.03  0.03 -0.07
   13 H    1     0.96   0.77  0.22  0.01  0.03 -0.07
   14 H    1     0.93   0.77  0.22 -0.00  0.03 -0.09
   15 C    6     4.46   2.01  0.68 -0.05  0.06  1.89  0.03 -0.00  0.23 -0.39
   16 O    8     8.91   2.01  0.82  1.05  0.20  2.79  1.87  0.17  0.01  0.00
   17 N    7     7.45   2.01  0.72  0.86 -0.17  2.45  1.44  0.04  0.05  0.05
   18 H    1     1.02   0.75  0.23  0.01  0.05 -0.02
   19 C    6     6.27   2.01  0.66  0.25  0.05  2.00  1.20 -0.09  0.14  0.06
   20 H    1     1.11   0.78  0.30  0.01  0.03 -0.00
   21 C    6     5.38   2.01  0.66 -0.04 -0.03  2.04  0.83 -0.09  0.10 -0.08
   22 H    1     1.06   0.79  0.29 -0.01  0.03 -0.04
   23 H    1     1.14   0.78  0.40 -0.02  0.03 -0.05
   24 C    6     6.24   2.01  0.66  0.20 -0.09  2.01  0.88  0.19  0.12  0.27
   25 C    6     5.16   2.01  0.66  0.19 -0.50  1.99  0.78  0.20  0.09 -0.25
   26 H    1     1.63   0.79  0.81 -0.00  0.03  0.01
   27 C    6     5.27   2.01  0.66  0.14 -0.48  2.02  0.81  0.22  0.09 -0.19
   28 H    1     1.54   0.78  0.72 -0.01  0.03  0.01
   29 C    6     5.40   2.01  0.66  0.16 -0.13  1.93  0.37  0.29  0.17 -0.06
   30 O    8     8.71   2.01  0.80  0.97  0.17  2.84  1.83  0.10  0.01 -0.03
   31 H    1     0.87   0.74  0.04 -0.01  0.08  0.02
   32 C    6     5.39   2.01  0.66  0.31 -0.49  2.02  0.73  0.22  0.09 -0.16
   33 H    1     1.62   0.78  0.81 -0.01  0.03  0.01
   34 C    6     5.29   2.01  0.66  0.13 -0.16  1.99  0.76  0.05  0.09 -0.23
   35 H    1     1.73   0.78  0.84  0.06  0.03  0.02
   36 C    6     4.59   2.01  0.68  0.04  0.12  1.89 -0.17 -0.04  0.23 -0.17
   37 O    8     8.82   2.01  0.82  1.03  0.17  2.79  1.85  0.14  0.01 -0.00
   38 N    7     7.28   2.01  0.72  0.84 -0.13  2.47  1.28  0.08  0.04 -0.02
   39 H    1     0.97   0.76  0.21 -0.01  0.05 -0.04
   40 H    1     0.96   0.75  0.19 -0.01  0.05 -0.02

       Multipole analysis of the density wrt the origin
       ------------------------------------------------

     L   x y z        total         open         nuclear
     -   - - -        -----         ----         -------
     0   0 0 0      0.000000      0.000000    156.000000

     1   1 0 0      1.043601      0.000000      0.000000
     1   0 1 0     -0.860211      0.000000      0.000000
     1   0 0 1     -0.274707      0.000000     -0.000000

     2   2 0 0    -85.087402      0.000000   2369.187371
     2   1 1 0     12.060601      0.000000     37.432575
     2   1 0 1     -4.712390      0.000000      3.677273
     2   0 2 0    -79.797484      0.000000   3818.643644
     2   0 1 1     -9.890921      0.000000    -25.485082
     2   0 0 2    -96.107869      0.000000    494.810604


 Task  times  cpu:    20451.4s     wall:    20553.0s


                                NWChem Input Module
                                -------------------


 Summary of allocated global arrays
-----------------------------------
  No active global arrays


MA_summarize_allocated_blocks: starting scan ...
MA_summarize_allocated_blocks: scan completed: 0 heap blocks, 0 stack blocks
MA usage statistics:

	allocation statistics:
					      heap	     stack
					      ----	     -----
	current number of blocks	         0	         0
	maximum number of blocks	        16	        14
	current total bytes		         0	         0
	maximum total bytes		    148488	  31456168
	maximum total K-bytes		       149	     31457
	maximum total M-bytes		         1	        32


                                     CITATION
                                     --------
                Please cite the following reference when publishing
                           results obtained with NWChem:

          E. Apra, E. J. Bylaska, W. A. de Jong, N. Govind, K. Kowalski,
       T. P. Straatsma, M. Valiev, H. J. J. van Dam, Y. Alexeev, J. Anchell,
       V. Anisimov, F. W. Aquino, R. Atta-Fynn, J. Autschbach, N. P. Bauman,
     J. C. Becca, D. E. Bernholdt, K. Bhaskaran-Nair, S. Bogatko, P. Borowski,
         J. Boschen, J. Brabec, A. Bruner, E. Cauet, Y. Chen, G. N. Chuev,
      C. J. Cramer, J. Daily, M. J. O. Deegan, T. H. Dunning Jr., M. Dupuis,
   K. G. Dyall, G. I. Fann, S. A. Fischer, A. Fonari, H. Fruchtl, L. Gagliardi,
      J. Garza, N. Gawande, S. Ghosh, K. Glaesemann, A. W. Gotz, J. Hammond,
       V. Helms, E. D. Hermes, K. Hirao, S. Hirata, M. Jacquelin, L. Jensen,
   B. G. Johnson, H. Jonsson, R. A. Kendall, M. Klemm, R. Kobayashi, V. Konkov,
      S. Krishnamoorthy, M. Krishnan, Z. Lin, R. D. Lins, R. J. Littlefield,
      A. J. Logsdail, K. Lopata, W. Ma, A. V. Marenich, J. Martin del Campo,
   D. Mejia-Rodriguez, J. E. Moore, J. M. Mullin, T. Nakajima, D. R. Nascimento,
    J. A. Nichols, P. J. Nichols, J. Nieplocha, A. Otero-de-la-Roza, B. Palmer,
    A. Panyala, T. Pirojsirikul, B. Peng, R. Peverati, J. Pittner, L. Pollack,
   R. M. Richard, P. Sadayappan, G. C. Schatz, W. A. Shelton, D. W. Silverstein,
   D. M. A. Smith, T. A. Soares, D. Song, M. Swart, H. L. Taylor, G. S. Thomas,
            V. Tipparaju, D. G. Truhlar, K. Tsemekhman, T. Van Voorhis,
      A. Vazquez-Mayagoitia, P. Verma, O. Villa, A. Vishnu, K. D. Vogiatzis,
        D. Wang, J. H. Weare, M. J. Williamson, T. L. Windus, K. Wolinski,
        A. T. Wong, Q. Wu, C. Yang, Q. Yu, M. Zacharias, Z. Zhang, Y. Zhao,
                                and R. J. Harrison
                        "NWChem: Past, present, and future
                         J. Chem. Phys. 152, 184102 (2020)
                               doi:10.1063/5.0004997

                                      AUTHORS
                                      -------
  E. Apra, E. J. Bylaska, N. Govind, K. Kowalski, M. Valiev, D. Mejia-Rodriguez,
       A. Kunitsa, N. P. Bauman, A. Panyala, W. A. de Jong, T. P. Straatsma,
   H. J. J. van Dam, D. Wang, T. L. Windus, J. Hammond, J. Autschbach, A. Woods,
    K. Bhaskaran-Nair, J. Brabec, K. Lopata, S. A. Fischer, S. Krishnamoorthy,
     M. Jacquelin, W. Ma, M. Klemm, O. Villa, Y. Chen, V. Anisimov, F. Aquino,
     S. Hirata, M. T. Hackler, E. Hermes, L. Jensen, J. E. Moore, J. C. Becca,
      V. Konjkov, T. Risthaus, M. Malagoli, A. Marenich, A. Otero-de-la-Roza,
        J. Mullin, P. Nichols, R. Peverati, J. Pittner, Y. Zhao, P.-D. Fan,
        A. Fonari, M. J. Williamson, R. J. Harrison, J. R. Rehr, M. Dupuis,
     D. Silverstein, D. M. A. Smith, J. Nieplocha, V. Tipparaju, M. Krishnan,
     B. E. Van Kuiken, A. Vazquez-Mayagoitia, M. Swart, Q. Wu, T. Van Voorhis,
     A. A. Auer, M. Nooijen, L. D. Crosby, E. Brown, G. Cisneros, G. I. Fann,
   H. Fruchtl, J. Garza, K. Hirao, R. A. Kendall, J. A. Nichols, K. Tsemekhman,
    K. Wolinski, J. Anchell, D. E. Bernholdt, P. Borowski, T. Clark, D. Clerc,
   H. Dachsel, M. J. O. Deegan, K. Dyall, D. Elwood, E. Glendening, M. Gutowski,
   A. C. Hess, J. Jaffe, B. G. Johnson, J. Ju, R. Kobayashi, R. Kutteh, Z. Lin,
   R. Littlefield, X. Long, B. Meng, T. Nakajima, S. Niu, L. Pollack, M. Rosing,
   K. Glaesemann, G. Sandrone, M. Stave, H. Taylor, G. Thomas, J. H. van Lenthe,
                               A. T. Wong, Z. Zhang.

 Total times  cpu:    20451.4s     wall:    20553.2s
