export TMOUT=5400
export TMPDIR=/tmp
export PTMPDIR=/tmp/ptmp
 argument  1 = ALA_LEU_2.nw
                                         
                                         


             Northwest Computational Chemistry Package (NWChem) 7.2.0
             --------------------------------------------------------


                    Environmental Molecular Sciences Laboratory
                       Pacific Northwest National Laboratory
                                Richland, WA 99352

                              Copyright (c) 1994-2022
                       Pacific Northwest National Laboratory
                            Battelle Memorial Institute

             NWChem is an open-source computational chemistry package
                        distributed under the terms of the
                      Educational Community License (ECL) 2.0
             A copy of the license is included with this distribution
                              in the LICENSE.TXT file

                                  ACKNOWLEDGMENT
                                  --------------

            This software and its documentation were developed at the
            EMSL at Pacific Northwest National Laboratory, a multiprogram
            national laboratory, operated for the U.S. Department of Energy
            by Battelle under Contract Number DE-AC05-76RL01830. Support
            for this work was provided by the Department of Energy Office
            of Biological and Environmental Research, Office of Basic
            Energy Sciences, and the Office of Advanced Scientific Computing.


           Job information
           ---------------

    hostname        = nova18-22
    program         = /opt/rit/el9/20230413/app/linux-rhel9-x86_64_v3/gcc-11.2.1/nwchem-7.2.0-oxtctbuhfuzyfaoziquq6bki22grib3g/bin/nwchem
    date            = Fri Jun 27 15:12:51 2025

    compiled        = Wed_May_17_23:46:39_2023
    source          = /tmp/root/spack-stage/spack-stage-nwchem-7.2.0-oxtctbuhfuzyfaoziquq6bki22grib3g/spack-src
    nwchem branch   = 7.2.0
    nwchem revision = d0d141fd
    ga revision     = 5.8.0
    use scalapack   = T
    input           = ALA_LEU_2.nw
    prefix          = ALA_LEU_2.
    data base       = ./ALA_LEU_2.db
    status          = startup
    nproc           =        8
    time left       =     -1s



           Memory information
           ------------------

    heap     =   26214394 doubles =    200.0 Mbytes
    stack    =   26214399 doubles =    200.0 Mbytes
    global   =   52428800 doubles =    400.0 Mbytes (distinct from heap & stack)
    total    =  104857593 doubles =    800.0 Mbytes
    verify   = yes
    hardfail = no 


           Directory information
           ---------------------

  0 permanent = .
  0 scratch   = .




                                NWChem Input Module
                                -------------------



 Scaling coordinates for geometry "geometry" by  1.889725989
 (inverse scale =  0.529177249)

 C1  symmetry detected

          ------
          auto-z
          ------
  no constraints, skipping    0.0000000000000000     
  no constraints, skipping    0.0000000000000000     


                             Geometry "geometry" -> ""
                             -------------------------

 Output coordinates in angstroms (scale by  1.889725989 to convert to a.u.)

  No.       Tag          Charge          X              Y              Z
 ---- ---------------- ---------- -------------- -------------- --------------
    1 H                    1.0000     3.65832461    -3.04080703    -0.51677573
    2 C                    6.0000     2.83176347    -3.41279759     0.08865032
    3 H                    1.0000     2.98984779    -3.13461858     1.12939563
    4 H                    1.0000     2.77286656    -4.49564573    -0.00404834
    5 C                    6.0000     1.54613110    -2.79519399    -0.40729142
    6 O                    8.0000     1.56181740    -2.00925209    -1.34478716
    7 N                    7.0000     0.43021285    -3.14281615     0.23129553
    8 H                    1.0000     0.50984927    -3.78649919     1.00075260
    9 C                    6.0000    -0.91538849    -2.66180213    -0.10466806
   10 H                    1.0000    -1.01893627    -2.68580922    -1.19155882
   11 C                    6.0000    -1.93306147    -3.65209740     0.48005664
   12 H                    1.0000    -2.94222745    -3.35287505     0.18920445
   13 H                    1.0000    -1.74171569    -4.65506926     0.09852521
   14 H                    1.0000    -1.86819876    -3.65790837     1.56983693
   15 C                    6.0000    -1.16422215    -1.19534322     0.32924561
   16 O                    8.0000    -2.06297611    -0.90956619     1.12036495
   17 N                    7.0000    -0.34469787    -0.26108753    -0.16528678
   18 H                    1.0000     0.37840100    -0.57676724    -0.80512452
   19 C                    6.0000    -0.39622937     1.17279477     0.14551873
   20 H                    1.0000    -0.59949613     1.26927287     1.21365336
   21 C                    6.0000     0.99926806     1.78121571    -0.12724656
   22 H                    1.0000     1.75012008     1.01495050     0.07736254
   23 H                    1.0000     1.09039019     2.04607570    -1.18151168
   24 C                    6.0000     1.35624560     2.99704323     0.75189818
   25 H                    1.0000     1.30190015     2.69640612     1.79851649
   26 C                    6.0000     2.79238029     3.43234798     0.45769938
   27 H                    1.0000     3.07205168     4.25681007     1.11281095
   28 H                    1.0000     3.47479375     2.60022806     0.63316539
   29 H                    1.0000     2.87775574     3.75405840    -0.58104141
   30 C                    6.0000     0.44913416     4.21154767     0.55272789
   31 H                    1.0000     0.81325002     5.04973764     1.14695698
   32 H                    1.0000     0.43382189     4.49438430    -0.50028919
   33 H                    1.0000    -0.56424900     3.98020306     0.87560439
   34 C                    6.0000    -1.55845212     1.86827844    -0.60121129
   35 O                    8.0000    -1.37133291     2.66767618    -1.51028701
   36 N                    7.0000    -2.79384298     1.54074529    -0.25118063
   37 H                    1.0000    -2.93338980     0.82988874     0.45490906
   38 H                    1.0000    -3.56234527     1.96926878    -0.73874380

      Atomic Mass 
      ----------- 

      H                  1.007825
      C                 12.000000
      O                 15.994910
      N                 14.003070


 Effective nuclear repulsion energy (a.u.)    1306.4608582576

            Nuclear Dipole moment (a.u.) 
            ----------------------------
        X                 Y               Z
 ---------------- ---------------- ----------------
    -0.0000000000    -0.0000000000    -0.0000000000



                                Z-matrix (autoz)
                                -------- 

 Units are Angstrom for bonds and degrees for angles

      Type          Name      I     J     K     L     M      Value
      ----------- --------  ----- ----- ----- ----- ----- ----------
    1 Stretch                  1     2                       1.09001
    2 Stretch                  2     3                       1.08882
    3 Stretch                  2     4                       1.08840
    4 Stretch                  2     5                       1.51005
    5 Stretch                  5     6                       1.22346
    6 Stretch                  5     7                       1.33188
    7 Stretch                  7     8                       1.00635
    8 Stretch                  7     9                       1.46795
    9 Stretch                  9    10                       1.09208
   10 Stretch                  9    11                       1.53566
   11 Stretch                  9    15                       1.54942
   12 Stretch                 11    12                       1.09204
   13 Stretch                 11    13                       1.09001
   14 Stretch                 11    14                       1.09172
   15 Stretch                 15    16                       1.23097
   16 Stretch                 15    17                       1.33754
   17 Stretch                 17    18                       1.01583
   18 Stretch                 17    19                       1.46809
   19 Stretch                 19    20                       1.09158
   20 Stretch                 19    21                       1.54661
   21 Stretch                 19    34                       1.54663
   22 Stretch                 21    22                       1.09216
   23 Stretch                 21    23                       1.09084
   24 Stretch                 21    24                       1.54226
   25 Stretch                 24    25                       1.09030
   26 Stretch                 24    26                       1.52922
   27 Stretch                 24    30                       1.52890
   28 Stretch                 26    27                       1.08955
   29 Stretch                 26    28                       1.09037
   30 Stretch                 26    29                       1.09077
   31 Stretch                 30    31                       1.09007
   32 Stretch                 30    32                       1.09045
   33 Stretch                 30    33                       1.08845
   34 Stretch                 34    35                       1.22494
   35 Stretch                 34    36                       1.32514
   36 Stretch                 36    37                       1.01161
   37 Stretch                 36    38                       1.00596
   38 Bend                     1     2     3               109.48866
   39 Bend                     1     2     4               109.46673
   40 Bend                     1     2     5               108.88153
   41 Bend                     2     5     6               120.23080
   42 Bend                     2     5     7               116.68705
   43 Bend                     3     2     4               110.08713
   44 Bend                     3     2     5               109.45375
   45 Bend                     4     2     5               109.44279
   46 Bend                     5     7     8               117.85519
   47 Bend                     5     7     9               124.94297
   48 Bend                     6     5     7               123.07962
   49 Bend                     7     9    10               107.90801
   50 Bend                     7     9    11               107.99948
   51 Bend                     7     9    15               113.15690
   52 Bend                     8     7     9               117.20137
   53 Bend                     9    11    12               109.52977
   54 Bend                     9    11    13               110.10625
   55 Bend                     9    11    14               110.12971
   56 Bend                     9    15    16               121.12865
   57 Bend                     9    15    17               117.33196
   58 Bend                    10     9    11               107.57452
   59 Bend                    10     9    15               106.51689
   60 Bend                    11     9    15               113.40815
   61 Bend                    12    11    13               108.73073
   62 Bend                    12    11    14               108.79770
   63 Bend                    13    11    14               109.51621
   64 Bend                    15    17    18               116.86975
   65 Bend                    15    17    19               125.62180
   66 Bend                    16    15    17               121.52096
   67 Bend                    17    19    20               107.45900
   68 Bend                    17    19    21               108.37390
   69 Bend                    17    19    34               111.30683
   70 Bend                    18    17    19               117.50673
   71 Bend                    19    21    22               108.13624
   72 Bend                    19    21    23               109.95854
   73 Bend                    19    21    24               114.73625
   74 Bend                    19    34    35               122.47853
   75 Bend                    19    34    36               117.50864
   76 Bend                    20    19    21               107.80794
   77 Bend                    20    19    34               107.02369
   78 Bend                    21    19    34               114.58143
   79 Bend                    21    24    25               108.55936
   80 Bend                    21    24    26               109.39719
   81 Bend                    21    24    30               114.49675
   82 Bend                    22    21    23               107.09679
   83 Bend                    22    21    24               106.68938
   84 Bend                    23    21    24               109.88766
   85 Bend                    24    26    27               109.92468
   86 Bend                    24    26    28               109.85016
   87 Bend                    24    26    29               109.91781
   88 Bend                    24    30    31               109.97531
   89 Bend                    24    30    32               109.88719
   90 Bend                    24    30    33               110.17633
   91 Bend                    25    24    26               108.05796
   92 Bend                    25    24    30               108.33155
   93 Bend                    26    24    30               107.81887
   94 Bend                    27    26    28               108.66731
   95 Bend                    27    26    29               109.22735
   96 Bend                    28    26    29               109.22916
   97 Bend                    31    30    32               109.36986
   98 Bend                    31    30    33               108.22325
   99 Bend                    32    30    33               109.17855
  100 Bend                    34    36    37               119.12123
  101 Bend                    34    36    38               118.61335
  102 Bend                    35    34    36               119.98347
  103 Bend                    37    36    38               122.15791
  104 Torsion                  1     2     5     6          -0.34668
  105 Torsion                  1     2     5     7        -179.78571
  106 Torsion                  2     5     7     8           0.25717
  107 Torsion                  2     5     7     9        -179.48882
  108 Torsion                  3     2     5     6         119.30627
  109 Torsion                  3     2     5     7         -60.13276
  110 Torsion                  4     2     5     6        -119.96646
  111 Torsion                  4     2     5     7          60.59452
  112 Torsion                  5     7     9    10          43.25127
  113 Torsion                  5     7     9    11         159.26852
  114 Torsion                  5     7     9    15         -74.34038
  115 Torsion                  6     5     7     8        -179.16438
  116 Torsion                  6     5     7     9           1.08962
  117 Torsion                  7     9    11    12        -176.35449
  118 Torsion                  7     9    11    13         -56.83742
  119 Torsion                  7     9    11    14          64.03162
  120 Torsion                  7     9    15    16        -120.12036
  121 Torsion                  7     9    15    17          58.34084
  122 Torsion                  8     7     9    10        -136.49623
  123 Torsion                  8     7     9    11         -20.47898
  124 Torsion                  8     7     9    15         105.91211
  125 Torsion                  9    15    17    18           0.91901
  126 Torsion                  9    15    17    19        -178.58969
  127 Torsion                 10     9    11    12         -60.11970
  128 Torsion                 10     9    11    13          59.39737
  129 Torsion                 10     9    11    14        -179.73359
  130 Torsion                 10     9    15    16         121.47735
  131 Torsion                 10     9    15    17         -60.06145
  132 Torsion                 11     9    15    16           3.34184
  133 Torsion                 11     9    15    17        -178.19695
  134 Torsion                 12    11     9    15          57.40150
  135 Torsion                 13    11     9    15         176.91857
  136 Torsion                 14    11     9    15         -62.21239
  137 Torsion                 15    17    19    20          40.58490
  138 Torsion                 15    17    19    21         156.83459
  139 Torsion                 15    17    19    34         -76.29288
  140 Torsion                 16    15    17    18         179.37379
  141 Torsion                 16    15    17    19          -0.13492
  142 Torsion                 17    19    21    22         -31.63601
  143 Torsion                 17    19    21    23          84.98413
  144 Torsion                 17    19    21    24        -150.55901
  145 Torsion                 17    19    34    35        -110.85544
  146 Torsion                 17    19    34    36          67.17105
  147 Torsion                 18    17    19    20        -138.92099
  148 Torsion                 18    17    19    21         -22.67130
  149 Torsion                 18    17    19    34         104.20123
  150 Torsion                 19    21    24    25          58.02626
  151 Torsion                 19    21    24    26         175.72856
  152 Torsion                 19    21    24    30         -63.14338
  153 Torsion                 19    34    36    37          -2.47395
  154 Torsion                 19    34    36    38        -178.78666
  155 Torsion                 20    19    21    22          84.38764
  156 Torsion                 20    19    21    23        -158.99222
  157 Torsion                 20    19    21    24         -34.53536
  158 Torsion                 20    19    34    35         132.00176
  159 Torsion                 20    19    34    36         -49.97175
  160 Torsion                 21    19    34    35          12.54420
  161 Torsion                 21    19    34    36        -169.42931
  162 Torsion                 21    24    26    27        -176.94049
  163 Torsion                 21    24    26    28         -57.41454
  164 Torsion                 21    24    26    29          62.80012
  165 Torsion                 21    24    30    31        -175.49154
  166 Torsion                 21    24    30    32         -55.04316
  167 Torsion                 21    24    30    33          65.29557
  168 Torsion                 22    21    19    34        -156.59430
  169 Torsion                 22    21    24    25         -61.70450
  170 Torsion                 22    21    24    26          55.99781
  171 Torsion                 22    21    24    30         177.12587
  172 Torsion                 23    21    19    34         -39.97416
  173 Torsion                 23    21    24    25        -177.47947
  174 Torsion                 23    21    24    26         -59.77716
  175 Torsion                 23    21    24    30          61.35090
  176 Torsion                 24    21    19    34          84.48270
  177 Torsion                 25    24    26    27         -58.92430
  178 Torsion                 25    24    26    28          60.60165
  179 Torsion                 25    24    26    29        -179.18369
  180 Torsion                 25    24    30    31          63.21353
  181 Torsion                 25    24    30    32        -176.33810
  182 Torsion                 25    24    30    33         -55.99937
  183 Torsion                 26    24    30    31         -53.49831
  184 Torsion                 26    24    30    32          66.95007
  185 Torsion                 26    24    30    33        -172.71120
  186 Torsion                 27    26    24    30          57.96555
  187 Torsion                 28    26    24    30         177.49150
  188 Torsion                 29    26    24    30         -62.29384
  189 Torsion                 35    34    36    37         175.60401
  190 Torsion                 35    34    36    38          -0.70871


            XYZ format geometry
            -------------------
    38
 geometry
 H                     3.65832461    -3.04080703    -0.51677573
 C                     2.83176347    -3.41279759     0.08865032
 H                     2.98984779    -3.13461858     1.12939563
 H                     2.77286656    -4.49564573    -0.00404834
 C                     1.54613110    -2.79519399    -0.40729142
 O                     1.56181740    -2.00925209    -1.34478716
 N                     0.43021285    -3.14281615     0.23129553
 H                     0.50984927    -3.78649919     1.00075260
 C                    -0.91538849    -2.66180213    -0.10466806
 H                    -1.01893627    -2.68580922    -1.19155882
 C                    -1.93306147    -3.65209740     0.48005664
 H                    -2.94222745    -3.35287505     0.18920445
 H                    -1.74171569    -4.65506926     0.09852521
 H                    -1.86819876    -3.65790837     1.56983693
 C                    -1.16422215    -1.19534322     0.32924561
 O                    -2.06297611    -0.90956619     1.12036495
 N                    -0.34469787    -0.26108753    -0.16528678
 H                     0.37840100    -0.57676724    -0.80512452
 C                    -0.39622937     1.17279477     0.14551873
 H                    -0.59949613     1.26927287     1.21365336
 C                     0.99926806     1.78121571    -0.12724656
 H                     1.75012008     1.01495050     0.07736254
 H                     1.09039019     2.04607570    -1.18151168
 C                     1.35624560     2.99704323     0.75189818
 H                     1.30190015     2.69640612     1.79851649
 C                     2.79238029     3.43234798     0.45769938
 H                     3.07205168     4.25681007     1.11281095
 H                     3.47479375     2.60022806     0.63316539
 H                     2.87775574     3.75405840    -0.58104141
 C                     0.44913416     4.21154767     0.55272789
 H                     0.81325002     5.04973764     1.14695698
 H                     0.43382189     4.49438430    -0.50028919
 H                    -0.56424900     3.98020306     0.87560439
 C                    -1.55845212     1.86827844    -0.60121129
 O                    -1.37133291     2.66767618    -1.51028701
 N                    -2.79384298     1.54074529    -0.25118063
 H                    -2.93338980     0.82988874     0.45490906
 H                    -3.56234527     1.96926878    -0.73874380

 ==============================================================================
                                internuclear distances
 ------------------------------------------------------------------------------
       center one      |      center two      | atomic units |  angstroms
 ------------------------------------------------------------------------------
    2 C                |   1 H                |     2.05982  |     1.09001
    3 H                |   2 C                |     2.05757  |     1.08882
    4 H                |   2 C                |     2.05678  |     1.08840
    5 C                |   2 C                |     2.85358  |     1.51005
    6 O                |   5 C                |     2.31200  |     1.22346
    7 N                |   5 C                |     2.51689  |     1.33188
    8 H                |   7 N                |     1.90172  |     1.00635
    9 C                |   7 N                |     2.77403  |     1.46795
   10 H                |   9 C                |     2.06372  |     1.09208
   11 C                |   9 C                |     2.90197  |     1.53566
   12 H                |  11 C                |     2.06365  |     1.09204
   13 H                |  11 C                |     2.05983  |     1.09001
   14 H                |  11 C                |     2.06306  |     1.09172
   15 C                |   9 C                |     2.92798  |     1.54942
   16 O                |  15 C                |     2.32620  |     1.23097
   17 N                |  15 C                |     2.52759  |     1.33754
   18 H                |  17 N                |     1.91965  |     1.01583
   19 C                |  17 N                |     2.77428  |     1.46809
   20 H                |  19 C                |     2.06278  |     1.09158
   21 C                |  19 C                |     2.92266  |     1.54661
   22 H                |  21 C                |     2.06388  |     1.09216
   23 H                |  21 C                |     2.06139  |     1.09084
   24 C                |  21 C                |     2.91445  |     1.54226
   25 H                |  24 C                |     2.06036  |     1.09030
   26 C                |  24 C                |     2.88981  |     1.52922
   27 H                |  26 C                |     2.05896  |     1.08955
   28 H                |  26 C                |     2.06049  |     1.09037
   29 H                |  26 C                |     2.06125  |     1.09077
   30 C                |  24 C                |     2.88921  |     1.52890
   31 H                |  30 C                |     2.05993  |     1.09007
   32 H                |  30 C                |     2.06065  |     1.09045
   33 H                |  30 C                |     2.05686  |     1.08845
   34 C                |  19 C                |     2.92271  |     1.54663
   35 O                |  34 C                |     2.31479  |     1.22494
   36 N                |  34 C                |     2.50415  |     1.32514
   37 H                |  36 N                |     1.91166  |     1.01161
   38 H                |  36 N                |     1.90098  |     1.00596
 ------------------------------------------------------------------------------
                         number of included internuclear distances:         37
 ==============================================================================



 ==============================================================================
                                 internuclear angles
 ------------------------------------------------------------------------------
        center 1       |       center 2       |       center 3       |  degrees
 ------------------------------------------------------------------------------
    1 H                |   2 C                |   3 H                |   109.49
    1 H                |   2 C                |   4 H                |   109.47
    1 H                |   2 C                |   5 C                |   108.88
    3 H                |   2 C                |   4 H                |   110.09
    3 H                |   2 C                |   5 C                |   109.45
    4 H                |   2 C                |   5 C                |   109.44
    2 C                |   5 C                |   6 O                |   120.23
    2 C                |   5 C                |   7 N                |   116.69
    6 O                |   5 C                |   7 N                |   123.08
    5 C                |   7 N                |   8 H                |   117.86
    5 C                |   7 N                |   9 C                |   124.94
    8 H                |   7 N                |   9 C                |   117.20
    7 N                |   9 C                |  10 H                |   107.91
    7 N                |   9 C                |  11 C                |   108.00
    7 N                |   9 C                |  15 C                |   113.16
   10 H                |   9 C                |  11 C                |   107.57
   10 H                |   9 C                |  15 C                |   106.52
   11 C                |   9 C                |  15 C                |   113.41
    9 C                |  11 C                |  12 H                |   109.53
    9 C                |  11 C                |  13 H                |   110.11
    9 C                |  11 C                |  14 H                |   110.13
   12 H                |  11 C                |  13 H                |   108.73
   12 H                |  11 C                |  14 H                |   108.80
   13 H                |  11 C                |  14 H                |   109.52
    9 C                |  15 C                |  16 O                |   121.13
    9 C                |  15 C                |  17 N                |   117.33
   16 O                |  15 C                |  17 N                |   121.52
   15 C                |  17 N                |  18 H                |   116.87
   15 C                |  17 N                |  19 C                |   125.62
   18 H                |  17 N                |  19 C                |   117.51
   17 N                |  19 C                |  20 H                |   107.46
   17 N                |  19 C                |  21 C                |   108.37
   17 N                |  19 C                |  34 C                |   111.31
   20 H                |  19 C                |  21 C                |   107.81
   20 H                |  19 C                |  34 C                |   107.02
   21 C                |  19 C                |  34 C                |   114.58
   19 C                |  21 C                |  22 H                |   108.14
   19 C                |  21 C                |  23 H                |   109.96
   19 C                |  21 C                |  24 C                |   114.74
   22 H                |  21 C                |  23 H                |   107.10
   22 H                |  21 C                |  24 C                |   106.69
   23 H                |  21 C                |  24 C                |   109.89
   21 C                |  24 C                |  25 H                |   108.56
   21 C                |  24 C                |  26 C                |   109.40
   21 C                |  24 C                |  30 C                |   114.50
   25 H                |  24 C                |  26 C                |   108.06
   25 H                |  24 C                |  30 C                |   108.33
   26 C                |  24 C                |  30 C                |   107.82
   24 C                |  26 C                |  27 H                |   109.92
   24 C                |  26 C                |  28 H                |   109.85
   24 C                |  26 C                |  29 H                |   109.92
   27 H                |  26 C                |  28 H                |   108.67
   27 H                |  26 C                |  29 H                |   109.23
   28 H                |  26 C                |  29 H                |   109.23
   24 C                |  30 C                |  31 H                |   109.98
   24 C                |  30 C                |  32 H                |   109.89
   24 C                |  30 C                |  33 H                |   110.18
   31 H                |  30 C                |  32 H                |   109.37
   31 H                |  30 C                |  33 H                |   108.22
   32 H                |  30 C                |  33 H                |   109.18
   19 C                |  34 C                |  35 O                |   122.48
   19 C                |  34 C                |  36 N                |   117.51
   35 O                |  34 C                |  36 N                |   119.98
   34 C                |  36 N                |  37 H                |   119.12
   34 C                |  36 N                |  38 H                |   118.61
   37 H                |  36 N                |  38 H                |   122.16
 ------------------------------------------------------------------------------
                            number of included internuclear angles:         66
 ==============================================================================



  library name resolved from: environment
  library file name is: </opt/rit/el9/20230413/app/linux-rhel9-x86_64_v3/gcc-11.2.1/nwchem-7.2.0-oxtctbuhfuzyfaoziquq6bki22grib3g/share/nwchem/libraries/>
  


 Summary of "ao basis" -> "" (cartesian)
 ------------------------------------------------------------------------------
       Tag                 Description            Shells   Functions and Types
 ---------------- ------------------------------  ------  ---------------------
 *                        aug-cc-pvdz                 on all atoms 


                      Basis "ao basis" -> "ao basis" (cartesian)
                      -----
  H (Hydrogen)
  ------------
            Exponent  Coefficients 
       -------------- ---------------------------------------------------------
  1 S  1.30100000E+01  0.019685
  1 S  1.96200000E+00  0.137977
  1 S  4.44600000E-01  0.478148

  2 S  1.22000000E-01  1.000000

  3 S  2.97400000E-02  1.000000

  4 P  7.27000000E-01  1.000000

  5 P  1.41000000E-01  1.000000

  C (Carbon)
  ----------
            Exponent  Coefficients 
       -------------- ---------------------------------------------------------
  1 S  6.66500000E+03  0.000692
  1 S  1.00000000E+03  0.005329
  1 S  2.28000000E+02  0.027077
  1 S  6.47100000E+01  0.101718
  1 S  2.10600000E+01  0.274740
  1 S  7.49500000E+00  0.448564
  1 S  2.79700000E+00  0.285074
  1 S  5.21500000E-01  0.015204

  2 S  6.66500000E+03 -0.000146
  2 S  1.00000000E+03 -0.001154
  2 S  2.28000000E+02 -0.005725
  2 S  6.47100000E+01 -0.023312
  2 S  2.10600000E+01 -0.063955
  2 S  7.49500000E+00 -0.149981
  2 S  2.79700000E+00 -0.127262
  2 S  5.21500000E-01  0.544529

  3 S  1.59600000E-01  1.000000

  4 S  4.69000000E-02  1.000000

  5 P  9.43900000E+00  0.038109
  5 P  2.00200000E+00  0.209480
  5 P  5.45600000E-01  0.508557

  6 P  1.51700000E-01  1.000000

  7 P  4.04100000E-02  1.000000

  8 D  5.50000000E-01  1.000000

  9 D  1.51000000E-01  1.000000

  O (Oxygen)
  ----------
            Exponent  Coefficients 
       -------------- ---------------------------------------------------------
  1 S  1.17200000E+04  0.000710
  1 S  1.75900000E+03  0.005470
  1 S  4.00800000E+02  0.027837
  1 S  1.13700000E+02  0.104800
  1 S  3.70300000E+01  0.283062
  1 S  1.32700000E+01  0.448719
  1 S  5.02500000E+00  0.270952
  1 S  1.01300000E+00  0.015458

  2 S  1.17200000E+04 -0.000160
  2 S  1.75900000E+03 -0.001263
  2 S  4.00800000E+02 -0.006267
  2 S  1.13700000E+02 -0.025716
  2 S  3.70300000E+01 -0.070924
  2 S  1.32700000E+01 -0.165411
  2 S  5.02500000E+00 -0.116955
  2 S  1.01300000E+00  0.557368

  3 S  3.02300000E-01  1.000000

  4 S  7.89600000E-02  1.000000

  5 P  1.77000000E+01  0.043018
  5 P  3.85400000E+00  0.228913
  5 P  1.04600000E+00  0.508728

  6 P  2.75300000E-01  1.000000

  7 P  6.85600000E-02  1.000000

  8 D  1.18500000E+00  1.000000

  9 D  3.32000000E-01  1.000000

  N (Nitrogen)
  ------------
            Exponent  Coefficients 
       -------------- ---------------------------------------------------------
  1 S  9.04600000E+03  0.000700
  1 S  1.35700000E+03  0.005389
  1 S  3.09300000E+02  0.027406
  1 S  8.77300000E+01  0.103207
  1 S  2.85600000E+01  0.278723
  1 S  1.02100000E+01  0.448540
  1 S  3.83800000E+00  0.278238
  1 S  7.46600000E-01  0.015440

  2 S  9.04600000E+03 -0.000153
  2 S  1.35700000E+03 -0.001208
  2 S  3.09300000E+02 -0.005992
  2 S  8.77300000E+01 -0.024544
  2 S  2.85600000E+01 -0.067459
  2 S  1.02100000E+01 -0.158078
  2 S  3.83800000E+00 -0.121831
  2 S  7.46600000E-01  0.549003

  3 S  2.24800000E-01  1.000000

  4 S  6.12400000E-02  1.000000

  5 P  1.35500000E+01  0.039919
  5 P  2.91700000E+00  0.217169
  5 P  7.97300000E-01  0.510319

  6 P  2.18500000E-01  1.000000

  7 P  5.61100000E-02  1.000000

  8 D  8.17000000E-01  1.000000

  9 D  2.30000000E-01  1.000000



 Summary of "ao basis" -> "ao basis" (cartesian)
 ------------------------------------------------------------------------------
       Tag                 Description            Shells   Functions and Types
 ---------------- ------------------------------  ------  ---------------------
 H                        aug-cc-pvdz                5        9   3s2p
 C                        aug-cc-pvdz                9       25   4s3p2d
 O                        aug-cc-pvdz                9       25   4s3p2d
 N                        aug-cc-pvdz                9       25   4s3p2d


                                 NWChem SCF Module
                                 -----------------



  ao basis        = "ao basis"
  functions       =   614
  atoms           =    38
  closed shells   =    66
  open shells     =     0
  charge          =   0.00
  wavefunction    = RHF 
  input vectors   = atomic
  output vectors  = ./ALA_LEU_2.movecs
  use symmetry    = F
  symmetry adapt  = F


 Summary of "ao basis" -> "ao basis" (cartesian)
 ------------------------------------------------------------------------------
       Tag                 Description            Shells   Functions and Types
 ---------------- ------------------------------  ------  ---------------------
 H                        aug-cc-pvdz                5        9   3s2p
 C                        aug-cc-pvdz                9       25   4s3p2d
 O                        aug-cc-pvdz                9       25   4s3p2d
 N                        aug-cc-pvdz                9       25   4s3p2d



 Forming initial guess at       1.2s


 !! The overlap matrix has   5 vectors deemed linearly dependent with
    eigenvalues:
 2.00D-06 3.32D-06 4.25D-06 6.68D-06 9.04D-06


      Superposition of Atomic Density Guess
      -------------------------------------

 Sum of atomic energies:        -812.03184720

      Non-variational initial energy
      ------------------------------

 Total energy =    -823.503445
 1-e energy   =   -3696.792581
 2-e energy   =    1566.828278
 HOMO         =      -0.306165
 LUMO         =       0.004898


 Starting SCF solution at     339.7s



 ----------------------------------------------
         Quadratically convergent ROHF

 Convergence threshold     :          1.000E-04
 Maximum no. of iterations :           30
 Final Fock-matrix accuracy:          1.000E-10
 ----------------------------------------------


              iter       energy          gnorm     gmax       time
             ----- ------------------- --------- --------- --------
                 1     -816.5177408189  2.41D+00  1.88D-01    614.1
                 2     -816.8320270361  8.44D-01  4.25D-02   1274.0
                 3     -816.8939520136  6.20D-02  5.26D-03   2153.0
                 4     -816.8945418465  1.82D-03  1.14D-04   3702.9
                 5     -816.8945422720  4.62D-06  3.95D-07   5734.3


       Final RHF  results 
       ------------------ 

         Total SCF energy =   -816.894542271963
      One-electron energy =  -3710.487487566558
      Two-electron energy =   1587.132087037017
 Nuclear repulsion energy =   1306.460858257579

        Time for solution =   5438.0s


             Final eigenvalues
             -----------------

              1      
    1  -20.5476
    2  -20.5385
    3  -20.5104
    4  -15.6220
    5  -15.5950
    6  -15.5739
    7  -11.3773
    8  -11.3675
    9  -11.3430
   10  -11.3124
   11  -11.2888
   12  -11.2598
   13  -11.2500
   14  -11.2277
   15  -11.2269
   16  -11.2115
   17  -11.2026
   18   -1.4136
   19   -1.3964
   20   -1.3717
   21   -1.2695
   22   -1.2423
   23   -1.2029
   24   -1.0928
   25   -1.0731
   26   -1.0127
   27   -1.0068
   28   -0.9199
   29   -0.9101
   30   -0.8853
   31   -0.8314
   32   -0.8067
   33   -0.7755
   34   -0.7623
   35   -0.7304
   36   -0.7262
   37   -0.7019
   38   -0.6890
   39   -0.6711
   40   -0.6621
   41   -0.6349
   42   -0.6235
   43   -0.6115
   44   -0.6046
   45   -0.5914
   46   -0.5889
   47   -0.5860
   48   -0.5643
   49   -0.5619
   50   -0.5580
   51   -0.5480
   52   -0.5438
   53   -0.5388
   54   -0.5263
   55   -0.5244
   56   -0.5098
   57   -0.5003
   58   -0.4652
   59   -0.4583
   60   -0.4567
   61   -0.4489
   62   -0.4425
   63   -0.4308
   64   -0.4068
   65   -0.3945
   66   -0.3830
   67    0.0210
   68    0.0344
   69    0.0393
   70    0.0412
   71    0.0485
   72    0.0502
   73    0.0557
   74    0.0596
   75    0.0637
   76    0.0655

                       ROHF Final Molecular Orbital Analysis
                       -------------------------------------

 Vector   18  Occ=2.000000D+00  E=-1.413599D+00
              MO Center=  1.2D+00, -2.3D+00, -7.9D-01, r^2= 1.7D+00
   Bfn.  Coefficient  Atom+Function         Bfn.  Coefficient  Atom+Function  
  ----- ------------  ---------------      ----- ------------  ---------------
    80      0.341251   6 O  s                79      0.337138   6 O  s         
    54      0.236949   5 C  s                12      0.180325   2 C  s         

 Vector   19  Occ=2.000000D+00  E=-1.396361D+00
              MO Center= -1.4D+00, -9.3D-01,  6.0D-01, r^2= 2.1D+00
   Bfn.  Coefficient  Atom+Function         Bfn.  Coefficient  Atom+Function  
  ----- ------------  ---------------      ----- ------------  ---------------
   250      0.361420  16 O  s               249      0.340004  16 O  s         
   224      0.229928  15 C  s         

 Vector   20  Occ=2.000000D+00  E=-1.371743D+00
              MO Center= -1.6D+00,  2.2D+00, -1.1D+00, r^2= 1.3D+00
   Bfn.  Coefficient  Atom+Function         Bfn.  Coefficient  Atom+Function  
  ----- ------------  ---------------      ----- ------------  ---------------
   549      0.377382  35 O  s               548      0.348876  35 O  s         
   523      0.243883  34 C  s               574      0.151375  36 N  s         

 Vector   21  Occ=2.000000D+00  E=-1.269498D+00
              MO Center=  4.8D-01, -2.9D+00, -1.9D-02, r^2= 1.9D+00
   Bfn.  Coefficient  Atom+Function         Bfn.  Coefficient  Atom+Function  
  ----- ------------  ---------------      ----- ------------  ---------------
   105      0.408472   7 N  s               104      0.340950   7 N  s         
    80     -0.215905   6 O  s                79     -0.181735   6 O  s         
   128      0.157241   8 H  s         

 Vector   22  Occ=2.000000D+00  E=-1.242281D+00
              MO Center= -5.9D-01, -2.5D-01,  4.4D-03, r^2= 2.1D+00
   Bfn.  Coefficient  Atom+Function         Bfn.  Coefficient  Atom+Function  
  ----- ------------  ---------------      ----- ------------  ---------------
   275      0.432845  17 N  s               274      0.339816  17 N  s         
   309     -0.220417  19 C  s               250     -0.201532  16 O  s         
   249     -0.163509  16 O  s         

 Vector   23  Occ=2.000000D+00  E=-1.202860D+00
              MO Center= -2.4D+00,  1.6D+00, -4.1D-01, r^2= 1.6D+00
   Bfn.  Coefficient  Atom+Function         Bfn.  Coefficient  Atom+Function  
  ----- ------------  ---------------      ----- ------------  ---------------
   574      0.395684  36 N  s               573      0.367264  36 N  s         
   549     -0.215095  35 O  s               548     -0.176995  35 O  s         
   597      0.164001  37 H  s               606      0.157348  38 H  s         

 Vector   24  Occ=2.000000D+00  E=-1.092804D+00
              MO Center=  9.2D-01,  2.0D+00,  3.4D-01, r^2= 5.7D+00
   Bfn.  Coefficient  Atom+Function         Bfn.  Coefficient  Atom+Function  
  ----- ------------  ---------------      ----- ------------  ---------------
   343      0.261501  21 C  s               385      0.231760  24 C  s         
   342      0.197673  21 C  s         

 Vector   25  Occ=2.000000D+00  E=-1.073067D+00
              MO Center=  4.2D-02, -2.2D+00,  1.4D-01, r^2= 8.4D+00
   Bfn.  Coefficient  Atom+Function         Bfn.  Coefficient  Atom+Function  
  ----- ------------  ---------------      ----- ------------  ---------------
   138      0.230690   9 C  s               172      0.190530  11 C  s         
    12     -0.184709   2 C  s               145     -0.160639   9 C  py        
    56      0.158874   5 C  s               225      0.159034  15 C  s         

 Vector   26  Occ=2.000000D+00  E=-1.012730D+00
              MO Center=  1.0D+00, -2.1D-01,  1.4D-01, r^2= 1.1D+01
   Bfn.  Coefficient  Atom+Function         Bfn.  Coefficient  Atom+Function  
  ----- ------------  ---------------      ----- ------------  ---------------
    11      0.216101   2 C  s               308     -0.199508  19 C  s         
   472      0.156335  30 C  s               343      0.151181  21 C  s         

 Vector   27  Occ=2.000000D+00  E=-1.006770D+00
              MO Center=  6.5D-01, -1.8D+00,  1.6D-01, r^2= 1.1D+01
   Bfn.  Coefficient  Atom+Function         Bfn.  Coefficient  Atom+Function  
  ----- ------------  ---------------      ----- ------------  ---------------
    11      0.232705   2 C  s               172      0.192448  11 C  s         
   144     -0.171823   9 C  px              343     -0.166735  21 C  s         

 Vector   28  Occ=2.000000D+00  E=-9.198979D-01
              MO Center=  1.3D+00,  3.8D+00,  5.0D-01, r^2= 3.0D+00
   Bfn.  Coefficient  Atom+Function         Bfn.  Coefficient  Atom+Function  
  ----- ------------  ---------------      ----- ------------  ---------------
   391      0.346753  24 C  px              471     -0.301551  30 C  s         
   419      0.231906  26 C  s               392     -0.173359  24 C  py        
   473     -0.170350  30 C  s               421      0.165234  26 C  s         
   513     -0.159799  33 H  s               478     -0.152572  30 C  py        

 Vector   29  Occ=2.000000D+00  E=-9.101499D-01
              MO Center= -1.7D-01, -8.2D-01,  2.0D-01, r^2= 1.2D+01
   Bfn.  Coefficient  Atom+Function         Bfn.  Coefficient  Atom+Function  
  ----- ------------  ---------------      ----- ------------  ---------------
   139      0.232875   9 C  s               145      0.225001   9 C  py        
   172     -0.204396  11 C  s               342      0.183038  21 C  s         

 Vector   30  Occ=2.000000D+00  E=-8.853349D-01
              MO Center= -3.8D-01,  2.9D-01,  1.9D-02, r^2= 1.0D+01
   Bfn.  Coefficient  Atom+Function         Bfn.  Coefficient  Atom+Function  
  ----- ------------  ---------------      ----- ------------  ---------------
   309      0.382518  19 C  s               139      0.174469   9 C  s         
   314     -0.173062  19 C  px              342     -0.163267  21 C  s         

 Vector   31  Occ=2.000000D+00  E=-8.313956D-01
              MO Center=  3.9D-01, -2.5D+00,  3.8D-02, r^2= 5.3D+00
   Bfn.  Coefficient  Atom+Function         Bfn.  Coefficient  Atom+Function  
  ----- ------------  ---------------      ----- ------------  ---------------
   107      0.237593   7 N  px              139      0.235079   9 C  s         
   128     -0.213436   8 H  s                54      0.207740   5 C  s         
   109     -0.189376   7 N  pz              309      0.189846  19 C  s         
   105     -0.165576   7 N  s                80     -0.161033   6 O  s         
    60     -0.157283   5 C  px        

 Vector   32  Occ=2.000000D+00  E=-8.067087D-01
              MO Center= -3.1D-01, -4.4D-01,  7.1D-02, r^2= 8.3D+00
   Bfn.  Coefficient  Atom+Function         Bfn.  Coefficient  Atom+Function  
  ----- ------------  ---------------      ----- ------------  ---------------
   309      0.207386  19 C  s               128      0.187897   8 H  s         
   277     -0.178412  17 N  px              386      0.177495  24 C  s         
   109      0.168011   7 N  pz              225      0.156950  15 C  s         
    55     -0.152442   5 C  s         

 Vector   33  Occ=2.000000D+00  E=-7.755234D-01
              MO Center= -1.4D+00,  8.6D-01, -2.3D-01, r^2= 4.4D+00
   Bfn.  Coefficient  Atom+Function         Bfn.  Coefficient  Atom+Function  
  ----- ------------  ---------------      ----- ------------  ---------------
   314      0.271244  19 C  px              576     -0.259509  36 N  px        
   225      0.242970  15 C  s               298     -0.214318  18 H  s         
   529      0.203721  34 C  px              343     -0.195728  21 C  s         
   523     -0.189816  34 C  s               279      0.172880  17 N  pz        
   597      0.163715  37 H  s               549      0.161408  35 O  s         

 Vector   34  Occ=2.000000D+00  E=-7.623354D-01
              MO Center=  8.6D-01,  1.8D+00,  4.5D-01, r^2= 8.8D+00
   Bfn.  Coefficient  Atom+Function         Bfn.  Coefficient  Atom+Function  
  ----- ------------  ---------------      ----- ------------  ---------------
   386      0.509243  24 C  s               343     -0.413559  21 C  s         
   420     -0.275576  26 C  s               472     -0.235173  30 C  s         
   385      0.222743  24 C  s               409      0.211307  25 H  s         
   145     -0.188182   9 C  py        

 Vector   35  Occ=2.000000D+00  E=-7.303810D-01
              MO Center= -9.5D-01, -1.2D-01,  1.1D-01, r^2= 8.3D+00
   Bfn.  Coefficient  Atom+Function         Bfn.  Coefficient  Atom+Function  
  ----- ------------  ---------------      ----- ------------  ---------------
   525      0.311907  34 C  s               343      0.253755  21 C  s         
   386     -0.247170  24 C  s               145     -0.229854   9 C  py        
   225      0.202282  15 C  s               228      0.191522  15 C  py        
   139     -0.183977   9 C  s               606     -0.173424  38 H  s         
   314     -0.168499  19 C  px              597      0.163683  37 H  s         

 Vector   36  Occ=2.000000D+00  E=-7.262047D-01
              MO Center= -1.2D+00,  1.2D-01, -1.3D-01, r^2= 7.1D+00
   Bfn.  Coefficient  Atom+Function         Bfn.  Coefficient  Atom+Function  
  ----- ------------  ---------------      ----- ------------  ---------------
   225      0.257271  15 C  s                56      0.252446   5 C  s         
   597     -0.236435  37 H  s               145     -0.221500   9 C  py        
   578     -0.202321  36 N  pz              577      0.192199  36 N  py        
   526     -0.181758  34 C  px              139     -0.180161   9 C  s         
   315     -0.179635  19 C  py              228      0.152812  15 C  py        

 Vector   37  Occ=2.000000D+00  E=-7.019046D-01
              MO Center=  1.0D+00, -2.3D+00, -2.5D-01, r^2= 6.6D+00
   Bfn.  Coefficient  Atom+Function         Bfn.  Coefficient  Atom+Function  
  ----- ------------  ---------------      ----- ------------  ---------------
    57      0.231030   5 C  px               17     -0.185922   2 C  px        
    83     -0.167245   6 O  py               82      0.164741   6 O  px        
    80     -0.163721   6 O  s                14     -0.153473   2 C  px        

 Vector   38  Occ=2.000000D+00  E=-6.889852D-01
              MO Center=  5.3D-02, -2.4D+00, -3.6D-01, r^2= 4.8D+00
   Bfn.  Coefficient  Atom+Function         Bfn.  Coefficient  Atom+Function  
  ----- ------------  ---------------      ----- ------------  ---------------
    84      0.216409   6 O  pz              143      0.208761   9 C  pz        
   144      0.201749   9 C  px              162     -0.197958  10 H  s         
    80     -0.189581   6 O  s               108      0.176130   7 N  py        
    58      0.159983   5 C  py              107     -0.154706   7 N  px        

 Vector   39  Occ=2.000000D+00  E=-6.710504D-01
              MO Center= -1.3D+00,  1.5D+00, -4.8D-01, r^2= 5.3D+00
   Bfn.  Coefficient  Atom+Function         Bfn.  Coefficient  Atom+Function  
  ----- ------------  ---------------      ----- ------------  ---------------
   309      0.276010  19 C  s               576     -0.245113  36 N  px        
   526      0.243343  34 C  px              606      0.236754  38 H  s         
   315      0.224648  19 C  py              549     -0.195560  35 O  s         
   333     -0.183911  20 H  s               524     -0.165138  34 C  s         
   313     -0.163080  19 C  pz              607      0.155437  38 H  s         

 Vector   40  Occ=2.000000D+00  E=-6.620618D-01
              MO Center= -7.6D-01, -5.1D-02,  3.8D-01, r^2= 6.2D+00
   Bfn.  Coefficient  Atom+Function         Bfn.  Coefficient  Atom+Function  
  ----- ------------  ---------------      ----- ------------  ---------------
   278     -0.229769  17 N  py              250      0.217406  16 O  s         
   315      0.198185  19 C  py              254      0.186685  16 O  pz        
   227      0.185522  15 C  px              252     -0.175408  16 O  px        
   312      0.167451  19 C  py              313      0.167407  19 C  pz        
   332      0.162522  20 H  s         

 Vector   41  Occ=2.000000D+00  E=-6.349428D-01
              MO Center=  1.7D+00, -2.6D+00, -2.0D-03, r^2= 6.2D+00
   Bfn.  Coefficient  Atom+Function         Bfn.  Coefficient  Atom+Function  
  ----- ------------  ---------------      ----- ------------  ---------------
   139      0.313559   9 C  s                15      0.227944   2 C  py        
    35      0.215168   3 H  s                44     -0.216096   4 H  s         
    16      0.196957   2 C  pz               83      0.167260   6 O  py        
    59      0.165094   5 C  pz        

 Vector   42  Occ=2.000000D+00  E=-6.234636D-01
              MO Center=  7.2D-01,  2.1D+00,  3.1D-01, r^2= 9.2D+00
   Bfn.  Coefficient  Atom+Function         Bfn.  Coefficient  Atom+Function  
  ----- ------------  ---------------      ----- ------------  ---------------
   309      0.269649  19 C  s               390     -0.198709  24 C  pz        
   367     -0.178988  22 H  s               346      0.161999  21 C  py        

 Vector   43  Occ=2.000000D+00  E=-6.115203D-01
              MO Center= -8.7D-01, -5.6D-01,  3.0D-01, r^2= 8.9D+00
   Bfn.  Coefficient  Atom+Function         Bfn.  Coefficient  Atom+Function  
  ----- ------------  ---------------      ----- ------------  ---------------
   252      0.233478  16 O  px              254     -0.189758  16 O  pz        
    56      0.177300   5 C  s               298      0.168327  18 H  s         
   227     -0.167273  15 C  px              315      0.166363  19 C  py        
   145     -0.159705   9 C  py              299      0.160147  18 H  s         
   229      0.152140  15 C  pz        

 Vector   44  Occ=2.000000D+00  E=-6.046026D-01
              MO Center=  7.7D-01, -2.2D+00, -3.7D-01, r^2= 6.7D+00
   Bfn.  Coefficient  Atom+Function         Bfn.  Coefficient  Atom+Function  
  ----- ------------  ---------------      ----- ------------  ---------------
    84      0.240021   6 O  pz               59     -0.206310   5 C  pz        
    14      0.201623   2 C  px               58      0.197978   5 C  py        
    83     -0.190126   6 O  py               80     -0.168404   6 O  s         
   128      0.164040   8 H  s         

 Vector   45  Occ=2.000000D+00  E=-5.913809D-01
              MO Center=  6.3D-01, -5.8D-02, -3.3D-01, r^2= 1.4D+01
   Bfn.  Coefficient  Atom+Function         Bfn.  Coefficient  Atom+Function  
  ----- ------------  ---------------      ----- ------------  ---------------
   553      0.214928  35 O  pz                2     -0.187483   1 H  s         
     1     -0.176301   1 H  s                16      0.168481   2 C  pz        
   549     -0.153430  35 O  s         

 Vector   46  Occ=2.000000D+00  E=-5.889123D-01
              MO Center=  1.2D+00,  2.1D+00,  3.6D-01, r^2= 1.0D+01
   Bfn.  Coefficient  Atom+Function         Bfn.  Coefficient  Atom+Function  
  ----- ------------  ---------------      ----- ------------  ---------------
   423      0.219545  26 C  py              452     -0.209824  28 H  s         
   474      0.202944  30 C  px              453     -0.193641  28 H  s         
    13      0.186754   2 C  s               513     -0.173965  33 H  s         
   376      0.159728  23 H  s               389      0.160366  24 C  py        
   392      0.156222  24 C  py        

 Vector   47  Occ=2.000000D+00  E=-5.860070D-01
              MO Center=  6.4D-01, -1.1D+00, -2.1D-01, r^2= 1.5D+01
   Bfn.  Coefficient  Atom+Function         Bfn.  Coefficient  Atom+Function  
  ----- ------------  ---------------      ----- ------------  ---------------
     1      0.250532   1 H  s                 2      0.208975   1 H  s         
    16     -0.198735   2 C  pz              553      0.183502  35 O  pz        
    14      0.171078   2 C  px              196      0.161325  12 H  s         
   175     -0.156874  11 C  px              197      0.155378  12 H  s         

 Vector   48  Occ=2.000000D+00  E=-5.643174D-01
              MO Center= -8.5D-02, -3.3D-01,  2.8D-01, r^2= 1.5D+01
   Bfn.  Coefficient  Atom+Function         Bfn.  Coefficient  Atom+Function  
  ----- ------------  ---------------      ----- ------------  ---------------
   174      0.193262  11 C  s               177      0.184049  11 C  pz        
   314      0.177240  19 C  px              214      0.174748  14 H  s         
   309      0.173228  19 C  s                56     -0.160950   5 C  s         
   206     -0.150400  13 H  s         

 Vector   49  Occ=2.000000D+00  E=-5.619199D-01
              MO Center= -7.1D-01, -2.6D-01,  3.2D-01, r^2= 1.3D+01
   Bfn.  Coefficient  Atom+Function         Bfn.  Coefficient  Atom+Function  
  ----- ------------  ---------------      ----- ------------  ---------------
   197      0.258243  12 H  s               176      0.205854  11 C  py        
   139      0.196288   9 C  s               196      0.184445  12 H  s         
   231      0.165605  15 C  py              174     -0.161843  11 C  s         
   309     -0.160996  19 C  s               205     -0.156695  13 H  s         

 Vector   50  Occ=2.000000D+00  E=-5.580360D-01
              MO Center= -1.9D-01, -5.0D-02, -4.1D-03, r^2= 1.4D+01
   Bfn.  Coefficient  Atom+Function         Bfn.  Coefficient  Atom+Function  
  ----- ------------  ---------------      ----- ------------  ---------------
   139      0.170116   9 C  s               528     -0.153504  34 C  pz        
   176     -0.151101  11 C  py        

 Vector   51  Occ=2.000000D+00  E=-5.479645D-01
              MO Center= -4.1D-01, -1.7D+00,  2.0D-01, r^2= 9.5D+00
   Bfn.  Coefficient  Atom+Function         Bfn.  Coefficient  Atom+Function  
  ----- ------------  ---------------      ----- ------------  ---------------
   309      0.255803  19 C  s               254     -0.228736  16 O  pz        
   197      0.193942  12 H  s                56     -0.192059   5 C  s         
    12      0.190938   2 C  s                55     -0.161064   5 C  s         
   196      0.160570  12 H  s               257     -0.155079  16 O  pz        
   173     -0.151295  11 C  s               227     -0.150686  15 C  px        

 Vector   52  Occ=2.000000D+00  E=-5.438433D-01
              MO Center=  4.5D-01, -2.6D+00, -7.3D-02, r^2= 7.6D+00
   Bfn.  Coefficient  Atom+Function         Bfn.  Coefficient  Atom+Function  
  ----- ------------  ---------------      ----- ------------  ---------------
   175      0.219943  11 C  px               83      0.188504   6 O  py        
    35     -0.187405   3 H  s                16     -0.182602   2 C  pz        
   141     -0.180234   9 C  px              196     -0.153163  12 H  s         
    84      0.151085   6 O  pz        

 Vector   53  Occ=2.000000D+00  E=-5.388252D-01
              MO Center= -1.1D+00,  3.0D-01, -2.6D-01, r^2= 1.0D+01
   Bfn.  Coefficient  Atom+Function         Bfn.  Coefficient  Atom+Function  
  ----- ------------  ---------------      ----- ------------  ---------------
   553      0.194653  35 O  pz              527      0.191838  34 C  py        
   176     -0.168611  11 C  py              578      0.161320  36 N  pz        
   278      0.156814  17 N  py              205      0.153285  13 H  s         

 Vector   54  Occ=2.000000D+00  E=-5.262608D-01
              MO Center=  1.4D+00,  3.8D+00,  2.0D-01, r^2= 3.8D+00
   Bfn.  Coefficient  Atom+Function         Bfn.  Coefficient  Atom+Function  
  ----- ------------  ---------------      ----- ------------  ---------------
   476      0.310094  30 C  pz              504     -0.279651  32 H  s         
   424     -0.277459  26 C  pz              461      0.255246  29 H  s         
   505     -0.212574  32 H  s               421      0.179247  26 C  s         
   462      0.173923  29 H  s               473     -0.157328  30 C  s         
   496      0.156088  31 H  s               444     -0.152608  27 H  s         

 Vector   55  Occ=2.000000D+00  E=-5.244315D-01
              MO Center= -1.1D+00, -2.6D+00,  2.0D-01, r^2= 5.1D+00
   Bfn.  Coefficient  Atom+Function         Bfn.  Coefficient  Atom+Function  
  ----- ------------  ---------------      ----- ------------  ---------------
   174     -0.307056  11 C  s               143      0.283343   9 C  pz        
   177     -0.268419  11 C  pz              162     -0.264790  10 H  s         
   214     -0.249679  14 H  s               173      0.236623  11 C  s         
   206      0.226499  13 H  s               178      0.224447  11 C  px        
   179      0.219292  11 C  py              215     -0.186291  14 H  s         

 Vector   56  Occ=2.000000D+00  E=-5.097611D-01
              MO Center=  1.1D+00,  2.4D+00,  7.0D-02, r^2= 5.6D+00
   Bfn.  Coefficient  Atom+Function         Bfn.  Coefficient  Atom+Function  
  ----- ------------  ---------------      ----- ------------  ---------------
   367      0.304740  22 H  s               496     -0.255945  31 H  s         
   453     -0.244026  28 H  s               423      0.222185  26 C  py        
   366      0.213007  22 H  s               375     -0.206536  23 H  s         
   347      0.201030  21 C  pz              452     -0.188131  28 H  s         
   376     -0.185239  23 H  s               309     -0.161408  19 C  s         

 Vector   57  Occ=2.000000D+00  E=-5.003073D-01
              MO Center=  6.4D-01,  2.3D+00,  2.5D-01, r^2= 6.0D+00
   Bfn.  Coefficient  Atom+Function         Bfn.  Coefficient  Atom+Function  
  ----- ------------  ---------------      ----- ------------  ---------------
   444      0.262658  27 H  s               348      0.228360  21 C  px        
   345      0.223696  21 C  px              514      0.224223  33 H  s         
   311     -0.212539  19 C  px              332      0.195414  20 H  s         
   313      0.191987  19 C  pz              443      0.179512  27 H  s         
   333      0.167285  20 H  s               496     -0.166078  31 H  s         

 Vector   58  Occ=2.000000D+00  E=-4.651684D-01
              MO Center=  3.3D-01,  1.2D+00,  4.4D-01, r^2= 1.0D+01
   Bfn.  Coefficient  Atom+Function         Bfn.  Coefficient  Atom+Function  
  ----- ------------  ---------------      ----- ------------  ---------------
   253      0.309477  16 O  py              256      0.250466  16 O  py        
   389      0.229716  24 C  py              346     -0.221342  21 C  py        
   275     -0.195754  17 N  s               514      0.186077  33 H  s         
   349     -0.177890  21 C  py              475     -0.175149  30 C  py        
   495     -0.160786  31 H  s               496     -0.153383  31 H  s         

 Vector   59  Occ=2.000000D+00  E=-4.583296D-01
              MO Center=  5.6D-01,  4.9D-01,  1.8D-01, r^2= 1.1D+01
   Bfn.  Coefficient  Atom+Function         Bfn.  Coefficient  Atom+Function  
  ----- ------------  ---------------      ----- ------------  ---------------
   253      0.223563  16 O  py              389     -0.213177  24 C  py        
   367     -0.199352  22 H  s               256      0.183084  16 O  py        
    82     -0.179040   6 O  px              475      0.174318  30 C  py        

 Vector   60  Occ=2.000000D+00  E=-4.566840D-01
              MO Center=  9.9D-01,  2.5D+00,  4.0D-01, r^2= 5.6D+00
   Bfn.  Coefficient  Atom+Function         Bfn.  Coefficient  Atom+Function  
  ----- ------------  ---------------      ----- ------------  ---------------
   410      0.288860  25 H  s               390      0.282797  24 C  pz        
   409      0.275325  25 H  s               309     -0.256464  19 C  s         
   525      0.227164  34 C  s               420     -0.217957  26 C  s         
   347     -0.209084  21 C  pz              505      0.207519  32 H  s         
   344     -0.201424  21 C  s               425      0.198120  26 C  px        

 Vector   61  Occ=2.000000D+00  E=-4.489282D-01
              MO Center=  1.3D+00,  2.8D+00,  4.5D-01, r^2= 5.4D+00
   Bfn.  Coefficient  Atom+Function         Bfn.  Coefficient  Atom+Function  
  ----- ------------  ---------------      ----- ------------  ---------------
   388      0.311448  24 C  px              422     -0.272054  26 C  px        
   474     -0.260241  30 C  px              425     -0.246722  26 C  px        
   514      0.201176  33 H  s                56     -0.193164   5 C  s         
   513      0.186067  33 H  s               478      0.181562  30 C  py        
   453     -0.175573  28 H  s               420      0.169878  26 C  s         

 Vector   62  Occ=2.000000D+00  E=-4.425266D-01
              MO Center=  1.3D+00, -2.1D+00, -6.9D-01, r^2= 4.3D+00
   Bfn.  Coefficient  Atom+Function         Bfn.  Coefficient  Atom+Function  
  ----- ------------  ---------------      ----- ------------  ---------------
    82      0.477896   6 O  px               85      0.389329   6 O  px        
    13      0.346921   2 C  s                63     -0.233219   5 C  px        
   225     -0.206560  15 C  s               105      0.193141   7 N  s         
   276      0.182785  17 N  s                17      0.169152   2 C  px        
   144     -0.169753   9 C  px               56     -0.163301   5 C  s         

 Vector   63  Occ=2.000000D+00  E=-4.307730D-01
              MO Center= -1.0D+00,  1.1D+00, -5.1D-01, r^2= 6.4D+00
   Bfn.  Coefficient  Atom+Function         Bfn.  Coefficient  Atom+Function  
  ----- ------------  ---------------      ----- ------------  ---------------
   551      0.422320  35 O  px              554      0.336320  35 O  px        
   279      0.197785  17 N  pz              254     -0.192002  16 O  pz        
   333     -0.189609  20 H  s               282      0.180502  17 N  pz        
   252     -0.157773  16 O  px              541     -0.156600  34 C  dxx       
   277      0.154017  17 N  px              280      0.152405  17 N  px        

 Vector   64  Occ=2.000000D+00  E=-4.068379D-01
              MO Center= -3.2D-01, -1.8D+00,  1.2D-01, r^2= 5.5D+00
   Bfn.  Coefficient  Atom+Function         Bfn.  Coefficient  Atom+Function  
  ----- ------------  ---------------      ----- ------------  ---------------
   253      0.323743  16 O  py              108     -0.276616   7 N  py        
   111     -0.259558   7 N  py              256      0.258436  16 O  py        
   109     -0.215982   7 N  pz              145      0.205486   9 C  py        
   112     -0.189030   7 N  pz               83      0.172797   6 O  py        
   142      0.167164   9 C  py              228     -0.166310  15 C  py        

 Vector   65  Occ=2.000000D+00  E=-3.944590D-01
              MO Center= -2.1D+00,  2.0D+00, -7.4D-01, r^2= 2.3D+00
   Bfn.  Coefficient  Atom+Function         Bfn.  Coefficient  Atom+Function  
  ----- ------------  ---------------      ----- ------------  ---------------
   577     -0.325455  36 N  py              552      0.308874  35 O  py        
   578     -0.297756  36 N  pz              580     -0.293909  36 N  py        
   581     -0.249447  36 N  pz              555      0.246153  35 O  py        
   553      0.244238  35 O  pz              525     -0.223567  34 C  s         
   556      0.197585  35 O  pz        

 Vector   66  Occ=2.000000D+00  E=-3.830351D-01
              MO Center= -1.0D+00,  8.1D-01, -2.9D-01, r^2= 4.4D+00
   Bfn.  Coefficient  Atom+Function         Bfn.  Coefficient  Atom+Function  
  ----- ------------  ---------------      ----- ------------  ---------------
   551      0.320085  35 O  px              309      0.316092  19 C  s         
   279     -0.271308  17 N  pz              554      0.258557  35 O  px        
   282     -0.249836  17 N  pz              277     -0.225927  17 N  px        
   280     -0.211648  17 N  px              254      0.189929  16 O  pz        
   524     -0.176839  34 C  s               234      0.156514  15 C  py        

 Vector   67  Occ=0.000000D+00  E= 2.100398D-02
              MO Center=  1.6D+00, -4.8D+00,  1.4D+00, r^2= 2.0D+01
   Bfn.  Coefficient  Atom+Function         Bfn.  Coefficient  Atom+Function  
  ----- ------------  ---------------      ----- ------------  ---------------
   234      2.830755  15 C  py              226     -2.313974  15 C  s         
   106      2.277592   7 N  s               368     -2.031788  22 H  s         
    12     -1.935161   2 C  s                63     -1.919528   5 C  px        
   147     -1.758008   9 C  px              140     -1.742610   9 C  s         
   207      1.662041  13 H  s                46      1.571920   4 H  s         

 Vector   68  Occ=0.000000D+00  E= 3.437359D-02
              MO Center=  1.0D+00, -2.7D+00,  7.9D-01, r^2= 3.7D+01
   Bfn.  Coefficient  Atom+Function         Bfn.  Coefficient  Atom+Function  
  ----- ------------  ---------------      ----- ------------  ---------------
    63      2.915321   5 C  px              207      2.377428  13 H  s         
    37     -2.343645   3 H  s               368      1.984307  22 H  s         
   454     -1.948428  28 H  s               106      1.889930   7 N  s         
   173     -1.693695  11 C  s               147      1.684612   9 C  px        
   206      1.362366  13 H  s               148      1.331842   9 C  py        

 Vector   69  Occ=0.000000D+00  E= 3.933411D-02
              MO Center= -5.4D-01, -1.5D+00,  1.2D+00, r^2= 4.2D+01
   Bfn.  Coefficient  Atom+Function         Bfn.  Coefficient  Atom+Function  
  ----- ------------  ---------------      ----- ------------  ---------------
   525      4.168040  34 C  s               147     -3.227003   9 C  px        
    63     -3.188708   5 C  px              575     -2.491398  36 N  s         
    46      2.477686   4 H  s                13      1.971134   2 C  s         
   216     -1.642928  14 H  s               473      1.541668  30 C  s         
   198     -1.452784  12 H  s               532     -1.455523  34 C  px        

 Vector   70  Occ=0.000000D+00  E= 4.120869D-02
              MO Center=  6.2D-01, -1.8D+00,  6.8D-02, r^2= 4.0D+01
   Bfn.  Coefficient  Atom+Function         Bfn.  Coefficient  Atom+Function  
  ----- ------------  ---------------      ----- ------------  ---------------
   130     -2.407324   8 H  s                 3      2.357539   1 H  s         
   368     -2.365227  22 H  s               164      2.205023  10 H  s         
   216     -1.979095  14 H  s               575      1.827008  36 N  s         
   149      1.813975   9 C  pz              525     -1.771441  34 C  s         
   454      1.646407  28 H  s               174     -1.592729  11 C  s         

 Vector   71  Occ=0.000000D+00  E= 4.847811D-02
              MO Center=  5.3D-01,  1.8D+00,  9.0D-01, r^2= 5.0D+01
   Bfn.  Coefficient  Atom+Function         Bfn.  Coefficient  Atom+Function  
  ----- ------------  ---------------      ----- ------------  ---------------
   207      2.805082  13 H  s               532     -2.752946  34 C  px        
   445      2.449834  27 H  s               352     -2.185895  21 C  py        
   351     -2.058664  21 C  px               56      1.869615   5 C  s         
   575     -1.866223  36 N  s               174      1.848799  11 C  s         
   608     -1.737125  38 H  s               226     -1.662234  15 C  s         

 Vector   72  Occ=0.000000D+00  E= 5.020220D-02
              MO Center= -2.4D-01,  4.7D-01,  9.1D-01, r^2= 5.0D+01
   Bfn.  Coefficient  Atom+Function         Bfn.  Coefficient  Atom+Function  
  ----- ------------  ---------------      ----- ------------  ---------------
    46      2.828018   4 H  s               575      2.568526  36 N  s         
   234     -2.504797  15 C  py              515      2.415619  33 H  s         
   497      2.273673  31 H  s               318     -2.157268  19 C  py        
   344     -2.159853  21 C  s               532      2.049209  34 C  px        
    56     -2.038043   5 C  s               454     -2.035223  28 H  s         

 Vector   73  Occ=0.000000D+00  E= 5.567633D-02
              MO Center=  7.0D-01, -4.8D-01,  3.0D-01, r^2= 4.2D+01
   Bfn.  Coefficient  Atom+Function         Bfn.  Coefficient  Atom+Function  
  ----- ------------  ---------------      ----- ------------  ---------------
   164      4.066459  10 H  s                56     -3.694856   5 C  s         
   411      3.391519  25 H  s               216     -2.533382  14 H  s         
   113      2.250850   7 N  px              149      2.243434   9 C  pz        
   463     -2.184753  29 H  s                 3     -2.130100   1 H  s         
    63      2.084833   5 C  px              394      1.867735  24 C  px        

 Vector   74  Occ=0.000000D+00  E= 5.957582D-02
              MO Center=  6.5D-01, -4.7D-01,  2.2D-01, r^2= 4.5D+01
   Bfn.  Coefficient  Atom+Function         Bfn.  Coefficient  Atom+Function  
  ----- ------------  ---------------      ----- ------------  ---------------
    56      3.622677   5 C  s               130     -3.290647   8 H  s         
   164     -3.014688  10 H  s               106     -2.749833   7 N  s         
     3      2.684449   1 H  s                63     -2.501957   5 C  px        
   148      2.416718   9 C  py              411      2.319535  25 H  s         
   216      2.079089  14 H  s               149     -1.823238   9 C  pz        

 Vector   75  Occ=0.000000D+00  E= 6.373498D-02
              MO Center=  8.1D-01, -9.7D-01,  1.2D-01, r^2= 4.1D+01
   Bfn.  Coefficient  Atom+Function         Bfn.  Coefficient  Atom+Function  
  ----- ------------  ---------------      ----- ------------  ---------------
   276      3.444133  17 N  s               164      3.268318  10 H  s         
   198     -3.239906  12 H  s               395      3.235002  24 C  py        
   421     -2.832307  26 C  s               473     -2.749453  30 C  s         
     3      2.730698   1 H  s               216      2.617136  14 H  s         
   445     -2.555179  27 H  s                37     -2.525505   3 H  s         

 Vector   76  Occ=0.000000D+00  E= 6.552647D-02
              MO Center=  6.3D-02,  7.9D-01,  8.1D-01, r^2= 5.1D+01
   Bfn.  Coefficient  Atom+Function         Bfn.  Coefficient  Atom+Function  
  ----- ------------  ---------------      ----- ------------  ---------------
   497     -3.998710  31 H  s                13      3.935688   2 C  s         
   473     -3.240651  30 C  s               207      3.175806  13 H  s         
   174      2.923600  11 C  s               198     -2.703285  12 H  s         
   454      2.666682  28 H  s               226     -2.563063  15 C  s         
   481      2.469413  30 C  py              525      2.379167  34 C  s         

 Vector   77  Occ=0.000000D+00  E= 6.766201D-02
              MO Center=  2.0D-01, -2.9D-01,  9.4D-01, r^2= 5.4D+01
   Bfn.  Coefficient  Atom+Function         Bfn.  Coefficient  Atom+Function  
  ----- ------------  ---------------      ----- ------------  ---------------
   207      4.837622  13 H  s                56      4.450827   5 C  s         
   445     -3.243363  27 H  s                46     -3.146817   4 H  s         
   473     -2.578683  30 C  s               515      2.580174  33 H  s         
   497      2.362241  31 H  s               147     -2.327659   9 C  px        
    63     -2.307397   5 C  px              234      2.250084  15 C  py        

 Vector   78  Occ=0.000000D+00  E= 7.461697D-02
              MO Center=  1.5D+00,  1.5D+00, -1.9D-01, r^2= 4.4D+01
   Bfn.  Coefficient  Atom+Function         Bfn.  Coefficient  Atom+Function  
  ----- ------------  ---------------      ----- ------------  ---------------
   463      4.659775  29 H  s               473     -4.455710  30 C  s         
   445     -3.182684  27 H  s               234     -2.984897  15 C  py        
     3     -2.950308   1 H  s               334      2.908104  20 H  s         
   113      2.778448   7 N  px               13     -2.712599   2 C  s         
    56     -2.707685   5 C  s               164     -2.643524  10 H  s         

 Vector   79  Occ=0.000000D+00  E= 8.112587D-02
              MO Center= -5.4D-01,  2.0D+00,  7.5D-02, r^2= 3.8D+01
   Bfn.  Coefficient  Atom+Function         Bfn.  Coefficient  Atom+Function  
  ----- ------------  ---------------      ----- ------------  ---------------
   411      6.138196  25 H  s               525     -4.879506  34 C  s         
   515     -4.432807  33 H  s               318      3.809347  19 C  py        
   396     -3.618738  24 C  pz              599     -3.412557  37 H  s         
   473     -3.371597  30 C  s               377      3.258966  23 H  s         
    56      2.967172   5 C  s               421      2.973973  26 C  s         

 Vector   80  Occ=0.000000D+00  E= 8.332176D-02
              MO Center= -2.0D-01, -9.8D-01,  6.5D-01, r^2= 4.5D+01
   Bfn.  Coefficient  Atom+Function         Bfn.  Coefficient  Atom+Function  
  ----- ------------  ---------------      ----- ------------  ---------------
   130      5.330747   8 H  s               216     -4.960674  14 H  s         
   198      4.831208  12 H  s               506     -3.862479  32 H  s         
   334     -3.454974  20 H  s               377      3.165520  23 H  s         
   445     -2.876912  27 H  s                37     -2.669854   3 H  s         
   164     -2.611625  10 H  s               140      2.537105   9 C  s         

 Vector   81  Occ=0.000000D+00  E= 8.642799D-02
              MO Center=  2.0D+00,  5.7D-01,  4.6D-01, r^2= 4.7D+01
   Bfn.  Coefficient  Atom+Function         Bfn.  Coefficient  Atom+Function  
  ----- ------------  ---------------      ----- ------------  ---------------
   454      6.269304  28 H  s                56     -5.331231   5 C  s         
   525      5.288978  34 C  s                46      3.978958   4 H  s         
   506      3.628705  32 H  s               445     -3.483838  27 H  s         
   463     -3.472243  29 H  s               207     -3.406397  13 H  s         
    13      3.096398   2 C  s               429      2.942175  26 C  py        

 Vector   82  Occ=0.000000D+00  E= 8.854785D-02
              MO Center=  9.4D-01,  3.7D-01,  1.6D-01, r^2= 4.0D+01
   Bfn.  Coefficient  Atom+Function         Bfn.  Coefficient  Atom+Function  
  ----- ------------  ---------------      ----- ------------  ---------------
    56     -7.740060   5 C  s                13      7.242553   2 C  s         
   525      6.870969  34 C  s               368      6.506937  22 H  s         
   174      5.699266  11 C  s               377     -5.383233  23 H  s         
   515     -5.270953  33 H  s               344     -4.513697  21 C  s         
   317      4.146180  19 C  px              334      3.725895  20 H  s         

 Vector   83  Occ=0.000000D+00  E= 9.453915D-02
              MO Center=  2.4D-01,  7.1D-01,  1.6D-01, r^2= 4.2D+01
   Bfn.  Coefficient  Atom+Function         Bfn.  Coefficient  Atom+Function  
  ----- ------------  ---------------      ----- ------------  ---------------
    56      9.329363   5 C  s               421     -4.698952  26 C  s         
   497     -4.628070  31 H  s               344      3.991269  21 C  s         
   599     -3.807322  37 H  s                13     -3.601925   2 C  s         
   387      3.488876  24 C  s               515      3.370655  33 H  s         
[...]
   420     -7.866892  26 C  s                13      6.791247   2 C  s         
   226     -6.631877  15 C  s               140     -6.049446   9 C  s         
   106     -5.730611   7 N  s               352      5.663455  21 C  py        

 Vector  173  Occ=0.000000D+00  E= 4.378029D-01
              MO Center=  2.0D-01, -5.5D-02, -2.4D-02, r^2= 2.5D+01
   Bfn.  Coefficient  Atom+Function         Bfn.  Coefficient  Atom+Function  
  ----- ------------  ---------------      ----- ------------  ---------------
   525     20.323539  34 C  s               575    -11.205489  36 N  s         
   473    -10.428834  30 C  s                13      8.551157   2 C  s         
   173      8.245040  11 C  s               113     -8.020811   7 N  px        
   147     -7.287499   9 C  px               12     -6.992095   2 C  s         
   395      6.969071  24 C  py               63     -6.564263   5 C  px        

 Vector  174  Occ=0.000000D+00  E= 4.448574D-01
              MO Center=  5.5D-01, -5.1D-01,  1.3D-01, r^2= 2.4D+01
   Bfn.  Coefficient  Atom+Function         Bfn.  Coefficient  Atom+Function  
  ----- ------------  ---------------      ----- ------------  ---------------
    56     18.894932   5 C  s               234     12.936715  15 C  py        
   147    -10.558386   9 C  px              525    -10.236679  34 C  s         
    13     -9.569376   2 C  s               319     -8.643865  19 C  pz        
   235      8.179902  15 C  pz              106      7.767159   7 N  s         
   149     -7.526340   9 C  pz              318      7.421827  19 C  py        

 Vector  175  Occ=0.000000D+00  E= 4.484700D-01
              MO Center= -4.7D-01, -5.6D-01, -1.4D-01, r^2= 2.3D+01
   Bfn.  Coefficient  Atom+Function         Bfn.  Coefficient  Atom+Function  
  ----- ------------  ---------------      ----- ------------  ---------------
    56     27.153257   5 C  s               525    -15.410290  34 C  s         
   234     14.198395  15 C  py              174     13.181000  11 C  s         
   276    -12.158135  17 N  s               319    -12.020212  19 C  pz        
   317    -10.246439  19 C  px               13     -9.532340   2 C  s         
   148      8.870519   9 C  py              113     -8.159480   7 N  px        

 Vector  176  Occ=0.000000D+00  E= 4.495898D-01
              MO Center=  1.5D-01,  1.2D+00, -9.0D-03, r^2= 2.2D+01
   Bfn.  Coefficient  Atom+Function         Bfn.  Coefficient  Atom+Function  
  ----- ------------  ---------------      ----- ------------  ---------------
   352      7.516313  21 C  py              344      6.952776  21 C  s         
   318     -6.714877  19 C  py              276     -6.495181  17 N  s         
   473     -6.107871  30 C  s               173      5.464989  11 C  s         
   235     -5.414426  15 C  pz              163     -5.251240  10 H  s         
   343     -5.276607  21 C  s               226      5.206788  15 C  s         

 Vector  177  Occ=0.000000D+00  E= 4.543126D-01
              MO Center=  7.0D-01,  8.6D-01,  3.7D-01, r^2= 2.2D+01
   Bfn.  Coefficient  Atom+Function         Bfn.  Coefficient  Atom+Function  
  ----- ------------  ---------------      ----- ------------  ---------------
   525    -14.584520  34 C  s               276     14.241715  17 N  s         
   226     -9.039361  15 C  s               318      8.777089  19 C  py        
   396     -7.931417  24 C  pz              575      7.828806  36 N  s         
    13      7.207104   2 C  s               472      6.878702  30 C  s         
   174      6.317124  11 C  s               505     -6.301942  32 H  s         

 Vector  178  Occ=0.000000D+00  E= 4.637657D-01
              MO Center=  3.1D-01, -5.3D-01,  2.2D-01, r^2= 2.5D+01
   Bfn.  Coefficient  Atom+Function         Bfn.  Coefficient  Atom+Function  
  ----- ------------  ---------------      ----- ------------  ---------------
    56     12.043252   5 C  s               174    -11.839004  11 C  s         
   318     11.832367  19 C  py              473    -10.623709  30 C  s         
   421     -8.565045  26 C  s               472     -7.337445  30 C  s         
   106      6.633442   7 N  s               276      6.645309  17 N  s         
   317      6.449543  19 C  px              344      6.220754  21 C  s         

 Vector  179  Occ=0.000000D+00  E= 4.680970D-01
              MO Center=  3.4D-01,  8.9D-01, -1.8D-02, r^2= 2.1D+01
   Bfn.  Coefficient  Atom+Function         Bfn.  Coefficient  Atom+Function  
  ----- ------------  ---------------      ----- ------------  ---------------
   525     18.197628  34 C  s               174    -10.781161  11 C  s         
    13     10.250914   2 C  s               319      6.652284  19 C  pz        
   353     -6.502344  21 C  pz               63     -6.366672   5 C  px        
   344     -6.397556  21 C  s               147     -6.277643   9 C  px        
   343      5.384507  21 C  s               394      5.022151  24 C  px        

 Vector  180  Occ=0.000000D+00  E= 4.710812D-01
              MO Center=  3.6D-01, -8.2D-01,  3.2D-01, r^2= 2.3D+01
   Bfn.  Coefficient  Atom+Function         Bfn.  Coefficient  Atom+Function  
  ----- ------------  ---------------      ----- ------------  ---------------
   174     25.106734  11 C  s               226    -23.732317  15 C  s         
    13     17.947208   2 C  s               140    -17.376245   9 C  s         
   575    -17.386812  36 N  s               525     15.888432  34 C  s         
   148     13.037241   9 C  py               12     12.829860   2 C  s         
   106     12.362337   7 N  s               421    -10.986659  26 C  s         

 Vector  181  Occ=0.000000D+00  E= 4.747909D-01
              MO Center= -4.9D-01, -1.7D+00,  2.4D-01, r^2= 2.1D+01
   Bfn.  Coefficient  Atom+Function         Bfn.  Coefficient  Atom+Function  
  ----- ------------  ---------------      ----- ------------  ---------------
    56     19.830890   5 C  s                13    -12.070420   2 C  s         
   525    -11.663749  34 C  s               276      7.749866  17 N  s         
   226     -7.140944  15 C  s               473     -7.159561  30 C  s         
   575      6.708267  36 N  s               234      6.473077  15 C  py        
   233     -6.398777  15 C  px              215      6.253092  14 H  s         

 Vector  182  Occ=0.000000D+00  E= 4.794626D-01
              MO Center=  8.2D-02,  9.5D-02,  1.7D-02, r^2= 2.4D+01
   Bfn.  Coefficient  Atom+Function         Bfn.  Coefficient  Atom+Function  
  ----- ------------  ---------------      ----- ------------  ---------------
   525    -17.612975  34 C  s                56     16.942183   5 C  s         
    13    -14.601054   2 C  s               317    -12.347020  19 C  px        
   575     12.149127  36 N  s               368    -10.182540  22 H  s         
    12     -9.469218   2 C  s               174      8.888584  11 C  s         
   387      8.276947  24 C  s                45      7.718439   4 H  s         

 Vector  183  Occ=0.000000D+00  E= 4.806769D-01
              MO Center=  1.6D-01,  4.4D-01,  9.7D-02, r^2= 2.4D+01
   Bfn.  Coefficient  Atom+Function         Bfn.  Coefficient  Atom+Function  
  ----- ------------  ---------------      ----- ------------  ---------------
   421     17.439698  26 C  s               174    -10.735060  11 C  s         
   226      8.828514  15 C  s               462     -8.288489  29 H  s         
   318      7.702984  19 C  py              420      7.552617  26 C  s         
   317      6.954948  19 C  px              344     -6.336191  21 C  s         
   284     -5.689280  17 N  py               13      5.567357   2 C  s         

 Vector  184  Occ=0.000000D+00  E= 4.831971D-01
              MO Center=  5.7D-01, -2.2D-01,  2.0D-01, r^2= 2.6D+01
   Bfn.  Coefficient  Atom+Function         Bfn.  Coefficient  Atom+Function  
  ----- ------------  ---------------      ----- ------------  ---------------
   174     24.472832  11 C  s                13    -14.968469   2 C  s         
   525    -14.186550  34 C  s               473    -14.031131  30 C  s         
   421     12.142186  26 C  s               234     10.775396  15 C  py        
    56     10.036910   5 C  s               394     -9.436969  24 C  px        
   147      9.333333   9 C  px              319     -8.968470  19 C  pz        

 Vector  185  Occ=0.000000D+00  E= 4.887555D-01
              MO Center= -6.4D-02,  1.0D+00,  2.7D-01, r^2= 2.3D+01
   Bfn.  Coefficient  Atom+Function         Bfn.  Coefficient  Atom+Function  
  ----- ------------  ---------------      ----- ------------  ---------------
   276     12.703532  17 N  s               318      8.463969  19 C  py        
   226     -7.123570  15 C  s               317      6.782130  19 C  px        
   525      6.696215  34 C  s               113     -5.702225   7 N  px        
   334      5.667490  20 H  s               174     -5.468649  11 C  s         
    13      5.367256   2 C  s               140     -4.920765   9 C  s         

 Vector  186  Occ=0.000000D+00  E= 4.906995D-01
              MO Center=  9.5D-01,  5.2D-01,  7.7D-02, r^2= 2.2D+01
   Bfn.  Coefficient  Atom+Function         Bfn.  Coefficient  Atom+Function  
  ----- ------------  ---------------      ----- ------------  ---------------
   421     12.198728  26 C  s               473      6.923276  30 C  s         
   174      6.820293  11 C  s               453     -6.643067  28 H  s         
   344     -6.294999  21 C  s               420      5.874283  26 C  s         
   462     -5.871300  29 H  s               106      5.815875   7 N  s         
   368     -5.546199  22 H  s                12      5.292494   2 C  s         

 Vector  187  Occ=0.000000D+00  E= 4.922172D-01
              MO Center= -1.6D-01, -8.5D-01,  3.7D-01, r^2= 2.4D+01
   Bfn.  Coefficient  Atom+Function         Bfn.  Coefficient  Atom+Function  
  ----- ------------  ---------------      ----- ------------  ---------------
    13     14.924170   2 C  s               226    -10.836584  15 C  s         
    56    -10.674377   5 C  s               140     -8.207580   9 C  s         
    63     -7.922219   5 C  px              174      7.629050  11 C  s         
   106      6.748468   7 N  s               206     -5.810372  13 H  s         
   148      5.697600   9 C  py              181      5.184933  11 C  px        

 Vector  188  Occ=0.000000D+00  E= 4.989554D-01
              MO Center=  5.7D-01, -4.9D-02,  3.3D-01, r^2= 2.1D+01
   Bfn.  Coefficient  Atom+Function         Bfn.  Coefficient  Atom+Function  
  ----- ------------  ---------------      ----- ------------  ---------------
   421     13.420517  26 C  s               317    -10.519205  19 C  px        
   394     -8.820463  24 C  px              395     -8.794588  24 C  py        
   310     -8.166853  19 C  s               318     -8.104408  19 C  py        
   276     -7.892837  17 N  s               343     -7.468871  21 C  s         
    13      7.313810   2 C  s               234      7.003005  15 C  py        

 Vector  189  Occ=0.000000D+00  E= 5.016879D-01
              MO Center=  2.9D-01,  1.3D+00,  3.4D-01, r^2= 2.2D+01
   Bfn.  Coefficient  Atom+Function         Bfn.  Coefficient  Atom+Function  
  ----- ------------  ---------------      ----- ------------  ---------------
   174     11.698611  11 C  s               473     10.485524  30 C  s         
   226     -8.543601  15 C  s               148      7.251353   9 C  py        
   410     -7.170008  25 H  s               505     -6.810878  32 H  s         
   276      6.398116  17 N  s               234     -6.338413  15 C  py        
   386      6.227483  24 C  s                13     -5.869276   2 C  s         


 center of mass
 --------------
 x =  -0.07627182 y =  -0.03531351 z =  -0.04451642

 moments of inertia (a.u.)
 ------------------
        6344.072718023888           0.000000000000           0.000000000000
           0.000000000000        3011.591930977334          -0.000000000000
           0.000000000000          -0.000000000000        8428.353962176721

  Mulliken analysis of the total density
  --------------------------------------

    Atom       Charge   Shell Charges
 -----------   ------   -------------------------------------------------------
    1 H    1     0.96   0.76  0.21  0.01  0.03 -0.06
    2 C    6     6.43   2.01  0.66  0.29  0.22  2.07  1.04 -0.04  0.06  0.12
    3 H    1     0.82   0.76  0.08  0.00  0.03 -0.06
    4 H    1     0.82   0.76  0.08  0.01  0.03 -0.06
    5 C    6     5.03   2.01  0.68  0.07 -0.06  1.89  0.34 -0.15  0.24  0.01
    6 O    8     8.76   2.01  0.82  0.99  0.15  2.80  1.86  0.13  0.02 -0.01
    7 N    7     7.57   2.01  0.72  0.81 -0.11  2.45  1.45  0.15  0.05  0.04
    8 H    1     0.97   0.77  0.21 -0.02  0.05 -0.04
    9 C    6     6.69   2.01  0.66  0.12 -0.01  1.99  1.63 -0.10  0.14  0.25
   10 H    1     1.00   0.78  0.17  0.01  0.03  0.01
   11 C    6     5.70   2.01  0.66  0.18  0.27  2.04  0.51 -0.04  0.07  0.00
   12 H    1     0.98   0.77  0.26  0.01  0.03 -0.08
   13 H    1     0.95   0.77  0.22  0.01  0.03 -0.09
   14 H    1     0.90   0.77  0.15  0.02  0.03 -0.07
   15 C    6     4.50   2.01  0.68 -0.05  0.02  1.88  0.08  0.03  0.23 -0.39
   16 O    8     8.83   2.01  0.82  1.02  0.16  2.80  1.87  0.16  0.01 -0.01
   17 N    7     7.62   2.01  0.72  0.93 -0.09  2.44  1.47  0.03  0.05  0.05
   18 H    1     0.94   0.73  0.27  0.01  0.06 -0.13
   19 C    6     6.24   2.01  0.66  0.09  0.07  1.99  1.22  0.18  0.14 -0.12
   20 H    1     1.10   0.79  0.26 -0.00  0.03  0.04
   21 C    6     5.55   2.01  0.66  0.49 -0.18  2.03  0.42 -0.05  0.09  0.07
   22 H    1     1.14   0.79  0.46 -0.05  0.03 -0.09
   23 H    1     0.92   0.78  0.22 -0.03  0.03 -0.07
   24 C    6     6.89   2.01  0.66  0.16  0.06  2.01  1.49 -0.06  0.12  0.44
   25 H    1     1.06   0.80  0.28  0.02  0.03 -0.07
   26 C    6     5.47   2.01  0.66  0.17  0.13  2.04  0.55 -0.08  0.07 -0.08
   27 H    1     1.03   0.78  0.30  0.00  0.03 -0.08
   28 H    1     1.05   0.78  0.30  0.02  0.03 -0.08
   29 H    1     0.92   0.77  0.19  0.01  0.03 -0.07
   30 C    6     5.72   2.01  0.66  0.33  0.16  2.04  0.50 -0.04  0.07 -0.02
   31 H    1     1.03   0.78  0.30  0.01  0.03 -0.09
   32 H    1     0.86   0.77  0.15  0.01  0.03 -0.10
   33 H    1     0.96   0.78  0.22  0.00  0.03 -0.08
   34 C    6     4.58   2.01  0.68 -0.03  0.20  1.89 -0.19 -0.03  0.24 -0.18
   35 O    8     8.80   2.01  0.82  1.04  0.14  2.79  1.85  0.14  0.01 -0.00
   36 N    7     7.30   2.01  0.72  0.86 -0.16  2.46  1.28  0.10  0.04 -0.01
   37 H    1     0.90   0.73  0.19 -0.01  0.06 -0.07
   38 H    1     1.02   0.76  0.24 -0.00  0.05 -0.02

       Multipole analysis of the density wrt the origin
       ------------------------------------------------

     L   x y z        total         open         nuclear
     -   - - -        -----         ----         -------
     0   0 0 0     -0.000000      0.000000    132.000000

     1   1 0 0      0.571159      0.000000     -0.000000
     1   0 1 0     -2.368337      0.000000     -0.000000
     1   0 0 1      1.275698      0.000000     -0.000000

     2   2 0 0    -74.156735      0.000000   1461.069303
     2   1 1 0     -1.381408      0.000000     47.198872
     2   1 0 1      4.613368      0.000000      9.528322
     2   0 2 0    -69.696998      0.000000   3341.907370
     2   0 1 1      1.913564      0.000000      9.553808
     2   0 0 2    -85.012833      0.000000    264.524678


 Task  times  cpu:     5739.9s     wall:     6057.9s


                                NWChem Input Module
                                -------------------


 Summary of allocated global arrays
-----------------------------------
  No active global arrays


MA_summarize_allocated_blocks: starting scan ...
MA_summarize_allocated_blocks: scan completed: 0 heap blocks, 0 stack blocks
MA usage statistics:

	allocation statistics:
					      heap	     stack
					      ----	     -----
	current number of blocks	         0	         0
	maximum number of blocks	        16	        14
	current total bytes		         0	         0
	maximum total bytes		    131256	  28332184
	maximum total K-bytes		       132	     28333
	maximum total M-bytes		         1	        29


                                     CITATION
                                     --------
                Please cite the following reference when publishing
                           results obtained with NWChem:

          E. Apra, E. J. Bylaska, W. A. de Jong, N. Govind, K. Kowalski,
       T. P. Straatsma, M. Valiev, H. J. J. van Dam, Y. Alexeev, J. Anchell,
       V. Anisimov, F. W. Aquino, R. Atta-Fynn, J. Autschbach, N. P. Bauman,
     J. C. Becca, D. E. Bernholdt, K. Bhaskaran-Nair, S. Bogatko, P. Borowski,
         J. Boschen, J. Brabec, A. Bruner, E. Cauet, Y. Chen, G. N. Chuev,
      C. J. Cramer, J. Daily, M. J. O. Deegan, T. H. Dunning Jr., M. Dupuis,
   K. G. Dyall, G. I. Fann, S. A. Fischer, A. Fonari, H. Fruchtl, L. Gagliardi,
      J. Garza, N. Gawande, S. Ghosh, K. Glaesemann, A. W. Gotz, J. Hammond,
       V. Helms, E. D. Hermes, K. Hirao, S. Hirata, M. Jacquelin, L. Jensen,
   B. G. Johnson, H. Jonsson, R. A. Kendall, M. Klemm, R. Kobayashi, V. Konkov,
      S. Krishnamoorthy, M. Krishnan, Z. Lin, R. D. Lins, R. J. Littlefield,
      A. J. Logsdail, K. Lopata, W. Ma, A. V. Marenich, J. Martin del Campo,
   D. Mejia-Rodriguez, J. E. Moore, J. M. Mullin, T. Nakajima, D. R. Nascimento,
    J. A. Nichols, P. J. Nichols, J. Nieplocha, A. Otero-de-la-Roza, B. Palmer,
    A. Panyala, T. Pirojsirikul, B. Peng, R. Peverati, J. Pittner, L. Pollack,
   R. M. Richard, P. Sadayappan, G. C. Schatz, W. A. Shelton, D. W. Silverstein,
   D. M. A. Smith, T. A. Soares, D. Song, M. Swart, H. L. Taylor, G. S. Thomas,
            V. Tipparaju, D. G. Truhlar, K. Tsemekhman, T. Van Voorhis,
      A. Vazquez-Mayagoitia, P. Verma, O. Villa, A. Vishnu, K. D. Vogiatzis,
        D. Wang, J. H. Weare, M. J. Williamson, T. L. Windus, K. Wolinski,
        A. T. Wong, Q. Wu, C. Yang, Q. Yu, M. Zacharias, Z. Zhang, Y. Zhao,
                                and R. J. Harrison
                        "NWChem: Past, present, and future
                         J. Chem. Phys. 152, 184102 (2020)
                               doi:10.1063/5.0004997

                                      AUTHORS
                                      -------
  E. Apra, E. J. Bylaska, N. Govind, K. Kowalski, M. Valiev, D. Mejia-Rodriguez,
       A. Kunitsa, N. P. Bauman, A. Panyala, W. A. de Jong, T. P. Straatsma,
   H. J. J. van Dam, D. Wang, T. L. Windus, J. Hammond, J. Autschbach, A. Woods,
    K. Bhaskaran-Nair, J. Brabec, K. Lopata, S. A. Fischer, S. Krishnamoorthy,
     M. Jacquelin, W. Ma, M. Klemm, O. Villa, Y. Chen, V. Anisimov, F. Aquino,
     S. Hirata, M. T. Hackler, E. Hermes, L. Jensen, J. E. Moore, J. C. Becca,
      V. Konjkov, T. Risthaus, M. Malagoli, A. Marenich, A. Otero-de-la-Roza,
        J. Mullin, P. Nichols, R. Peverati, J. Pittner, Y. Zhao, P.-D. Fan,
        A. Fonari, M. J. Williamson, R. J. Harrison, J. R. Rehr, M. Dupuis,
     D. Silverstein, D. M. A. Smith, J. Nieplocha, V. Tipparaju, M. Krishnan,
     B. E. Van Kuiken, A. Vazquez-Mayagoitia, M. Swart, Q. Wu, T. Van Voorhis,
     A. A. Auer, M. Nooijen, L. D. Crosby, E. Brown, G. Cisneros, G. I. Fann,
   H. Fruchtl, J. Garza, K. Hirao, R. A. Kendall, J. A. Nichols, K. Tsemekhman,
    K. Wolinski, J. Anchell, D. E. Bernholdt, P. Borowski, T. Clark, D. Clerc,
   H. Dachsel, M. J. O. Deegan, K. Dyall, D. Elwood, E. Glendening, M. Gutowski,
   A. C. Hess, J. Jaffe, B. G. Johnson, J. Ju, R. Kobayashi, R. Kutteh, Z. Lin,
   R. Littlefield, X. Long, B. Meng, T. Nakajima, S. Niu, L. Pollack, M. Rosing,
   K. Glaesemann, G. Sandrone, M. Stave, H. Taylor, G. Thomas, J. H. van Lenthe,
                               A. T. Wong, Z. Zhang.

 Total times  cpu:     5739.9s     wall:     6058.6s
