export TMOUT=5400
export TMPDIR=/tmp
export PTMPDIR=/tmp/ptmp
 argument  1 = ALA_ILE_1.nw
                                         
                                         


             Northwest Computational Chemistry Package (NWChem) 7.2.0
             --------------------------------------------------------


                    Environmental Molecular Sciences Laboratory
                       Pacific Northwest National Laboratory
                                Richland, WA 99352

                              Copyright (c) 1994-2022
                       Pacific Northwest National Laboratory
                            Battelle Memorial Institute

             NWChem is an open-source computational chemistry package
                        distributed under the terms of the
                      Educational Community License (ECL) 2.0
             A copy of the license is included with this distribution
                              in the LICENSE.TXT file

                                  ACKNOWLEDGMENT
                                  --------------

            This software and its documentation were developed at the
            EMSL at Pacific Northwest National Laboratory, a multiprogram
            national laboratory, operated for the U.S. Department of Energy
            by Battelle under Contract Number DE-AC05-76RL01830. Support
            for this work was provided by the Department of Energy Office
            of Biological and Environmental Research, Office of Basic
            Energy Sciences, and the Office of Advanced Scientific Computing.


           Job information
           ---------------

    hostname        = nova18-33
    program         = /opt/rit/el9/20230413/app/linux-rhel9-x86_64_v3/gcc-11.2.1/nwchem-7.2.0-oxtctbuhfuzyfaoziquq6bki22grib3g/bin/nwchem
    date            = Fri Jun 27 10:47:03 2025

    compiled        = Wed_May_17_23:46:39_2023
    source          = /tmp/root/spack-stage/spack-stage-nwchem-7.2.0-oxtctbuhfuzyfaoziquq6bki22grib3g/spack-src
    nwchem branch   = 7.2.0
    nwchem revision = d0d141fd
    ga revision     = 5.8.0
    use scalapack   = T
    input           = ALA_ILE_1.nw
    prefix          = ALA_ILE_1.
    data base       = ./ALA_ILE_1.db
    status          = startup
    nproc           =        8
    time left       =     -1s



           Memory information
           ------------------

    heap     =   26214398 doubles =    200.0 Mbytes
    stack    =   26214395 doubles =    200.0 Mbytes
    global   =   52428800 doubles =    400.0 Mbytes (distinct from heap & stack)
    total    =  104857593 doubles =    800.0 Mbytes
    verify   = yes
    hardfail = no 


           Directory information
           ---------------------

  0 permanent = .
  0 scratch   = .




                                NWChem Input Module
                                -------------------



 Scaling coordinates for geometry "geometry" by  1.889725989
 (inverse scale =  0.529177249)

 C1  symmetry detected

          ------
          auto-z
          ------
  no constraints, skipping    0.0000000000000000     
  no constraints, skipping    0.0000000000000000     


                             Geometry "geometry" -> ""
                             -------------------------

 Output coordinates in angstroms (scale by  1.889725989 to convert to a.u.)

  No.       Tag          Charge          X              Y              Z
 ---- ---------------- ---------- -------------- -------------- --------------
    1 H                    1.0000    -2.51992515     4.22349760     0.09623768
    2 C                    6.0000    -2.56348617     3.15916227     0.31796214
    3 H                    1.0000    -3.47888247     2.73997376    -0.09851309
    4 H                    1.0000    -2.54826160     3.00196585     1.39477387
    5 C                    6.0000    -1.37780530     2.46687194    -0.30918374
    6 O                    8.0000    -1.54721223     1.57961723    -1.13567837
    7 N                    7.0000    -0.17105606     2.85665078     0.09535271
    8 H                    1.0000    -0.12044177     3.58378802     0.78928904
    9 C                    6.0000     1.09968669     2.31490732    -0.40217405
   10 H                    1.0000     1.01817238     2.21374582    -1.48488997
   11 C                    6.0000     2.19973739     3.34964956    -0.11524555
   12 H                    1.0000     1.93814061     4.30780634    -0.56512967
   13 H                    1.0000     2.32659468     3.47349048     0.96117289
   14 H                    1.0000     3.14359273     3.00772557    -0.54310310
   15 C                    6.0000     1.42651165     0.90208274     0.14680332
   16 O                    8.0000     2.50111617     0.66794384     0.69410681
   17 N                    7.0000     0.48965555    -0.04296200     0.01803577
   18 H                    1.0000    -0.35967177     0.22804874    -0.46654888
   19 C                    6.0000     0.53078119    -1.40628864     0.58577088
   20 H                    1.0000     0.91056804    -1.31348283     1.60418535
   21 C                    6.0000    -0.90428793    -1.98310615     0.69276699
   22 H                    1.0000    -0.82746951    -2.96323530     1.16714954
   23 C                    6.0000    -1.76497473    -1.10555690     1.62158320
   24 H                    1.0000    -2.00357084    -0.15633033     1.14095465
   25 H                    1.0000    -2.69365908    -1.62079917     1.86601273
   26 H                    1.0000    -1.22970243    -0.91409387     2.55260761
   27 C                    6.0000    -1.56886492    -2.17368624    -0.69209497
   28 H                    1.0000    -1.75692962    -1.20170784    -1.14965989
   29 H                    1.0000    -0.89240195    -2.72413451    -1.34584839
   30 C                    6.0000    -2.88897515    -2.95326093    -0.63890390
   31 H                    1.0000    -3.64608181    -2.38483948    -0.10043517
   32 H                    1.0000    -3.24344471    -3.12774745    -1.65501747
   33 H                    1.0000    -2.73323189    -3.91476655    -0.14799762
   34 C                    6.0000     1.51380571    -2.37610405    -0.11253841
   35 O                    8.0000     1.31676383    -3.58478029    -0.12643935
   36 N                    7.0000     2.58490546    -1.88513988    -0.72014066
   37 H                    1.0000     3.21740306    -2.52622077    -1.16825904
   38 H                    1.0000     2.79655566    -0.90279820    -0.62410409

      Atomic Mass 
      ----------- 

      H                  1.007825
      C                 12.000000
      O                 15.994910
      N                 14.003070


 Effective nuclear repulsion energy (a.u.)    1339.8884057890

            Nuclear Dipole moment (a.u.) 
            ----------------------------
        X                 Y               Z
 ---------------- ---------------- ----------------
    -0.0000000000     0.0000000000     0.0000000000



                                Z-matrix (autoz)
                                -------- 

 Units are Angstrom for bonds and degrees for angles

      Type          Name      I     J     K     L     M      Value
      ----------- --------  ----- ----- ----- ----- ----- ----------
    1 Stretch                  1     2                       1.08806
    2 Stretch                  2     3                       1.08955
    3 Stretch                  2     4                       1.08833
    4 Stretch                  2     5                       1.50944
    5 Stretch                  5     6                       1.22434
    6 Stretch                  5     7                       1.33110
    7 Stretch                  7     8                       1.00640
    8 Stretch                  7     9                       1.46827
    9 Stretch                  9    10                       1.09048
   10 Stretch                  9    11                       1.53725
   11 Stretch                  9    15                       1.55057
   12 Stretch                 11    12                       1.09036
   13 Stretch                 11    13                       1.09092
   14 Stretch                 11    14                       1.09125
   15 Stretch                 15    16                       1.22847
   16 Stretch                 15    17                       1.33693
   17 Stretch                 17    18                       1.01470
   18 Stretch                 17    19                       1.47739
   19 Stretch                 19    20                       1.09088
   20 Stretch                 19    21                       1.55035
   21 Stretch                 19    34                       1.54742
   22 Stretch                 21    22                       1.09160
   23 Stretch                 21    23                       1.54064
   24 Stretch                 21    27                       1.54785
   25 Stretch                 23    24                       1.09040
   26 Stretch                 23    25                       1.08981
   27 Stretch                 23    26                       1.09086
   28 Stretch                 27    28                       1.09063
   29 Stretch                 27    29                       1.08995
   30 Stretch                 27    30                       1.53403
   31 Stretch                 30    31                       1.08916
   32 Stretch                 30    32                       1.09022
   33 Stretch                 30    33                       1.09075
   34 Stretch                 34    35                       1.22471
   35 Stretch                 34    36                       1.32570
   36 Stretch                 36    37                       1.00591
   37 Stretch                 36    38                       1.00946
   38 Bend                     1     2     3               109.39565
   39 Bend                     1     2     4               110.02023
   40 Bend                     1     2     5               109.42211
   41 Bend                     2     5     6               120.27500
   42 Bend                     2     5     7               116.84364
   43 Bend                     3     2     4               109.53492
   44 Bend                     3     2     5               108.94632
   45 Bend                     4     2     5               109.50265
   46 Bend                     5     7     8               117.82155
   47 Bend                     5     7     9               125.00139
   48 Bend                     6     5     7               122.87448
   49 Bend                     7     9    10               107.81675
   50 Bend                     7     9    11               107.92216
   51 Bend                     7     9    15               113.49332
   52 Bend                     8     7     9               117.17473
   53 Bend                     9    11    12               110.04769
   54 Bend                     9    11    13               110.10822
   55 Bend                     9    11    14               109.56343
   56 Bend                     9    15    16               121.04928
   57 Bend                     9    15    17               117.53416
   58 Bend                    10     9    11               107.53306
   59 Bend                    10     9    15               106.42479
   60 Bend                    11     9    15               113.35346
   61 Bend                    12    11    13               109.58827
   62 Bend                    12    11    14               108.72816
   63 Bend                    13    11    14               108.77534
   64 Bend                    15    17    18               116.34297
   65 Bend                    15    17    19               126.56841
   66 Bend                    16    15    17               121.41048
   67 Bend                    17    19    20               106.85442
   68 Bend                    17    19    21               110.12599
   69 Bend                    17    19    34               114.99952
   70 Bend                    18    17    19               116.95446
   71 Bend                    19    21    22               107.39243
   72 Bend                    19    21    23               110.29159
   73 Bend                    19    21    27               112.42615
   74 Bend                    19    34    35               121.42885
   75 Bend                    19    34    36               119.20842
   76 Bend                    20    19    21               106.82696
   77 Bend                    20    19    34               104.68163
   78 Bend                    21    19    34               112.70546
   79 Bend                    21    23    24               110.63179
   80 Bend                    21    23    25               109.99763
   81 Bend                    21    23    26               109.90057
   82 Bend                    21    27    28               109.85682
   83 Bend                    21    27    29               109.41156
   84 Bend                    21    27    30               113.64258
   85 Bend                    22    21    23               106.78329
   86 Bend                    22    21    27               107.96751
   87 Bend                    23    21    27               111.69502
   88 Bend                    24    23    25               108.90325
   89 Bend                    24    23    26               109.31589
   90 Bend                    25    23    26               108.04111
   91 Bend                    27    30    31               110.49457
   92 Bend                    27    30    32               109.19667
   93 Bend                    27    30    33               109.91965
   94 Bend                    28    27    29               107.78573
   95 Bend                    28    27    30               108.60588
   96 Bend                    29    27    30               107.35198
   97 Bend                    31    30    32               108.56014
   98 Bend                    31    30    33               109.68198
   99 Bend                    32    30    33               108.95417
  100 Bend                    34    36    37               118.43608
  101 Bend                    34    36    38               119.09047
  102 Bend                    35    34    36               119.35913
  103 Bend                    37    36    38               122.05557
  104 Torsion                  1     2     5     6        -120.16083
  105 Torsion                  1     2     5     7          60.76561
  106 Torsion                  2     5     7     8          -0.01594
  107 Torsion                  2     5     7     9        -179.44238
  108 Torsion                  3     2     5     6          -0.60086
  109 Torsion                  3     2     5     7        -179.67442
  110 Torsion                  4     2     5     6         119.17661
  111 Torsion                  4     2     5     7         -59.89695
  112 Torsion                  5     7     9    10          42.80171
  113 Torsion                  5     7     9    11         158.68328
  114 Torsion                  5     7     9    15         -74.81432
  115 Torsion                  6     5     7     8        -179.06329
  116 Torsion                  6     5     7     9           1.51026
  117 Torsion                  7     9    11    12         -56.17533
  118 Torsion                  7     9    11    13          64.73177
  119 Torsion                  7     9    11    14        -175.67413
  120 Torsion                  7     9    15    16        -126.81488
  121 Torsion                  7     9    15    17          52.30012
  122 Torsion                  8     7     9    10        -136.62810
  123 Torsion                  8     7     9    11         -20.74652
  124 Torsion                  8     7     9    15         105.75587
  125 Torsion                  9    15    17    18           2.32950
  126 Torsion                  9    15    17    19        -173.30741
  127 Torsion                 10     9    11    12          59.89180
  128 Torsion                 10     9    11    13        -179.20110
  129 Torsion                 10     9    11    14         -59.60701
  130 Torsion                 10     9    15    16         114.76329
  131 Torsion                 10     9    15    17         -66.12170
  132 Torsion                 11     9    15    16          -3.23075
  133 Torsion                 11     9    15    17         175.88425
  134 Torsion                 12    11     9    15         177.24052
  135 Torsion                 13    11     9    15         -61.85238
  136 Torsion                 14    11     9    15          57.74171
  137 Torsion                 15    17    19    20          42.49398
  138 Torsion                 15    17    19    21         158.16272
  139 Torsion                 15    17    19    34         -73.19375
  140 Torsion                 16    15    17    18        -178.55889
  141 Torsion                 16    15    17    19           5.80420
  142 Torsion                 17    19    21    22        -176.86407
  143 Torsion                 17    19    21    23         -60.86062
  144 Torsion                 17    19    21    27          64.51724
  145 Torsion                 17    19    34    35        -151.79309
  146 Torsion                 17    19    34    36          27.51181
  147 Torsion                 18    17    19    20        -133.11946
  148 Torsion                 18    17    19    21         -17.45072
  149 Torsion                 18    17    19    34         111.19281
  150 Torsion                 19    21    23    24          71.81389
  151 Torsion                 19    21    23    25        -167.82789
  152 Torsion                 19    21    23    26         -48.99590
  153 Torsion                 19    21    27    28         -67.65750
  154 Torsion                 19    21    27    29          50.48082
  155 Torsion                 19    21    27    30         170.44466
  156 Torsion                 19    34    36    37         179.84152
  157 Torsion                 19    34    36    38           7.10550
  158 Torsion                 20    19    21    22         -61.17804
  159 Torsion                 20    19    21    23          54.82541
  160 Torsion                 20    19    21    27        -179.79673
  161 Torsion                 20    19    34    35          91.27815
  162 Torsion                 20    19    34    36         -89.41695
  163 Torsion                 21    19    34    35         -24.44483
  164 Torsion                 21    19    34    36         154.86007
  165 Torsion                 21    27    30    31          66.03460
  166 Torsion                 21    27    30    32        -174.62786
  167 Torsion                 21    27    30    33         -55.15611
  168 Torsion                 22    21    19    34          53.25144
  169 Torsion                 22    21    23    24        -171.80200
  170 Torsion                 22    21    23    25         -51.44379
  171 Torsion                 22    21    23    26          67.38821
  172 Torsion                 22    21    27    28         174.06214
  173 Torsion                 22    21    27    29         -67.79955
  174 Torsion                 22    21    27    30          52.16430
  175 Torsion                 23    21    19    34         169.25489
  176 Torsion                 23    21    27    28          56.95103
  177 Torsion                 23    21    27    29         175.08934
  178 Torsion                 23    21    27    30         -64.94681
  179 Torsion                 24    23    21    27         -53.97807
  180 Torsion                 25    23    21    27          66.38015
  181 Torsion                 26    23    21    27        -174.78786
  182 Torsion                 27    21    19    34         -65.36725
  183 Torsion                 28    27    30    31         -56.55507
  184 Torsion                 28    27    30    32          62.78248
  185 Torsion                 28    27    30    33        -177.74577
  186 Torsion                 29    27    30    31        -172.84161
  187 Torsion                 29    27    30    32         -53.50407
  188 Torsion                 29    27    30    33          65.96768
  189 Torsion                 35    34    36    37          -0.83900
  190 Torsion                 35    34    36    38        -173.57503


            XYZ format geometry
            -------------------
    38
 geometry
 H                    -2.51992515     4.22349760     0.09623768
 C                    -2.56348617     3.15916227     0.31796214
 H                    -3.47888247     2.73997376    -0.09851309
 H                    -2.54826160     3.00196585     1.39477387
 C                    -1.37780530     2.46687194    -0.30918374
 O                    -1.54721223     1.57961723    -1.13567837
 N                    -0.17105606     2.85665078     0.09535271
 H                    -0.12044177     3.58378802     0.78928904
 C                     1.09968669     2.31490732    -0.40217405
 H                     1.01817238     2.21374582    -1.48488997
 C                     2.19973739     3.34964956    -0.11524555
 H                     1.93814061     4.30780634    -0.56512967
 H                     2.32659468     3.47349048     0.96117289
 H                     3.14359273     3.00772557    -0.54310310
 C                     1.42651165     0.90208274     0.14680332
 O                     2.50111617     0.66794384     0.69410681
 N                     0.48965555    -0.04296200     0.01803577
 H                    -0.35967177     0.22804874    -0.46654888
 C                     0.53078119    -1.40628864     0.58577088
 H                     0.91056804    -1.31348283     1.60418535
 C                    -0.90428793    -1.98310615     0.69276699
 H                    -0.82746951    -2.96323530     1.16714954
 C                    -1.76497473    -1.10555690     1.62158320
 H                    -2.00357084    -0.15633033     1.14095465
 H                    -2.69365908    -1.62079917     1.86601273
 H                    -1.22970243    -0.91409387     2.55260761
 C                    -1.56886492    -2.17368624    -0.69209497
 H                    -1.75692962    -1.20170784    -1.14965989
 H                    -0.89240195    -2.72413451    -1.34584839
 C                    -2.88897515    -2.95326093    -0.63890390
 H                    -3.64608181    -2.38483948    -0.10043517
 H                    -3.24344471    -3.12774745    -1.65501747
 H                    -2.73323189    -3.91476655    -0.14799762
 C                     1.51380571    -2.37610405    -0.11253841
 O                     1.31676383    -3.58478029    -0.12643935
 N                     2.58490546    -1.88513988    -0.72014066
 H                     3.21740306    -2.52622077    -1.16825904
 H                     2.79655566    -0.90279820    -0.62410409

 ==============================================================================
                                internuclear distances
 ------------------------------------------------------------------------------
       center one      |      center two      | atomic units |  angstroms
 ------------------------------------------------------------------------------
    2 C                |   1 H                |     2.05613  |     1.08806
    3 H                |   2 C                |     2.05895  |     1.08955
    4 H                |   2 C                |     2.05665  |     1.08833
    5 C                |   2 C                |     2.85243  |     1.50944
    6 O                |   5 C                |     2.31367  |     1.22434
    7 N                |   5 C                |     2.51541  |     1.33110
    8 H                |   7 N                |     1.90182  |     1.00640
    9 C                |   7 N                |     2.77462  |     1.46827
   10 H                |   9 C                |     2.06071  |     1.09048
   11 C                |   9 C                |     2.90498  |     1.53725
   12 H                |  11 C                |     2.06049  |     1.09036
   13 H                |  11 C                |     2.06154  |     1.09092
   14 H                |  11 C                |     2.06217  |     1.09125
   15 C                |   9 C                |     2.93015  |     1.55057
   16 O                |  15 C                |     2.32147  |     1.22847
   17 N                |  15 C                |     2.52644  |     1.33693
   18 H                |  17 N                |     1.91751  |     1.01470
   19 C                |  17 N                |     2.79186  |     1.47739
   20 H                |  19 C                |     2.06146  |     1.09088
   21 C                |  19 C                |     2.92974  |     1.55035
   22 H                |  21 C                |     2.06283  |     1.09160
   23 C                |  21 C                |     2.91139  |     1.54064
   24 H                |  23 C                |     2.06055  |     1.09040
   25 H                |  23 C                |     2.05943  |     1.08981
   26 H                |  23 C                |     2.06143  |     1.09086
   27 C                |  21 C                |     2.92500  |     1.54785
   28 H                |  27 C                |     2.06099  |     1.09063
   29 H                |  27 C                |     2.05971  |     1.08995
   30 C                |  27 C                |     2.89890  |     1.53403
   31 H                |  30 C                |     2.05821  |     1.08916
   32 H                |  30 C                |     2.06022  |     1.09022
   33 H                |  30 C                |     2.06122  |     1.09075
   34 C                |  19 C                |     2.92420  |     1.54742
   35 O                |  34 C                |     2.31437  |     1.22471
   36 N                |  34 C                |     2.50521  |     1.32570
   37 H                |  36 N                |     1.90089  |     1.00591
   38 H                |  36 N                |     1.90761  |     1.00946
 ------------------------------------------------------------------------------
                         number of included internuclear distances:         37
 ==============================================================================



 ==============================================================================
                                 internuclear angles
 ------------------------------------------------------------------------------
        center 1       |       center 2       |       center 3       |  degrees
 ------------------------------------------------------------------------------
    1 H                |   2 C                |   3 H                |   109.40
    1 H                |   2 C                |   4 H                |   110.02
    1 H                |   2 C                |   5 C                |   109.42
    3 H                |   2 C                |   4 H                |   109.53
    3 H                |   2 C                |   5 C                |   108.95
    4 H                |   2 C                |   5 C                |   109.50
    2 C                |   5 C                |   6 O                |   120.28
    2 C                |   5 C                |   7 N                |   116.84
    6 O                |   5 C                |   7 N                |   122.87
    5 C                |   7 N                |   8 H                |   117.82
    5 C                |   7 N                |   9 C                |   125.00
    8 H                |   7 N                |   9 C                |   117.17
    7 N                |   9 C                |  10 H                |   107.82
    7 N                |   9 C                |  11 C                |   107.92
    7 N                |   9 C                |  15 C                |   113.49
   10 H                |   9 C                |  11 C                |   107.53
   10 H                |   9 C                |  15 C                |   106.42
   11 C                |   9 C                |  15 C                |   113.35
    9 C                |  11 C                |  12 H                |   110.05
    9 C                |  11 C                |  13 H                |   110.11
    9 C                |  11 C                |  14 H                |   109.56
   12 H                |  11 C                |  13 H                |   109.59
   12 H                |  11 C                |  14 H                |   108.73
   13 H                |  11 C                |  14 H                |   108.78
    9 C                |  15 C                |  16 O                |   121.05
    9 C                |  15 C                |  17 N                |   117.53
   16 O                |  15 C                |  17 N                |   121.41
   15 C                |  17 N                |  18 H                |   116.34
   15 C                |  17 N                |  19 C                |   126.57
   18 H                |  17 N                |  19 C                |   116.95
   17 N                |  19 C                |  20 H                |   106.85
   17 N                |  19 C                |  21 C                |   110.13
   17 N                |  19 C                |  34 C                |   115.00
   20 H                |  19 C                |  21 C                |   106.83
   20 H                |  19 C                |  34 C                |   104.68
   21 C                |  19 C                |  34 C                |   112.71
   19 C                |  21 C                |  22 H                |   107.39
   19 C                |  21 C                |  23 C                |   110.29
   19 C                |  21 C                |  27 C                |   112.43
   22 H                |  21 C                |  23 C                |   106.78
   22 H                |  21 C                |  27 C                |   107.97
   23 C                |  21 C                |  27 C                |   111.70
   21 C                |  23 C                |  24 H                |   110.63
   21 C                |  23 C                |  25 H                |   110.00
   21 C                |  23 C                |  26 H                |   109.90
   24 H                |  23 C                |  25 H                |   108.90
   24 H                |  23 C                |  26 H                |   109.32
   25 H                |  23 C                |  26 H                |   108.04
   21 C                |  27 C                |  28 H                |   109.86
   21 C                |  27 C                |  29 H                |   109.41
   21 C                |  27 C                |  30 C                |   113.64
   28 H                |  27 C                |  29 H                |   107.79
   28 H                |  27 C                |  30 C                |   108.61
   29 H                |  27 C                |  30 C                |   107.35
   27 C                |  30 C                |  31 H                |   110.49
   27 C                |  30 C                |  32 H                |   109.20
   27 C                |  30 C                |  33 H                |   109.92
   31 H                |  30 C                |  32 H                |   108.56
   31 H                |  30 C                |  33 H                |   109.68
   32 H                |  30 C                |  33 H                |   108.95
   19 C                |  34 C                |  35 O                |   121.43
   19 C                |  34 C                |  36 N                |   119.21
   35 O                |  34 C                |  36 N                |   119.36
   34 C                |  36 N                |  37 H                |   118.44
   34 C                |  36 N                |  38 H                |   119.09
   37 H                |  36 N                |  38 H                |   122.06
 ------------------------------------------------------------------------------
                            number of included internuclear angles:         66
 ==============================================================================



  library name resolved from: environment
  library file name is: </opt/rit/el9/20230413/app/linux-rhel9-x86_64_v3/gcc-11.2.1/nwchem-7.2.0-oxtctbuhfuzyfaoziquq6bki22grib3g/share/nwchem/libraries/>
  


 Summary of "ao basis" -> "" (cartesian)
 ------------------------------------------------------------------------------
       Tag                 Description            Shells   Functions and Types
 ---------------- ------------------------------  ------  ---------------------
 *                        aug-cc-pvdz                 on all atoms 


                      Basis "ao basis" -> "ao basis" (cartesian)
                      -----
  H (Hydrogen)
  ------------
            Exponent  Coefficients 
       -------------- ---------------------------------------------------------
  1 S  1.30100000E+01  0.019685
  1 S  1.96200000E+00  0.137977
  1 S  4.44600000E-01  0.478148

  2 S  1.22000000E-01  1.000000

  3 S  2.97400000E-02  1.000000

  4 P  7.27000000E-01  1.000000

  5 P  1.41000000E-01  1.000000

  C (Carbon)
  ----------
            Exponent  Coefficients 
       -------------- ---------------------------------------------------------
  1 S  6.66500000E+03  0.000692
  1 S  1.00000000E+03  0.005329
  1 S  2.28000000E+02  0.027077
  1 S  6.47100000E+01  0.101718
  1 S  2.10600000E+01  0.274740
  1 S  7.49500000E+00  0.448564
  1 S  2.79700000E+00  0.285074
  1 S  5.21500000E-01  0.015204

  2 S  6.66500000E+03 -0.000146
  2 S  1.00000000E+03 -0.001154
  2 S  2.28000000E+02 -0.005725
  2 S  6.47100000E+01 -0.023312
  2 S  2.10600000E+01 -0.063955
  2 S  7.49500000E+00 -0.149981
  2 S  2.79700000E+00 -0.127262
  2 S  5.21500000E-01  0.544529

  3 S  1.59600000E-01  1.000000

  4 S  4.69000000E-02  1.000000

  5 P  9.43900000E+00  0.038109
  5 P  2.00200000E+00  0.209480
  5 P  5.45600000E-01  0.508557

  6 P  1.51700000E-01  1.000000

  7 P  4.04100000E-02  1.000000

  8 D  5.50000000E-01  1.000000

  9 D  1.51000000E-01  1.000000

  O (Oxygen)
  ----------
            Exponent  Coefficients 
       -------------- ---------------------------------------------------------
  1 S  1.17200000E+04  0.000710
  1 S  1.75900000E+03  0.005470
  1 S  4.00800000E+02  0.027837
  1 S  1.13700000E+02  0.104800
  1 S  3.70300000E+01  0.283062
  1 S  1.32700000E+01  0.448719
  1 S  5.02500000E+00  0.270952
  1 S  1.01300000E+00  0.015458

  2 S  1.17200000E+04 -0.000160
  2 S  1.75900000E+03 -0.001263
  2 S  4.00800000E+02 -0.006267
  2 S  1.13700000E+02 -0.025716
  2 S  3.70300000E+01 -0.070924
  2 S  1.32700000E+01 -0.165411
  2 S  5.02500000E+00 -0.116955
  2 S  1.01300000E+00  0.557368

  3 S  3.02300000E-01  1.000000

  4 S  7.89600000E-02  1.000000

  5 P  1.77000000E+01  0.043018
  5 P  3.85400000E+00  0.228913
  5 P  1.04600000E+00  0.508728

  6 P  2.75300000E-01  1.000000

  7 P  6.85600000E-02  1.000000

  8 D  1.18500000E+00  1.000000

  9 D  3.32000000E-01  1.000000

  N (Nitrogen)
  ------------
            Exponent  Coefficients 
       -------------- ---------------------------------------------------------
  1 S  9.04600000E+03  0.000700
  1 S  1.35700000E+03  0.005389
  1 S  3.09300000E+02  0.027406
  1 S  8.77300000E+01  0.103207
  1 S  2.85600000E+01  0.278723
  1 S  1.02100000E+01  0.448540
  1 S  3.83800000E+00  0.278238
  1 S  7.46600000E-01  0.015440

  2 S  9.04600000E+03 -0.000153
  2 S  1.35700000E+03 -0.001208
  2 S  3.09300000E+02 -0.005992
  2 S  8.77300000E+01 -0.024544
  2 S  2.85600000E+01 -0.067459
  2 S  1.02100000E+01 -0.158078
  2 S  3.83800000E+00 -0.121831
  2 S  7.46600000E-01  0.549003

  3 S  2.24800000E-01  1.000000

  4 S  6.12400000E-02  1.000000

  5 P  1.35500000E+01  0.039919
  5 P  2.91700000E+00  0.217169
  5 P  7.97300000E-01  0.510319

  6 P  2.18500000E-01  1.000000

  7 P  5.61100000E-02  1.000000

  8 D  8.17000000E-01  1.000000

  9 D  2.30000000E-01  1.000000



 Summary of "ao basis" -> "ao basis" (cartesian)
 ------------------------------------------------------------------------------
       Tag                 Description            Shells   Functions and Types
 ---------------- ------------------------------  ------  ---------------------
 H                        aug-cc-pvdz                5        9   3s2p
 C                        aug-cc-pvdz                9       25   4s3p2d
 O                        aug-cc-pvdz                9       25   4s3p2d
 N                        aug-cc-pvdz                9       25   4s3p2d


                                 NWChem SCF Module
                                 -----------------



  ao basis        = "ao basis"
  functions       =   614
  atoms           =    38
  closed shells   =    66
  open shells     =     0
  charge          =   0.00
  wavefunction    = RHF 
  input vectors   = atomic
  output vectors  = ./ALA_ILE_1.movecs
  use symmetry    = F
  symmetry adapt  = F


 Summary of "ao basis" -> "ao basis" (cartesian)
 ------------------------------------------------------------------------------
       Tag                 Description            Shells   Functions and Types
 ---------------- ------------------------------  ------  ---------------------
 H                        aug-cc-pvdz                5        9   3s2p
 C                        aug-cc-pvdz                9       25   4s3p2d
 O                        aug-cc-pvdz                9       25   4s3p2d
 N                        aug-cc-pvdz                9       25   4s3p2d



 Forming initial guess at       1.7s


 !! The overlap matrix has   6 vectors deemed linearly dependent with
    eigenvalues:
 2.11D-06 3.13D-06 5.96D-06 7.29D-06 8.77D-06 9.93D-06


      Superposition of Atomic Density Guess
      -------------------------------------

 Sum of atomic energies:        -812.03184720

      Non-variational initial energy
      ------------------------------

 Total energy =    -823.482497
 1-e energy   =   -3763.666065
 2-e energy   =    1600.295162
 HOMO         =      -0.308479
 LUMO         =       0.007273


 Starting SCF solution at     382.6s



 ----------------------------------------------
         Quadratically convergent ROHF

 Convergence threshold     :          1.000E-04
 Maximum no. of iterations :           30
 Final Fock-matrix accuracy:          1.000E-10
 ----------------------------------------------


              iter       energy          gnorm     gmax       time
             ----- ------------------- --------- --------- --------
                 1     -816.5123705442  2.42D+00  1.36D-01    608.9
                 2     -816.8282323695  8.45D-01  4.58D-02   1231.2
                 3     -816.8903692958  6.29D-02  4.89D-03   2185.3
                 4     -816.8909643448  1.93D-03  1.26D-04   3656.5
                 5     -816.8909648275  4.70D-06  3.57D-07   5689.0


       Final RHF  results 
       ------------------ 

         Total SCF energy =   -816.890964827500
      One-electron energy =  -3777.125440060940
      Two-electron energy =   1620.346069444393
 Nuclear repulsion energy =   1339.888405789047

        Time for solution =   5359.7s


             Final eigenvalues
             -----------------

              1      
    1  -20.5507
    2  -20.5397
    3  -20.5080
    4  -15.6248
    5  -15.5947
    6  -15.5732
    7  -11.3805
    8  -11.3686
    9  -11.3432
   10  -11.3146
   11  -11.2892
   12  -11.2621
   13  -11.2518
   14  -11.2377
   15  -11.2220
   16  -11.2150
   17  -11.2111
   18   -1.4171
   19   -1.3993
   20   -1.3712
   21   -1.2723
   22   -1.2428
   23   -1.2003
   24   -1.0926
   25   -1.0725
   26   -1.0118
   27   -1.0000
   28   -0.9599
   29   -0.9018
   30   -0.8632
   31   -0.8335
   32   -0.8062
   33   -0.7952
   34   -0.7597
   35   -0.7335
   36   -0.7271
   37   -0.7043
   38   -0.6913
   39   -0.6693
   40   -0.6516
   41   -0.6356
   42   -0.6217
   43   -0.6165
   44   -0.6057
   45   -0.5985
   46   -0.5918
   47   -0.5846
   48   -0.5780
   49   -0.5638
   50   -0.5560
   51   -0.5527
   52   -0.5460
   53   -0.5363
   54   -0.5293
   55   -0.5218
   56   -0.5184
   57   -0.5016
   58   -0.4677
   59   -0.4582
   60   -0.4573
   61   -0.4499
   62   -0.4443
   63   -0.4306
   64   -0.4116
   65   -0.3942
   66   -0.3814
   67    0.0196
   68    0.0341
   69    0.0389
   70    0.0399
   71    0.0493
   72    0.0524
   73    0.0548
   74    0.0578
   75    0.0622
   76    0.0678

                       ROHF Final Molecular Orbital Analysis
                       -------------------------------------

 Vector   18  Occ=2.000000D+00  E=-1.417082D+00
              MO Center= -1.1D+00,  1.9D+00, -6.8D-01, r^2= 1.7D+00
   Bfn.  Coefficient  Atom+Function         Bfn.  Coefficient  Atom+Function  
  ----- ------------  ---------------      ----- ------------  ---------------
    80      0.343064   6 O  s                79      0.337767   6 O  s         
    54      0.237294   5 C  s                12      0.187391   2 C  s         

 Vector   19  Occ=2.000000D+00  E=-1.399337D+00
              MO Center=  1.8D+00,  6.8D-01,  3.7D-01, r^2= 2.0D+00
   Bfn.  Coefficient  Atom+Function         Bfn.  Coefficient  Atom+Function  
  ----- ------------  ---------------      ----- ------------  ---------------
   250      0.362025  16 O  s               249      0.342720  16 O  s         
   224      0.231892  15 C  s         

 Vector   20  Occ=2.000000D+00  E=-1.371223D+00
              MO Center=  1.5D+00, -3.0D+00, -1.6D-01, r^2= 1.2D+00
   Bfn.  Coefficient  Atom+Function         Bfn.  Coefficient  Atom+Function  
  ----- ------------  ---------------      ----- ------------  ---------------
   549      0.371131  35 O  s               548      0.349541  35 O  s         
   523      0.244749  34 C  s         

 Vector   21  Occ=2.000000D+00  E=-1.272342D+00
              MO Center= -2.7D-01,  2.5D+00, -1.1D-01, r^2= 1.9D+00
   Bfn.  Coefficient  Atom+Function         Bfn.  Coefficient  Atom+Function  
  ----- ------------  ---------------      ----- ------------  ---------------
   105      0.403433   7 N  s               104      0.341212   7 N  s         
    80     -0.219523   6 O  s                79     -0.182454   6 O  s         
   128      0.157343   8 H  s         

 Vector   22  Occ=2.000000D+00  E=-1.242795D+00
              MO Center=  7.5D-01, -6.7D-02,  1.3D-01, r^2= 2.2D+00
   Bfn.  Coefficient  Atom+Function         Bfn.  Coefficient  Atom+Function  
  ----- ------------  ---------------      ----- ------------  ---------------
   275      0.402698  17 N  s               274      0.336879  17 N  s         
   250     -0.206103  16 O  s               227     -0.163499  15 C  px        
   249     -0.161484  16 O  s               309     -0.162120  19 C  s         

 Vector   23  Occ=2.000000D+00  E=-1.200295D+00
              MO Center=  2.2D+00, -2.0D+00, -5.3D-01, r^2= 1.6D+00
   Bfn.  Coefficient  Atom+Function         Bfn.  Coefficient  Atom+Function  
  ----- ------------  ---------------      ----- ------------  ---------------
   574      0.410911  36 N  s               573      0.367624  36 N  s         
   549     -0.206264  35 O  s               309     -0.182438  19 C  s         
   548     -0.174616  35 O  s               606      0.165762  38 H  s         
   597      0.157951  37 H  s               527      0.151312  34 C  py        

 Vector   24  Occ=2.000000D+00  E=-1.092573D+00
              MO Center= -6.2D-01, -8.9D-01,  3.1D-01, r^2= 6.1D+00
   Bfn.  Coefficient  Atom+Function         Bfn.  Coefficient  Atom+Function  
  ----- ------------  ---------------      ----- ------------  ---------------
   342      0.227196  21 C  s               428      0.161341  27 C  s         

 Vector   25  Occ=2.000000D+00  E=-1.072509D+00
              MO Center=  1.7D-02,  1.8D+00, -5.3D-02, r^2= 7.8D+00
   Bfn.  Coefficient  Atom+Function         Bfn.  Coefficient  Atom+Function  
  ----- ------------  ---------------      ----- ------------  ---------------
   138      0.218029   9 C  s               172      0.187460  11 C  s         
    12     -0.184320   2 C  s               144      0.154226   9 C  px        

 Vector   26  Occ=2.000000D+00  E=-1.011836D+00
              MO Center= -1.3D+00,  2.9D+00,  1.2D-01, r^2= 5.4D+00
   Bfn.  Coefficient  Atom+Function         Bfn.  Coefficient  Atom+Function  
  ----- ------------  ---------------      ----- ------------  ---------------
    11      0.314342   2 C  s               144      0.168869   9 C  px        
    55      0.161895   5 C  s                57     -0.156172   5 C  px        
   172      0.156170  11 C  s         

 Vector   27  Occ=2.000000D+00  E=-1.000029D+00
              MO Center= -1.0D+00, -1.7D+00, -2.2D-01, r^2= 7.1D+00
   Bfn.  Coefficient  Atom+Function         Bfn.  Coefficient  Atom+Function  
  ----- ------------  ---------------      ----- ------------  ---------------
   471      0.234752  30 C  s               343      0.227843  21 C  s         
   434     -0.218061  27 C  px              308     -0.195940  19 C  s         
   428      0.193460  27 C  s               377     -0.187078  23 C  s         

 Vector   28  Occ=2.000000D+00  E=-9.599487D-01
              MO Center= -7.9D-01, -1.1D+00,  8.0D-01, r^2= 6.0D+00
   Bfn.  Coefficient  Atom+Function         Bfn.  Coefficient  Atom+Function  
  ----- ------------  ---------------      ----- ------------  ---------------
   376      0.278173  23 C  s               350      0.212756  21 C  pz        
   308     -0.169923  19 C  s         

 Vector   29  Occ=2.000000D+00  E=-9.017567D-01
              MO Center=  1.1D+00,  1.9D+00, -9.9D-03, r^2= 6.9D+00
   Bfn.  Coefficient  Atom+Function         Bfn.  Coefficient  Atom+Function  
  ----- ------------  ---------------      ----- ------------  ---------------
   172      0.238085  11 C  s               138     -0.186673   9 C  s         
   145      0.177686   9 C  py              139     -0.173086   9 C  s         
   173      0.156128  11 C  s         

 Vector   30  Occ=2.000000D+00  E=-8.631650D-01
              MO Center= -1.5D+00, -2.0D+00,  1.9D-02, r^2= 5.6D+00
   Bfn.  Coefficient  Atom+Function         Bfn.  Coefficient  Atom+Function  
  ----- ------------  ---------------      ----- ------------  ---------------
   471      0.219986  30 C  s               343      0.176553  21 C  s         
   472      0.176033  30 C  s               309      0.174801  19 C  s         
   428     -0.161303  27 C  s               376      0.152373  23 C  s         

 Vector   31  Occ=2.000000D+00  E=-8.334763D-01
              MO Center= -2.7D-01,  2.4D+00, -1.9D-02, r^2= 4.3D+00
   Bfn.  Coefficient  Atom+Function         Bfn.  Coefficient  Atom+Function  
  ----- ------------  ---------------      ----- ------------  ---------------
   107      0.269352   7 N  px              139     -0.228762   9 C  s         
   128      0.226988   8 H  s                54     -0.213426   5 C  s         
    80      0.169250   6 O  s               105      0.169102   7 N  s         
    60     -0.167528   5 C  px               57     -0.151116   5 C  px        
   108      0.151364   7 N  py        

 Vector   32  Occ=2.000000D+00  E=-8.062267D-01
              MO Center=  7.2D-01, -7.3D-02, -1.3D-01, r^2= 7.3D+00
   Bfn.  Coefficient  Atom+Function         Bfn.  Coefficient  Atom+Function  
  ----- ------------  ---------------      ----- ------------  ---------------
   277      0.206895  17 N  px              309      0.205114  19 C  s         
   128      0.160779   8 H  s               225      0.160878  15 C  s         
   472     -0.156931  30 C  s               299     -0.155891  18 H  s         
   576     -0.154355  36 N  px              224      0.151907  15 C  s         

 Vector   33  Occ=2.000000D+00  E=-7.952011D-01
              MO Center=  3.5D-01, -1.2D+00, -1.5D-02, r^2= 6.9D+00
   Bfn.  Coefficient  Atom+Function         Bfn.  Coefficient  Atom+Function  
  ----- ------------  ---------------      ----- ------------  ---------------
   343      0.307735  21 C  s               429     -0.268842  27 C  s         
   377     -0.188951  23 C  s               576      0.182282  36 N  px        
   309     -0.177350  19 C  s               276      0.170790  17 N  s         
   318     -0.162049  19 C  py              225      0.158349  15 C  s         
   277      0.152313  17 N  px        

 Vector   34  Occ=2.000000D+00  E=-7.596775D-01
              MO Center=  2.5D-01, -1.0D+00, -8.6D-02, r^2= 7.1D+00
   Bfn.  Coefficient  Atom+Function         Bfn.  Coefficient  Atom+Function  
  ----- ------------  ---------------      ----- ------------  ---------------
   343      0.305971  21 C  s               225     -0.257486  15 C  s         
   299      0.188658  18 H  s               309     -0.187745  19 C  s         
   314      0.177368  19 C  px              298      0.175609  18 H  s         
   277     -0.170047  17 N  px              606     -0.161421  38 H  s         
   577     -0.158776  36 N  py        

 Vector   35  Occ=2.000000D+00  E=-7.334896D-01
              MO Center=  4.9D-01,  7.2D-01,  9.8D-02, r^2= 8.2D+00
   Bfn.  Coefficient  Atom+Function         Bfn.  Coefficient  Atom+Function  
  ----- ------------  ---------------      ----- ------------  ---------------
   430     -0.236509  27 C  s               145      0.231582   9 C  py        
   429     -0.232445  27 C  s               228     -0.208327  15 C  py        
   343      0.186905  21 C  s               109     -0.162805   7 N  pz        
    55      0.151645   5 C  s         

 Vector   36  Occ=2.000000D+00  E=-7.270679D-01
              MO Center=  1.6D+00, -9.4D-01, -3.4D-01, r^2= 5.4D+00
   Bfn.  Coefficient  Atom+Function         Bfn.  Coefficient  Atom+Function  
  ----- ------------  ---------------      ----- ------------  ---------------
   577      0.325901  36 N  py              606      0.273188  38 H  s         
   225     -0.214118  15 C  s               315     -0.189299  19 C  py        
   607      0.175808  38 H  s               174      0.163973  11 C  s         
   597     -0.162760  37 H  s               524     -0.151767  34 C  s         

 Vector   37  Occ=2.000000D+00  E=-7.042696D-01
              MO Center= -8.4D-01,  1.7D+00, -1.8D-01, r^2= 7.2D+00
   Bfn.  Coefficient  Atom+Function         Bfn.  Coefficient  Atom+Function  
  ----- ------------  ---------------      ----- ------------  ---------------
    57      0.238177   5 C  px               83     -0.184596   6 O  py        
    17     -0.167784   2 C  px               80      0.165262   6 O  s         
   275     -0.150329  17 N  s         

 Vector   38  Occ=2.000000D+00  E=-6.913381D-01
              MO Center=  6.0D-02,  2.1D+00, -4.7D-01, r^2= 4.7D+00
   Bfn.  Coefficient  Atom+Function         Bfn.  Coefficient  Atom+Function  
  ----- ------------  ---------------      ----- ------------  ---------------
   143      0.230593   9 C  pz               84      0.209065   6 O  pz        
   162     -0.199717  10 H  s                80     -0.189407   6 O  s         
   144     -0.187719   9 C  px              108     -0.179317   7 N  py        
    58     -0.171031   5 C  py               12      0.161698   2 C  s         
   173      0.160541  11 C  s               146      0.159468   9 C  pz        

 Vector   39  Occ=2.000000D+00  E=-6.693413D-01
              MO Center=  1.2D+00, -8.8D-01,  3.3D-02, r^2= 7.2D+00
   Bfn.  Coefficient  Atom+Function         Bfn.  Coefficient  Atom+Function  
  ----- ------------  ---------------      ----- ------------  ---------------
   315      0.223480  19 C  py              597     -0.185992  37 H  s         
   250     -0.184354  16 O  s               278     -0.181080  17 N  py        
   552     -0.171712  35 O  py              252     -0.170481  16 O  px        
   312      0.167222  19 C  py              576     -0.160537  36 N  px        
   549      0.150334  35 O  s         

 Vector   40  Occ=2.000000D+00  E=-6.515766D-01
              MO Center=  8.8D-01, -6.7D-01,  2.3D-01, r^2= 7.6D+00
   Bfn.  Coefficient  Atom+Function         Bfn.  Coefficient  Atom+Function  
  ----- ------------  ---------------      ----- ------------  ---------------
   313      0.219080  19 C  pz              525     -0.203461  34 C  s         
   526      0.195899  34 C  px              377     -0.184762  23 C  s         
   332      0.181147  20 H  s               252      0.171277  16 O  px        
   430      0.163845  27 C  s               227     -0.160509  15 C  px        
   250      0.151367  16 O  s         

 Vector   41  Occ=2.000000D+00  E=-6.355761D-01
              MO Center= -1.3D+00,  2.2D+00,  1.3D-01, r^2= 6.8D+00
   Bfn.  Coefficient  Atom+Function         Bfn.  Coefficient  Atom+Function  
  ----- ------------  ---------------      ----- ------------  ---------------
     1      0.217139   1 H  s                16     -0.215985   2 C  pz        
    44     -0.212891   4 H  s                15      0.207026   2 C  py        
   139     -0.174056   9 C  s                59     -0.159301   5 C  pz        

 Vector   42  Occ=2.000000D+00  E=-6.216541D-01
              MO Center= -1.1D+00, -1.7D+00,  5.1D-02, r^2= 6.8D+00
   Bfn.  Coefficient  Atom+Function         Bfn.  Coefficient  Atom+Function  
  ----- ------------  ---------------      ----- ------------  ---------------
   432      0.213109  27 C  py              461     -0.181210  29 H  s         
   174      0.178347  11 C  s               381     -0.166611  23 C  pz        
   346      0.162173  21 C  py              367     -0.153538  22 H  s         

 Vector   43  Occ=2.000000D+00  E=-6.165015D-01
              MO Center= -9.7D-02, -3.0D-01,  2.7D-01, r^2= 1.0D+01
   Bfn.  Coefficient  Atom+Function         Bfn.  Coefficient  Atom+Function  
  ----- ------------  ---------------      ----- ------------  ---------------
   252      0.197385  16 O  px        

 Vector   44  Occ=2.000000D+00  E=-6.056502D-01
              MO Center= -7.7D-01,  2.0D+00, -3.3D-01, r^2= 6.1D+00
   Bfn.  Coefficient  Atom+Function         Bfn.  Coefficient  Atom+Function  
  ----- ------------  ---------------      ----- ------------  ---------------
    58      0.224216   5 C  py               83     -0.219469   6 O  py        
    59      0.205487   5 C  pz               84     -0.196468   6 O  pz        
    14      0.186912   2 C  px               80      0.176369   6 O  s         
   128     -0.174160   8 H  s                82     -0.166959   6 O  px        
   129     -0.157343   8 H  s         

 Vector   45  Occ=2.000000D+00  E=-5.985354D-01
              MO Center=  2.1D-01, -8.7D-01,  3.3D-01, r^2= 7.8D+00
   Bfn.  Coefficient  Atom+Function         Bfn.  Coefficient  Atom+Function  
  ----- ------------  ---------------      ----- ------------  ---------------
   174      0.218683  11 C  s               252      0.188937  16 O  px        
   299     -0.171837  18 H  s               311     -0.160892  19 C  px        
   277      0.159531  17 N  px              298     -0.159274  18 H  s         
   227     -0.156139  15 C  px        

 Vector   46  Occ=2.000000D+00  E=-5.918214D-01
              MO Center= -1.3D+00,  1.9D+00,  5.2D-02, r^2= 1.1D+01
   Bfn.  Coefficient  Atom+Function         Bfn.  Coefficient  Atom+Function  
  ----- ------------  ---------------      ----- ------------  ---------------
    36      0.299203   3 H  s                35      0.286234   3 H  s         
    16     -0.201078   2 C  pz               14     -0.196198   2 C  px        
    15     -0.179155   2 C  py              552     -0.169286  35 O  py        
    44     -0.161608   4 H  s         

 Vector   47  Occ=2.000000D+00  E=-5.845617D-01
              MO Center=  6.8D-01, -1.1D+00, -1.2D-01, r^2= 1.2D+01
   Bfn.  Coefficient  Atom+Function         Bfn.  Coefficient  Atom+Function  
  ----- ------------  ---------------      ----- ------------  ---------------
   552      0.339030  35 O  py              527     -0.271521  34 C  py        
   549     -0.212941  35 O  s               276      0.172983  17 N  s         
   555      0.167735  35 O  py        

 Vector   48  Occ=2.000000D+00  E=-5.779640D-01
              MO Center= -9.0D-01, -6.7D-01,  2.5D-01, r^2= 1.0D+01
   Bfn.  Coefficient  Atom+Function         Bfn.  Coefficient  Atom+Function  
  ----- ------------  ---------------      ----- ------------  ---------------
   400      0.190464  24 H  s               513      0.173536  33 H  s         
   401      0.169832  24 H  s               380      0.158848  23 C  py        

 Vector   49  Occ=2.000000D+00  E=-5.637948D-01
              MO Center=  5.9D-01,  7.0D-01,  1.6D-01, r^2= 1.2D+01
   Bfn.  Coefficient  Atom+Function         Bfn.  Coefficient  Atom+Function  
  ----- ------------  ---------------      ----- ------------  ---------------
   177      0.237400  11 C  pz              215     -0.221357  14 H  s         
   205      0.211653  13 H  s               333     -0.182467  20 H  s         
    56     -0.179815   5 C  s               214     -0.166997  14 H  s         
   174      0.165193  11 C  s               473     -0.161844  30 C  s         
   206      0.159611  13 H  s               309      0.152896  19 C  s         

 Vector   50  Occ=2.000000D+00  E=-5.560286D-01
              MO Center=  4.1D-01,  1.8D+00, -1.3D-02, r^2= 8.9D+00
   Bfn.  Coefficient  Atom+Function         Bfn.  Coefficient  Atom+Function  
  ----- ------------  ---------------      ----- ------------  ---------------
   176      0.212883  11 C  py              196      0.177937  12 H  s         
   254     -0.167747  16 O  pz              141     -0.162590   9 C  px        

 Vector   51  Occ=2.000000D+00  E=-5.526531D-01
              MO Center=  9.4D-01,  1.7D+00, -7.4D-02, r^2= 1.0D+01
   Bfn.  Coefficient  Atom+Function         Bfn.  Coefficient  Atom+Function  
  ----- ------------  ---------------      ----- ------------  ---------------
   176      0.246749  11 C  py              196      0.231788  12 H  s         
   215     -0.211820  14 H  s               197      0.209938  12 H  s         
   214     -0.183634  14 H  s                12     -0.166761   2 C  s         
    55      0.162072   5 C  s               228      0.155326  15 C  py        

 Vector   52  Occ=2.000000D+00  E=-5.459520D-01
              MO Center= -3.2D-01,  2.5D+00, -1.5D-01, r^2= 7.0D+00
   Bfn.  Coefficient  Atom+Function         Bfn.  Coefficient  Atom+Function  
  ----- ------------  ---------------      ----- ------------  ---------------
   175      0.231529  11 C  px               44      0.192701   4 H  s         
   214      0.191840  14 H  s                16      0.182517   2 C  pz        
     2     -0.177364   1 H  s               215      0.176990  14 H  s         
   141     -0.172606   9 C  px               83      0.169925   6 O  py        
    84     -0.162889   6 O  pz               55     -0.160040   5 C  s         

 Vector   53  Occ=2.000000D+00  E=-5.363386D-01
              MO Center= -1.3D+00, -1.8D+00, -8.2D-02, r^2= 1.0D+01
   Bfn.  Coefficient  Atom+Function         Bfn.  Coefficient  Atom+Function  
  ----- ------------  ---------------      ----- ------------  ---------------
   476      0.292190  30 C  pz              504     -0.269734  32 H  s         
   505     -0.252838  32 H  s               419      0.210647  26 H  s         
   418      0.173921  26 H  s               496      0.170792  31 H  s         
   495      0.150650  31 H  s         

 Vector   54  Occ=2.000000D+00  E=-5.293257D-01
              MO Center=  4.0D-01,  3.2D-01,  3.8D-01, r^2= 1.1D+01
   Bfn.  Coefficient  Atom+Function         Bfn.  Coefficient  Atom+Function  
  ----- ------------  ---------------      ----- ------------  ---------------
   419      0.240096  26 H  s               418      0.188310  26 H  s         
   205     -0.183257  13 H  s               379      0.179721  23 C  px        
   430     -0.178991  27 C  s               177     -0.175931  11 C  pz        
   343      0.175491  21 C  s               410     -0.175679  25 H  s         
   162     -0.173116  10 H  s               143      0.170597   9 C  pz        

 Vector   55  Occ=2.000000D+00  E=-5.218222D-01
              MO Center=  8.0D-01, -5.5D-03,  1.8D-01, r^2= 9.4D+00
   Bfn.  Coefficient  Atom+Function         Bfn.  Coefficient  Atom+Function  
  ----- ------------  ---------------      ----- ------------  ---------------
   343      0.294575  21 C  s               173     -0.198187  11 C  s         
   162      0.184719  10 H  s               139      0.172902   9 C  s         
   143     -0.169389   9 C  pz              553      0.164795  35 O  pz        
   178      0.162770  11 C  px              179      0.154997  11 C  py        
   332     -0.154416  20 H  s         

 Vector   56  Occ=2.000000D+00  E=-5.184243D-01
              MO Center= -1.1D+00, -1.6D+00,  3.8D-01, r^2= 6.8D+00
   Bfn.  Coefficient  Atom+Function         Bfn.  Coefficient  Atom+Function  
  ----- ------------  ---------------      ----- ------------  ---------------
   410      0.253126  25 H  s               379     -0.224694  23 C  px        
   409      0.222436  25 H  s               431      0.210000  27 C  px        
   314     -0.192733  19 C  px              474     -0.190832  30 C  px        
   345      0.166561  21 C  px              477     -0.162662  30 C  px        
   311     -0.152473  19 C  px        

 Vector   57  Occ=2.000000D+00  E=-5.015948D-01
              MO Center= -1.8D+00, -2.0D+00,  3.2D-01, r^2= 4.7D+00
   Bfn.  Coefficient  Atom+Function         Bfn.  Coefficient  Atom+Function  
  ----- ------------  ---------------      ----- ------------  ---------------
   475      0.263327  30 C  py              380      0.244248  23 C  py        
   513     -0.239432  33 H  s               346     -0.212595  21 C  py        
   400      0.210612  24 H  s               514     -0.209777  33 H  s         
   366      0.174225  22 H  s               432     -0.164774  27 C  py        
   401      0.159865  24 H  s               495      0.150183  31 H  s         

 Vector   58  Occ=2.000000D+00  E=-4.677171D-01
              MO Center= -6.6D-01, -8.6D-01, -5.9D-02, r^2= 8.6D+00
   Bfn.  Coefficient  Atom+Function         Bfn.  Coefficient  Atom+Function  
  ----- ------------  ---------------      ----- ------------  ---------------
   453      0.317860  28 H  s               253      0.265056  16 O  py        
   430     -0.240699  27 C  s               367      0.219304  22 H  s         
   256      0.215288  16 O  py              377     -0.210667  23 C  s         
   472     -0.205917  30 C  s               477     -0.199431  30 C  px        
   401      0.193122  24 H  s               452      0.191400  28 H  s         

 Vector   59  Occ=2.000000D+00  E=-4.581526D-01
              MO Center= -1.3D+00, -1.4D+00, -9.8D-02, r^2= 6.5D+00
   Bfn.  Coefficient  Atom+Function         Bfn.  Coefficient  Atom+Function  
  ----- ------------  ---------------      ----- ------------  ---------------
   462      0.311163  29 H  s               431      0.238883  27 C  px        
   430     -0.222653  27 C  s               474     -0.222732  30 C  px        
   461      0.219920  29 H  s               345     -0.203747  21 C  px        
   472     -0.202796  30 C  s               477     -0.195436  30 C  px        
   309     -0.184056  19 C  s               311      0.179293  19 C  px        

 Vector   60  Occ=2.000000D+00  E=-4.573131D-01
              MO Center= -6.6D-01, -4.8D-01,  2.0D-02, r^2= 8.1D+00
   Bfn.  Coefficient  Atom+Function         Bfn.  Coefficient  Atom+Function  
  ----- ------------  ---------------      ----- ------------  ---------------
   462      0.248109  29 H  s               453     -0.228963  28 H  s         
   253      0.226323  16 O  py              377      0.225098  23 C  s         
   367     -0.211007  22 H  s               346      0.207857  21 C  py        
   401     -0.207724  24 H  s               366     -0.193834  22 H  s         
   432     -0.183877  27 C  py              256      0.182427  16 O  py        

 Vector   61  Occ=2.000000D+00  E=-4.498977D-01
              MO Center= -1.1D+00, -9.0D-01, -8.9D-02, r^2= 7.9D+00
   Bfn.  Coefficient  Atom+Function         Bfn.  Coefficient  Atom+Function  
  ----- ------------  ---------------      ----- ------------  ---------------
   433      0.247920  27 C  pz              347     -0.242859  21 C  pz        
    82      0.229255   6 O  px              505      0.196448  32 H  s         
    85      0.189315   6 O  px              348     -0.182582  21 C  px        
   419      0.175006  26 H  s               504      0.159745  32 H  s         

 Vector   62  Occ=2.000000D+00  E=-4.442770D-01
              MO Center= -1.1D+00,  5.4D-01, -3.6D-01, r^2= 7.1D+00
   Bfn.  Coefficient  Atom+Function         Bfn.  Coefficient  Atom+Function  
  ----- ------------  ---------------      ----- ------------  ---------------
    82      0.404420   6 O  px               85      0.333099   6 O  px        
   433     -0.155808  27 C  pz        

 Vector   63  Occ=2.000000D+00  E=-4.305939D-01
              MO Center=  1.2D+00, -1.4D+00,  8.9D-02, r^2= 5.9D+00
   Bfn.  Coefficient  Atom+Function         Bfn.  Coefficient  Atom+Function  
  ----- ------------  ---------------      ----- ------------  ---------------
   551      0.355921  35 O  px              554      0.279808  35 O  px        
   279     -0.269402  17 N  pz              254      0.257777  16 O  pz        
   282     -0.234633  17 N  pz              257      0.201438  16 O  pz        
   553     -0.164259  35 O  pz              226     -0.160303  15 C  s         
   309      0.154303  19 C  s         

 Vector   64  Occ=2.000000D+00  E=-4.116271D-01
              MO Center=  6.6D-01,  1.4D+00, -5.5D-02, r^2= 5.8D+00
   Bfn.  Coefficient  Atom+Function         Bfn.  Coefficient  Atom+Function  
  ----- ------------  ---------------      ----- ------------  ---------------
   253      0.311328  16 O  py              108     -0.250047   7 N  py        
   256      0.248914  16 O  py              109      0.247606   7 N  pz        
   111     -0.237079   7 N  py              112      0.219294   7 N  pz        
   145      0.182370   9 C  py               84     -0.173788   6 O  pz        
   473     -0.159412  30 C  s               228     -0.152172  15 C  py        

 Vector   65  Occ=2.000000D+00  E=-3.941623D-01
              MO Center=  1.7D+00, -2.2D+00, -3.2D-01, r^2= 4.1D+00
   Bfn.  Coefficient  Atom+Function         Bfn.  Coefficient  Atom+Function  
  ----- ------------  ---------------      ----- ------------  ---------------
   553      0.394566  35 O  pz              556      0.309878  35 O  pz        
   578     -0.296154  36 N  pz              581     -0.251204  36 N  pz        
   576     -0.241200  36 N  px              579     -0.216141  36 N  px        
   284     -0.162754  17 N  py              430     -0.151192  27 C  s         

 Vector   66  Occ=2.000000D+00  E=-3.813609D-01
              MO Center=  1.3D+00, -1.5D+00,  3.3D-02, r^2= 4.5D+00
   Bfn.  Coefficient  Atom+Function         Bfn.  Coefficient  Atom+Function  
  ----- ------------  ---------------      ----- ------------  ---------------
   551      0.344170  35 O  px              554      0.279259  35 O  px        
   279      0.275428  17 N  pz              282      0.250527  17 N  pz        
   578     -0.212094  36 N  pz              254     -0.183200  16 O  pz        
   581     -0.157669  36 N  pz              310      0.155456  19 C  s         
   309     -0.152825  19 C  s               524      0.152311  34 C  s         

 Vector   67  Occ=0.000000D+00  E= 1.960285D-02
              MO Center= -1.0D+00,  4.9D+00,  9.4D-01, r^2= 2.0D+01
   Bfn.  Coefficient  Atom+Function         Bfn.  Coefficient  Atom+Function  
  ----- ------------  ---------------      ----- ------------  ---------------
   300      5.443062  18 H  s               234      3.963559  15 C  py        
   402      3.601298  24 H  s               148      2.984443   9 C  py        
    63     -2.336678   5 C  px              473     -2.281413  30 C  s         
     3     -2.024649   1 H  s               454     -1.995476  28 H  s         
   437     -1.903856  27 C  px              198     -1.853384  12 H  s         

 Vector   68  Occ=0.000000D+00  E= 3.405784D-02
              MO Center=  6.8D-02,  3.0D+00,  5.3D-02, r^2= 3.6D+01
   Bfn.  Coefficient  Atom+Function         Bfn.  Coefficient  Atom+Function  
  ----- ------------  ---------------      ----- ------------  ---------------
    63      3.302843   5 C  px              234      3.309701  15 C  py        
   351      2.796093  21 C  px              198     -2.498253  12 H  s         
    46      2.451491   4 H  s               276      2.431290  17 N  s         
   318      2.318544  19 C  py              378      2.310764  23 C  s         
   402     -2.304546  24 H  s               525      2.179229  34 C  s         

 Vector   69  Occ=0.000000D+00  E= 3.888456D-02
              MO Center= -1.4D+00,  3.1D+00,  7.7D-01, r^2= 3.1D+01
   Bfn.  Coefficient  Atom+Function         Bfn.  Coefficient  Atom+Function  
  ----- ------------  ---------------      ----- ------------  ---------------
   147      2.814469   9 C  px               63      2.367909   5 C  px        
    37      2.228666   3 H  s               207     -2.207192  13 H  s         
     3      2.195187   1 H  s               402     -2.192136  24 H  s         
   430      2.053794  27 C  s               130     -1.849685   8 H  s         
   164      1.791894  10 H  s               473      1.777602  30 C  s         

 Vector   70  Occ=0.000000D+00  E= 3.986338D-02
              MO Center=  4.5D-01,  3.9D-01, -3.5D-01, r^2= 4.2D+01
   Bfn.  Coefficient  Atom+Function         Bfn.  Coefficient  Atom+Function  
  ----- ------------  ---------------      ----- ------------  ---------------
   300      4.739258  18 H  s               525      3.356229  34 C  s         
   164     -2.555992  10 H  s               147      2.541843   9 C  px        
   575     -2.321894  36 N  s               402      2.308124  24 H  s         
   454     -2.171681  28 H  s               411     -2.035589  25 H  s         
   310      2.001169  19 C  s               106      1.981063   7 N  s         

 Vector   71  Occ=0.000000D+00  E= 4.927609D-02
              MO Center= -4.3D-01, -2.7D-01, -3.7D-01, r^2= 4.9D+01
   Bfn.  Coefficient  Atom+Function         Bfn.  Coefficient  Atom+Function  
  ----- ------------  ---------------      ----- ------------  ---------------
   318      3.643962  19 C  py              525      3.380719  34 C  s         
   198     -2.918426  12 H  s               234      2.414853  15 C  py        
   317     -2.328937  19 C  px              378      1.978476  23 C  s         
   532     -1.932720  34 C  px              599      1.926833  37 H  s         
   148      1.865667   9 C  py              411     -1.791397  25 H  s         

 Vector   72  Occ=0.000000D+00  E= 5.242418D-02
              MO Center= -1.6D+00, -9.2D-01, -6.1D-01, r^2= 4.4D+01
   Bfn.  Coefficient  Atom+Function         Bfn.  Coefficient  Atom+Function  
  ----- ------------  ---------------      ----- ------------  ---------------
   430      5.021287  27 C  s               353      4.045179  21 C  pz        
   310     -3.983328  19 C  s               506      3.671383  32 H  s         
   174     -3.469017  11 C  s               300      3.299670  18 H  s         
   318      3.217133  19 C  py              234      3.058194  15 C  py        
   344     -2.958926  21 C  s               351      2.591587  21 C  px        

 Vector   73  Occ=0.000000D+00  E= 5.478540D-02
              MO Center= -5.3D-01,  9.2D-01,  4.5D-01, r^2= 4.5D+01
   Bfn.  Coefficient  Atom+Function         Bfn.  Coefficient  Atom+Function  
  ----- ------------  ---------------      ----- ------------  ---------------
    63      3.351938   5 C  px               37      2.864717   3 H  s         
   174     -2.820444  11 C  s                56      2.787254   5 C  s         
   216      2.499914  14 H  s               164     -2.343607  10 H  s         
   130     -2.074966   8 H  s               402      1.970325  24 H  s         
   106     -1.914932   7 N  s               147      1.824582   9 C  px        

 Vector   74  Occ=0.000000D+00  E= 5.783913D-02
              MO Center=  1.6D-01,  5.5D-01, -6.1D-01, r^2= 4.1D+01
   Bfn.  Coefficient  Atom+Function         Bfn.  Coefficient  Atom+Function  
  ----- ------------  ---------------      ----- ------------  ---------------
   164      5.112287  10 H  s               351      2.935595  21 C  px        
     3     -2.918723   1 H  s               300     -2.870173  18 H  s         
   174     -2.775087  11 C  s               149      2.703096   9 C  pz        
   318      2.386086  19 C  py              402      2.381712  24 H  s         
   525      2.160137  34 C  s               148      2.124119   9 C  py        

 Vector   75  Occ=0.000000D+00  E= 6.215083D-02
              MO Center= -6.1D-01,  5.6D-01,  1.5D+00, r^2= 3.8D+01
   Bfn.  Coefficient  Atom+Function         Bfn.  Coefficient  Atom+Function  
  ----- ------------  ---------------      ----- ------------  ---------------
   207      3.622721  13 H  s               334      3.386823  20 H  s         
   430     -2.961309  27 C  s                37      2.843547   3 H  s         
   300     -2.774912  18 H  s               174      2.602305  11 C  s         
   147     -2.422875   9 C  px               46     -2.379301   4 H  s         
   319     -2.290626  19 C  pz              454      2.286689  28 H  s         

 Vector   76  Occ=0.000000D+00  E= 6.781803D-02
              MO Center= -2.1D-02,  4.8D-01, -6.0D-01, r^2= 5.1D+01
   Bfn.  Coefficient  Atom+Function         Bfn.  Coefficient  Atom+Function  
  ----- ------------  ---------------      ----- ------------  ---------------
   430      5.019563  27 C  s               216      4.175166  14 H  s         
    13     -4.106137   2 C  s               226      3.681812  15 C  s         
   140      3.379498   9 C  s               351      3.284850  21 C  px        
   113     -3.146324   7 N  px              402     -3.158713  24 H  s         
   198     -2.994681  12 H  s               317      2.868457  19 C  px        

 Vector   77  Occ=0.000000D+00  E= 7.094908D-02
              MO Center= -5.8D-01,  8.3D-01, -2.6D-01, r^2= 4.5D+01
   Bfn.  Coefficient  Atom+Function         Bfn.  Coefficient  Atom+Function  
  ----- ------------  ---------------      ----- ------------  ---------------
   351      4.806085  21 C  px              198      4.720835  12 H  s         
   164     -4.145325  10 H  s                63      3.023670   5 C  px        
   506      2.940502  32 H  s               402      2.716406  24 H  s         
   497     -2.651457  31 H  s               130     -2.623609   8 H  s         
   310     -2.340937  19 C  s                46      2.280868   4 H  s         

 Vector   78  Occ=0.000000D+00  E= 7.712438D-02
              MO Center= -5.3D-01, -5.9D-01,  5.9D-01, r^2= 4.3D+01
   Bfn.  Coefficient  Atom+Function         Bfn.  Coefficient  Atom+Function  
  ----- ------------  ---------------      ----- ------------  ---------------
   411      5.846888  25 H  s               497     -4.799330  31 H  s         
   174     -4.319964  11 C  s               334     -4.029524  20 H  s         
   463      3.907230  29 H  s               207      3.875017  13 H  s         
   430      3.476273  27 C  s               402     -3.017170  24 H  s         
   317      2.947508  19 C  px              454      2.761062  28 H  s         

 Vector   79  Occ=0.000000D+00  E= 7.782617D-02
              MO Center= -1.9D+00, -1.4D+00,  8.9D-01, r^2= 4.2D+01
   Bfn.  Coefficient  Atom+Function         Bfn.  Coefficient  Atom+Function  
  ----- ------------  ---------------      ----- ------------  ---------------
   234      5.200110  15 C  py              317      4.828840  19 C  px        
   430      4.492212  27 C  s               351      4.344499  21 C  px        
   368     -4.148222  22 H  s               352     -3.807805  21 C  py        
   411      3.622341  25 H  s                 3      3.519611   1 H  s         
   318      3.521842  19 C  py              515     -3.338875  33 H  s         

 Vector   80  Occ=0.000000D+00  E= 8.427756D-02
              MO Center= -7.3D-01,  1.0D-01,  7.1D-01, r^2= 4.2D+01
   Bfn.  Coefficient  Atom+Function         Bfn.  Coefficient  Atom+Function  
  ----- ------------  ---------------      ----- ------------  ---------------
   368      7.283468  22 H  s               454      6.957513  28 H  s         
   352      5.698803  21 C  py              130      4.636733   8 H  s         
   207     -4.221731  13 H  s               318     -3.650046  19 C  py        
   216      3.364976  14 H  s               402     -3.287981  24 H  s         
   334     -3.151617  20 H  s               438     -2.968967  27 C  py        

 Vector   81  Occ=0.000000D+00  E= 8.874351D-02
              MO Center= -1.4D+00, -5.9D-01,  1.6D+00, r^2= 3.9D+01
   Bfn.  Coefficient  Atom+Function         Bfn.  Coefficient  Atom+Function  
  ----- ------------  ---------------      ----- ------------  ---------------
   420      6.933029  26 H  s               334     -5.849800  20 H  s         
   300      5.168388  18 H  s               515      4.973360  33 H  s         
   368     -4.242174  22 H  s                37      4.211408   3 H  s         
   317      3.803607  19 C  px               46     -3.172092   4 H  s         
   454     -3.124161  28 H  s               353      3.100050  21 C  pz        

 Vector   82  Occ=0.000000D+00  E= 9.487904D-02
              MO Center= -6.0D-01, -6.5D-01, -2.7D-01, r^2= 4.0D+01
   Bfn.  Coefficient  Atom+Function         Bfn.  Coefficient  Atom+Function  
  ----- ------------  ---------------      ----- ------------  ---------------
   402     10.643032  24 H  s               454     -8.213681  28 H  s         
   300      7.623992  18 H  s               463      7.606322  29 H  s         
   420     -5.852675  26 H  s               437     -5.490158  27 C  px        
   334      5.045194  20 H  s                56     -4.415013   5 C  s         
   317     -3.693981  19 C  px              473     -3.464067  30 C  s         

 Vector   83  Occ=0.000000D+00  E= 9.771818D-02
              MO Center= -1.2D+00,  6.4D-02, -3.2D-01, r^2= 3.9D+01
   Bfn.  Coefficient  Atom+Function         Bfn.  Coefficient  Atom+Function  
  ----- ------------  ---------------      ----- ------------  ---------------
   402      9.509826  24 H  s               497     -7.512142  31 H  s         
    56     -6.788629   5 C  s               174      6.498240  11 C  s         
   463     -5.817864  29 H  s               147     -5.464666   9 C  px        
   420     -5.476277  26 H  s               454      4.881942  28 H  s         
   438     -4.550720  27 C  py              378     -4.517860  23 C  s         

 Vector   84  Occ=0.000000D+00  E= 1.004666D-01
              MO Center=  2.2D+00,  3.7D-01, -9.8D-01, r^2= 3.8D+01
   Bfn.  Coefficient  Atom+Function         Bfn.  Coefficient  Atom+Function  
  ----- ------------  ---------------      ----- ------------  ---------------
   608      8.137233  38 H  s               147      6.913316   9 C  px        
    56      5.358555   5 C  s                63      5.221540   5 C  px        
   402     -4.763207  24 H  s               216     -4.697033  14 H  s         
   226     -4.494302  15 C  s               198      3.992820  12 H  s         
    13      3.725079   2 C  s               368     -3.543121  22 H  s         
[...]
   163     -7.852865  10 H  s               234      6.564186  15 C  py        
   226      6.097903  15 C  s               140      5.669911   9 C  s         
   319      5.630932  19 C  pz               12     -5.594643   2 C  s         

 Vector  172  Occ=0.000000D+00  E= 4.392248D-01
              MO Center= -4.0D-01,  1.1D+00,  3.4D-01, r^2= 2.3D+01
   Bfn.  Coefficient  Atom+Function         Bfn.  Coefficient  Atom+Function  
  ----- ------------  ---------------      ----- ------------  ---------------
   226     12.987855  15 C  s                13    -10.593684   2 C  s         
   113    -10.388335   7 N  px              106    -10.158078   7 N  s         
   140      9.608399   9 C  s               147     -9.236965   9 C  px        
   575      7.202341  36 N  s               276     -6.466471  17 N  s         
    63     -6.265223   5 C  px              300     -5.637288  18 H  s         

 Vector  173  Occ=0.000000D+00  E= 4.476051D-01
              MO Center= -5.4D-01,  3.5D-01,  3.4D-01, r^2= 2.3D+01
   Bfn.  Coefficient  Atom+Function         Bfn.  Coefficient  Atom+Function  
  ----- ------------  ---------------      ----- ------------  ---------------
   318    -10.596979  19 C  py               56     10.002881   5 C  s         
   106     -8.244156   7 N  s               402      7.888926  24 H  s         
    63      7.699777   5 C  px              430     -7.306535  27 C  s         
   284     -6.879386  17 N  py              226      6.842873  15 C  s         
   174     -6.622424  11 C  s                13      6.260766   2 C  s         

 Vector  174  Occ=0.000000D+00  E= 4.510102D-01
              MO Center= -7.4D-01,  6.4D-02,  1.5D-01, r^2= 2.1D+01
   Bfn.  Coefficient  Atom+Function         Bfn.  Coefficient  Atom+Function  
  ----- ------------  ---------------      ----- ------------  ---------------
   106      9.922029   7 N  s               226     -9.108076  15 C  s         
   300     -8.141361  18 H  s               147      7.222260   9 C  px        
   149     -7.078495   9 C  pz              235      6.903639  15 C  pz        
   575     -6.619183  36 N  s               454      6.124219  28 H  s         
   319     -5.975543  19 C  pz               63      5.811302   5 C  px        

 Vector  175  Occ=0.000000D+00  E= 4.574508D-01
              MO Center= -5.0D-01,  6.0D-02,  7.8D-02, r^2= 2.1D+01
   Bfn.  Coefficient  Atom+Function         Bfn.  Coefficient  Atom+Function  
  ----- ------------  ---------------      ----- ------------  ---------------
   430     12.840523  27 C  s               317     10.422400  19 C  px        
   378      8.753961  23 C  s               319     -8.366156  19 C  pz        
   472      7.993943  30 C  s               174      7.320831  11 C  s         
   454      6.702403  28 H  s               402     -6.445778  24 H  s         
   234     -6.385435  15 C  py              310     -6.365464  19 C  s         

 Vector  176  Occ=0.000000D+00  E= 4.614835D-01
              MO Center= -9.7D-02, -3.9D-01,  5.3D-01, r^2= 2.2D+01
   Bfn.  Coefficient  Atom+Function         Bfn.  Coefficient  Atom+Function  
  ----- ------------  ---------------      ----- ------------  ---------------
   276     15.325966  17 N  s               377    -11.981822  23 C  s         
   430    -11.751319  27 C  s               317    -10.449422  19 C  px        
   410      9.106765  25 H  s               318     -8.658950  19 C  py        
   353     -8.587926  21 C  pz               13      6.697672   2 C  s         
   352     -6.510555  21 C  py              472     -6.388979  30 C  s         

 Vector  177  Occ=0.000000D+00  E= 4.616219D-01
              MO Center=  3.7D-01, -3.5D-01,  1.3D-01, r^2= 2.0D+01
   Bfn.  Coefficient  Atom+Function         Bfn.  Coefficient  Atom+Function  
  ----- ------------  ---------------      ----- ------------  ---------------
   430     33.444470  27 C  s               317     25.047579  19 C  px        
   234     23.036927  15 C  py              276     21.001972  17 N  s         
   310    -18.332691  19 C  s               226    -17.312558  15 C  s         
   353     17.293779  21 C  pz              318     16.918397  19 C  py        
   351     12.379280  21 C  px              344    -12.278453  21 C  s         

 Vector  178  Occ=0.000000D+00  E= 4.656360D-01
              MO Center= -2.1D-01,  4.9D-02,  1.7D-01, r^2= 2.0D+01
   Bfn.  Coefficient  Atom+Function         Bfn.  Coefficient  Atom+Function  
  ----- ------------  ---------------      ----- ------------  ---------------
   300     15.985229  18 H  s               430     15.905449  27 C  s         
   276     14.481699  17 N  s               174    -12.327031  11 C  s         
   351      9.886827  21 C  px              106      9.449034   7 N  s         
   234      8.453501  15 C  py              149     -7.750367   9 C  pz        
   251      7.556672  16 O  s               226     -7.305359  15 C  s         

 Vector  179  Occ=0.000000D+00  E= 4.680848D-01
              MO Center= -2.3D-01, -6.2D-02, -1.8D-01, r^2= 2.1D+01
   Bfn.  Coefficient  Atom+Function         Bfn.  Coefficient  Atom+Function  
  ----- ------------  ---------------      ----- ------------  ---------------
   226     15.546739  15 C  s               140     13.556270   9 C  s         
   174    -12.500346  11 C  s               378     -9.983607  23 C  s         
    13     -9.592792   2 C  s               148      9.554883   9 C  py        
   430     -9.212889  27 C  s               300      9.053387  18 H  s         
    63     -8.531248   5 C  px              454     -7.556296  28 H  s         

 Vector  180  Occ=0.000000D+00  E= 4.740254D-01
              MO Center= -2.6D-02,  7.5D-01,  1.3D-01, r^2= 2.1D+01
   Bfn.  Coefficient  Atom+Function         Bfn.  Coefficient  Atom+Function  
  ----- ------------  ---------------      ----- ------------  ---------------
    12     14.503670   2 C  s                56     13.446861   5 C  s         
   234    -10.087167  15 C  py               13      8.851274   2 C  s         
   351      8.715308  21 C  px              226     -8.578494  15 C  s         
   378      8.436620  23 C  s                36     -7.253489   3 H  s         
    45     -7.113593   4 H  s                63      6.982682   5 C  px        

 Vector  181  Occ=0.000000D+00  E= 4.770394D-01
              MO Center= -3.9D-01, -1.5D-02,  1.4D-02, r^2= 2.2D+01
   Bfn.  Coefficient  Atom+Function         Bfn.  Coefficient  Atom+Function  
  ----- ------------  ---------------      ----- ------------  ---------------
   525     24.806454  34 C  s               378     17.056373  23 C  s         
   575    -14.607561  36 N  s               353    -12.261240  21 C  pz        
   430    -11.647356  27 C  s               351     11.166914  21 C  px        
   174    -10.836488  11 C  s               140    -10.186425   9 C  s         
   226     -9.045509  15 C  s               284      8.939222  17 N  py        

 Vector  182  Occ=0.000000D+00  E= 4.782114D-01
              MO Center= -8.6D-01, -1.1D+00, -4.1D-01, r^2= 2.3D+01
   Bfn.  Coefficient  Atom+Function         Bfn.  Coefficient  Atom+Function  
  ----- ------------  ---------------      ----- ------------  ---------------
   174     17.778570  11 C  s               525    -14.291257  34 C  s         
   276     12.727626  17 N  s                56    -12.179664   5 C  s         
   378    -11.681447  23 C  s               226    -11.137796  15 C  s         
   473     10.189519  30 C  s               147     -9.078391   9 C  px        
   148     -8.940528   9 C  py              284     -6.963064  17 N  py        

 Vector  183  Occ=0.000000D+00  E= 4.810332D-01
              MO Center=  1.4D-01,  1.5D+00,  1.1D-01, r^2= 2.1D+01
   Bfn.  Coefficient  Atom+Function         Bfn.  Coefficient  Atom+Function  
  ----- ------------  ---------------      ----- ------------  ---------------
   174     23.684152  11 C  s               317     11.770944  19 C  px        
   300    -10.598143  18 H  s               206    -10.032378  13 H  s         
   525     -9.869949  34 C  s               276     -9.621411  17 N  s         
   319     -8.590512  19 C  pz              148     -8.384723   9 C  py        
   234     -8.410882  15 C  py              351      8.203102  21 C  px        

 Vector  184  Occ=0.000000D+00  E= 4.899085D-01
              MO Center=  5.5D-02, -1.8D-01,  1.3D-01, r^2= 2.0D+01
   Bfn.  Coefficient  Atom+Function         Bfn.  Coefficient  Atom+Function  
  ----- ------------  ---------------      ----- ------------  ---------------
   525     24.683703  34 C  s               473     19.304907  30 C  s         
   318     15.557822  19 C  py              300    -14.477521  18 H  s         
   174     13.458982  11 C  s               378     13.362011  23 C  s         
   430    -12.334039  27 C  s               140    -11.770808   9 C  s         
   226    -11.548273  15 C  s               234     10.672701  15 C  py        

 Vector  185  Occ=0.000000D+00  E= 4.927888D-01
              MO Center= -5.7D-02, -5.5D-01,  2.7D-01, r^2= 2.0D+01
   Bfn.  Coefficient  Atom+Function         Bfn.  Coefficient  Atom+Function  
  ----- ------------  ---------------      ----- ------------  ---------------
   525     21.631026  34 C  s               226    -18.843412  15 C  s         
   140    -16.392768   9 C  s               318     12.959449  19 C  py        
   344    -11.958029  21 C  s               284     10.208646  17 N  py        
   234      9.943194  15 C  py              378      9.226722  23 C  s         
   402      7.932994  24 H  s               106      7.748900   7 N  s         

 Vector  186  Occ=0.000000D+00  E= 4.952880D-01
              MO Center=  1.1D-01,  1.1D+00, -7.1D-02, r^2= 2.1D+01
   Bfn.  Coefficient  Atom+Function         Bfn.  Coefficient  Atom+Function  
  ----- ------------  ---------------      ----- ------------  ---------------
    13     12.063288   2 C  s                56      9.371335   5 C  s         
   283      8.900824  17 N  px              226     -8.182563  15 C  s         
    63      7.650510   5 C  px              473      7.599399  30 C  s         
   140     -7.498814   9 C  s               147      7.470450   9 C  px        
   438      6.106117  27 C  py              215      5.822053  14 H  s         

 Vector  187  Occ=0.000000D+00  E= 4.970835D-01
              MO Center= -1.1D+00,  6.1D-01,  1.7D-01, r^2= 1.9D+01
   Bfn.  Coefficient  Atom+Function         Bfn.  Coefficient  Atom+Function  
  ----- ------------  ---------------      ----- ------------  ---------------
   174     16.850557  11 C  s               234    -11.570730  15 C  py        
   429     -9.353955  27 C  s               378     -8.813447  23 C  s         
   283     -8.022254  17 N  px              148     -7.340133   9 C  py        
   525     -7.239870  34 C  s               462      7.135305  29 H  s         
   318     -7.067908  19 C  py              430     -7.014866  27 C  s         

 Vector  188  Occ=0.000000D+00  E= 5.002050D-01
              MO Center= -8.7D-01,  2.2D-01,  3.5D-01, r^2= 2.1D+01
   Bfn.  Coefficient  Atom+Function         Bfn.  Coefficient  Atom+Function  
  ----- ------------  ---------------      ----- ------------  ---------------
   378     17.971194  23 C  s               351     13.177339  21 C  px        
    56     12.880772   5 C  s               226    -12.381686  15 C  s         
   140    -11.420408   9 C  s               473    -10.030473  30 C  s         
   525      9.543760  34 C  s               353     -8.835568  21 C  pz        
   300      8.589710  18 H  s                12      8.328685   2 C  s         


 center of mass
 --------------
 x =   0.09792672 y =  -0.02328772 z =  -0.01713211

 moments of inertia (a.u.)
 ------------------
        5032.600896660399          -0.000000000000          -0.000000000001
          -0.000000000000        3233.391929644128          -0.000000000001
          -0.000000000001          -0.000000000001        7390.466932515067

  Mulliken analysis of the total density
  --------------------------------------

    Atom       Charge   Shell Charges
 -----------   ------   -------------------------------------------------------
    1 H    1     0.83   0.76  0.09  0.01  0.03 -0.08
    2 C    6     6.42   2.01  0.66  0.33  0.20  2.07  0.98 -0.02  0.06  0.12
    3 H    1     0.91   0.76  0.18  0.01  0.03 -0.07
    4 H    1     0.83   0.76  0.10  0.01  0.03 -0.06
    5 C    6     5.17   2.01  0.68  0.06  0.06  1.89  0.35 -0.13  0.24  0.01
    6 O    8     8.78   2.01  0.82  1.00  0.16  2.80  1.87  0.12  0.02 -0.01
    7 N    7     7.45   2.01  0.72  0.81 -0.17  2.45  1.45  0.08  0.05  0.04
    8 H    1     0.98   0.77  0.22 -0.03  0.05 -0.03
    9 C    6     6.76   2.01  0.66  0.17  0.05  1.99  1.46  0.01  0.14  0.27
   10 H    1     1.01   0.78  0.16  0.02  0.03  0.02
   11 C    6     5.61   2.01  0.66  0.15  0.21  2.04  0.51 -0.03  0.07 -0.01
   12 H    1     0.95   0.77  0.23  0.01  0.03 -0.09
   13 H    1     0.92   0.77  0.17  0.02  0.03 -0.07
   14 H    1     0.97   0.77  0.24  0.01  0.03 -0.07
   15 C    6     4.62   2.01  0.68  0.03 -0.02  1.89  0.22  0.01  0.24 -0.44
   16 O    8     8.85   2.01  0.82  1.03  0.19  2.79  1.86  0.14  0.01 -0.00
   17 N    7     7.38   2.01  0.72  0.88 -0.19  2.45  1.45 -0.02  0.05  0.03
   18 H    1     0.82   0.74  0.34 -0.11  0.06 -0.21
   19 C    6     6.42   2.01  0.67  0.07  0.06  1.99  1.19  0.34  0.14 -0.05
   20 H    1     1.04   0.79  0.23 -0.02  0.03  0.02
   21 C    6     6.61   2.01  0.66  0.31  0.02  2.01  1.26 -0.11  0.12  0.34
   22 H    1     1.12   0.79  0.35  0.01  0.03 -0.05
   23 C    6     5.22   2.01  0.67  0.09  0.05  2.04  0.46 -0.03  0.07 -0.13
   24 H    1     1.04   0.78  0.24  0.02  0.03 -0.03
   25 H    1     1.02   0.78  0.31 -0.01  0.03 -0.08
   26 H    1     1.04   0.78  0.31  0.01  0.03 -0.09
   27 C    6     6.03   2.01  0.66  0.54 -0.15  2.03  0.76 -0.10  0.10  0.17
   28 H    1     1.10   0.79  0.38 -0.03  0.03 -0.07
   29 H    1     0.96   0.78  0.24 -0.01  0.03 -0.09
   30 C    6     5.71   2.01  0.66  0.20  0.27  2.04  0.56 -0.01  0.07 -0.09
   31 H    1     0.97   0.78  0.22  0.02  0.03 -0.08
   32 H    1     0.99   0.78  0.26  0.02  0.03 -0.08
   33 H    1     0.98   0.77  0.25  0.01  0.03 -0.08
   34 C    6     4.44   2.01  0.68  0.07  0.01  1.89 -0.14 -0.09  0.24 -0.22
   35 O    8     8.79   2.01  0.82  1.02  0.15  2.79  1.84  0.15  0.01 -0.01
   36 N    7     7.32   2.01  0.72  0.87 -0.12  2.47  1.25  0.09  0.04 -0.00
   37 H    1     1.00   0.76  0.22 -0.00  0.05 -0.03
   38 H    1     0.93   0.74  0.19 -0.02  0.06 -0.04

       Multipole analysis of the density wrt the origin
       ------------------------------------------------

     L   x y z        total         open         nuclear
     -   - - -        -----         ----         -------
     0   0 0 0     -0.000000      0.000000    132.000000

     1   1 0 0     -0.658746      0.000000     -0.000000
     1   0 1 0      2.899763      0.000000      0.000000
     1   0 0 1      0.300628      0.000000      0.000000

     2   2 0 0    -78.515171      0.000000   1598.894408
     2   1 1 0      0.643041      0.000000     53.362909
     2   1 0 1     -8.152061      0.000000    -20.643504
     2   0 2 0    -77.247027      0.000000   2568.033025
     2   0 1 1      2.348950      0.000000     11.521101
     2   0 0 2    -78.462505      0.000000    271.088363


 Task  times  cpu:     5696.4s     wall:     6035.3s


                                NWChem Input Module
                                -------------------


 Summary of allocated global arrays
-----------------------------------
  No active global arrays


MA_summarize_allocated_blocks: starting scan ...
MA_summarize_allocated_blocks: scan completed: 0 heap blocks, 0 stack blocks
MA usage statistics:

	allocation statistics:
					      heap	     stack
					      ----	     -----
	current number of blocks	         0	         0
	maximum number of blocks	        16	        14
	current total bytes		         0	         0
	maximum total bytes		    131224	  28332216
	maximum total K-bytes		       132	     28333
	maximum total M-bytes		         1	        29


                                     CITATION
                                     --------
                Please cite the following reference when publishing
                           results obtained with NWChem:

          E. Apra, E. J. Bylaska, W. A. de Jong, N. Govind, K. Kowalski,
       T. P. Straatsma, M. Valiev, H. J. J. van Dam, Y. Alexeev, J. Anchell,
       V. Anisimov, F. W. Aquino, R. Atta-Fynn, J. Autschbach, N. P. Bauman,
     J. C. Becca, D. E. Bernholdt, K. Bhaskaran-Nair, S. Bogatko, P. Borowski,
         J. Boschen, J. Brabec, A. Bruner, E. Cauet, Y. Chen, G. N. Chuev,
      C. J. Cramer, J. Daily, M. J. O. Deegan, T. H. Dunning Jr., M. Dupuis,
   K. G. Dyall, G. I. Fann, S. A. Fischer, A. Fonari, H. Fruchtl, L. Gagliardi,
      J. Garza, N. Gawande, S. Ghosh, K. Glaesemann, A. W. Gotz, J. Hammond,
       V. Helms, E. D. Hermes, K. Hirao, S. Hirata, M. Jacquelin, L. Jensen,
   B. G. Johnson, H. Jonsson, R. A. Kendall, M. Klemm, R. Kobayashi, V. Konkov,
      S. Krishnamoorthy, M. Krishnan, Z. Lin, R. D. Lins, R. J. Littlefield,
      A. J. Logsdail, K. Lopata, W. Ma, A. V. Marenich, J. Martin del Campo,
   D. Mejia-Rodriguez, J. E. Moore, J. M. Mullin, T. Nakajima, D. R. Nascimento,
    J. A. Nichols, P. J. Nichols, J. Nieplocha, A. Otero-de-la-Roza, B. Palmer,
    A. Panyala, T. Pirojsirikul, B. Peng, R. Peverati, J. Pittner, L. Pollack,
   R. M. Richard, P. Sadayappan, G. C. Schatz, W. A. Shelton, D. W. Silverstein,
   D. M. A. Smith, T. A. Soares, D. Song, M. Swart, H. L. Taylor, G. S. Thomas,
            V. Tipparaju, D. G. Truhlar, K. Tsemekhman, T. Van Voorhis,
      A. Vazquez-Mayagoitia, P. Verma, O. Villa, A. Vishnu, K. D. Vogiatzis,
        D. Wang, J. H. Weare, M. J. Williamson, T. L. Windus, K. Wolinski,
        A. T. Wong, Q. Wu, C. Yang, Q. Yu, M. Zacharias, Z. Zhang, Y. Zhao,
                                and R. J. Harrison
                        "NWChem: Past, present, and future
                         J. Chem. Phys. 152, 184102 (2020)
                               doi:10.1063/5.0004997

                                      AUTHORS
                                      -------
  E. Apra, E. J. Bylaska, N. Govind, K. Kowalski, M. Valiev, D. Mejia-Rodriguez,
       A. Kunitsa, N. P. Bauman, A. Panyala, W. A. de Jong, T. P. Straatsma,
   H. J. J. van Dam, D. Wang, T. L. Windus, J. Hammond, J. Autschbach, A. Woods,
    K. Bhaskaran-Nair, J. Brabec, K. Lopata, S. A. Fischer, S. Krishnamoorthy,
     M. Jacquelin, W. Ma, M. Klemm, O. Villa, Y. Chen, V. Anisimov, F. Aquino,
     S. Hirata, M. T. Hackler, E. Hermes, L. Jensen, J. E. Moore, J. C. Becca,
      V. Konjkov, T. Risthaus, M. Malagoli, A. Marenich, A. Otero-de-la-Roza,
        J. Mullin, P. Nichols, R. Peverati, J. Pittner, Y. Zhao, P.-D. Fan,
        A. Fonari, M. J. Williamson, R. J. Harrison, J. R. Rehr, M. Dupuis,
     D. Silverstein, D. M. A. Smith, J. Nieplocha, V. Tipparaju, M. Krishnan,
     B. E. Van Kuiken, A. Vazquez-Mayagoitia, M. Swart, Q. Wu, T. Van Voorhis,
     A. A. Auer, M. Nooijen, L. D. Crosby, E. Brown, G. Cisneros, G. I. Fann,
   H. Fruchtl, J. Garza, K. Hirao, R. A. Kendall, J. A. Nichols, K. Tsemekhman,
    K. Wolinski, J. Anchell, D. E. Bernholdt, P. Borowski, T. Clark, D. Clerc,
   H. Dachsel, M. J. O. Deegan, K. Dyall, D. Elwood, E. Glendening, M. Gutowski,
   A. C. Hess, J. Jaffe, B. G. Johnson, J. Ju, R. Kobayashi, R. Kutteh, Z. Lin,
   R. Littlefield, X. Long, B. Meng, T. Nakajima, S. Niu, L. Pollack, M. Rosing,
   K. Glaesemann, G. Sandrone, M. Stave, H. Taylor, G. Thomas, J. H. van Lenthe,
                               A. T. Wong, Z. Zhang.

 Total times  cpu:     5696.5s     wall:     6035.8s
