export TMOUT=5400
export TMPDIR=/tmp
export PTMPDIR=/tmp/ptmp
 argument  1 = ALA_PHE_5.nw
                                         
                                         


             Northwest Computational Chemistry Package (NWChem) 7.2.0
             --------------------------------------------------------


                    Environmental Molecular Sciences Laboratory
                       Pacific Northwest National Laboratory
                                Richland, WA 99352

                              Copyright (c) 1994-2022
                       Pacific Northwest National Laboratory
                            Battelle Memorial Institute

             NWChem is an open-source computational chemistry package
                        distributed under the terms of the
                      Educational Community License (ECL) 2.0
             A copy of the license is included with this distribution
                              in the LICENSE.TXT file

                                  ACKNOWLEDGMENT
                                  --------------

            This software and its documentation were developed at the
            EMSL at Pacific Northwest National Laboratory, a multiprogram
            national laboratory, operated for the U.S. Department of Energy
            by Battelle under Contract Number DE-AC05-76RL01830. Support
            for this work was provided by the Department of Energy Office
            of Biological and Environmental Research, Office of Basic
            Energy Sciences, and the Office of Advanced Scientific Computing.


           Job information
           ---------------

    hostname        = nova18-21
    program         = /opt/rit/el9/20230413/app/linux-rhel9-x86_64_v3/gcc-11.2.1/nwchem-7.2.0-oxtctbuhfuzyfaoziquq6bki22grib3g/bin/nwchem
    date            = Mon Jun 30 14:41:00 2025

    compiled        = Wed_May_17_23:46:39_2023
    source          = /tmp/root/spack-stage/spack-stage-nwchem-7.2.0-oxtctbuhfuzyfaoziquq6bki22grib3g/spack-src
    nwchem branch   = 7.2.0
    nwchem revision = d0d141fd
    ga revision     = 5.8.0
    use scalapack   = T
    input           = ALA_PHE_5.nw
    prefix          = ALA_PHE_5.
    data base       = ./ALA_PHE_5.db
    status          = startup
    nproc           =        8
    time left       =     -1s



           Memory information
           ------------------

    heap     =   26214398 doubles =    200.0 Mbytes
    stack    =   26214395 doubles =    200.0 Mbytes
    global   =   52428800 doubles =    400.0 Mbytes (distinct from heap & stack)
    total    =  104857593 doubles =    800.0 Mbytes
    verify   = yes
    hardfail = no 


           Directory information
           ---------------------

  0 permanent = .
  0 scratch   = .




                                NWChem Input Module
                                -------------------



 Scaling coordinates for geometry "geometry" by  1.889725989
 (inverse scale =  0.529177249)

 C1  symmetry detected

          ------
          auto-z
          ------
  no constraints, skipping    0.0000000000000000     
  no constraints, skipping    0.0000000000000000     


                             Geometry "geometry" -> ""
                             -------------------------

 Output coordinates in angstroms (scale by  1.889725989 to convert to a.u.)

  No.       Tag          Charge          X              Y              Z
 ---- ---------------- ---------- -------------- -------------- --------------
    1 H                    1.0000    -0.41495719    -4.65010325    -1.68572643
    2 C                    6.0000    -1.33882116    -4.12528732    -1.91936847
    3 H                    1.0000    -2.19443839    -4.71867048    -1.60243066
    4 H                    1.0000    -1.39682503    -3.94947460    -2.99256576
    5 C                    6.0000    -1.35700346    -2.79560158    -1.20425643
    6 O                    8.0000    -1.41875378    -1.75248894    -1.84220229
    7 N                    7.0000    -1.29100926    -2.82963410     0.12593023
    8 H                    1.0000    -1.23345437    -3.73005110     0.57118372
    9 C                    6.0000    -1.31183059    -1.64777648     0.99706112
   10 H                    1.0000    -2.07452366    -0.96411491     0.61986072
   11 C                    6.0000    -1.74930947    -2.09993263     2.39877045
   12 H                    1.0000    -2.71910243    -2.59583669     2.34634160
   13 H                    1.0000    -1.01277848    -2.78561266     2.81993074
   14 H                    1.0000    -1.83518059    -1.23051448     3.05255576
   15 C                    6.0000     0.02306216    -0.86196584     0.99186782
   16 O                    8.0000     0.67083339    -0.71618825     2.02718194
   17 N                    7.0000     0.43350721    -0.37904855    -0.18586847
   18 H                    1.0000    -0.17971163    -0.57369150    -0.97185688
   19 C                    6.0000     1.63861309     0.41861527    -0.48898268
   20 H                    1.0000     1.61334286     0.60970786    -1.56199295
   21 C                    6.0000     1.55660694     1.79588867     0.19433422
   22 H                    1.0000     1.75000477     1.67245500     1.26068238
   23 H                    1.0000     2.35072312     2.42856754    -0.20430713
   24 C                    6.0000     0.23037859     2.51499888     0.01445685
   25 C                    6.0000    -0.70704496     2.54416048     1.06611825
   26 H                    1.0000    -0.47662636     2.06558863     2.00757311
   27 C                    6.0000    -1.94317608     3.19034814     0.89178999
   28 H                    1.0000    -2.65993460     3.21304138     1.70107131
   29 C                    6.0000    -2.24640924     3.81023743    -0.33212092
   30 H                    1.0000    -3.19660307     4.30758544    -0.46642892
   31 C                    6.0000    -1.31297960     3.78308632    -1.38370113
   32 H                    1.0000    -1.54580035     4.25986547    -2.32503005
   33 C                    6.0000    -0.07548287     3.13666916    -1.21041328
   34 H                    1.0000     0.63864734     3.11575691    -2.02065381
   35 C                    6.0000     3.00547803    -0.25346784    -0.23826663
   36 O                    8.0000     3.94969149    -0.00526930    -0.97599451
   37 N                    7.0000     3.15185693    -1.12372540     0.75040723
   38 H                    1.0000     4.05447967    -1.54468631     0.89000701
   39 H                    1.0000     2.38559716    -1.27121996     1.39288705

      Atomic Mass 
      ----------- 

      H                  1.007825
      C                 12.000000
      O                 15.994910
      N                 14.003070


 Effective nuclear repulsion energy (a.u.)    1599.2303003428

            Nuclear Dipole moment (a.u.) 
            ----------------------------
        X                 Y               Z
 ---------------- ---------------- ----------------
    -0.0000000000     0.0000000000     0.0000000000



                                Z-matrix (autoz)
                                -------- 

 Units are Angstrom for bonds and degrees for angles

      Type          Name      I     J     K     L     M      Value
      ----------- --------  ----- ----- ----- ----- ----- ----------
    1 Stretch                  1     2                       1.08791
    2 Stretch                  2     3                       1.08841
    3 Stretch                  2     4                       1.08905
    4 Stretch                  2     5                       1.50989
    5 Stretch                  5     6                       1.22428
    6 Stretch                  5     7                       1.33226
    7 Stretch                  7     8                       1.00614
    8 Stretch                  7     9                       1.46836
    9 Stretch                  9    10                       1.09150
   10 Stretch                  9    11                       1.53643
   11 Stretch                  9    15                       1.54902
   12 Stretch                 11    12                       1.09049
   13 Stretch                 11    13                       1.09088
   14 Stretch                 11    14                       1.09119
   15 Stretch                 15    16                       1.22993
   16 Stretch                 15    17                       1.33744
   17 Stretch                 17    18                       1.01573
   18 Stretch                 17    19                       1.47663
   19 Stretch                 19    20                       1.09019
   20 Stretch                 19    21                       1.53965
   21 Stretch                 19    35                       1.54366
   22 Stretch                 21    22                       1.09075
   23 Stretch                 21    23                       1.09079
   24 Stretch                 21    24                       1.51933
   25 Stretch                 24    25                       1.40911
   26 Stretch                 24    33                       1.40724
   27 Stretch                 25    26                       1.08095
   28 Stretch                 25    27                       1.40569
   29 Stretch                 27    28                       1.08129
   30 Stretch                 27    29                       1.40505
   31 Stretch                 29    30                       1.08086
   32 Stretch                 29    31                       1.40636
   33 Stretch                 31    32                       1.08057
   34 Stretch                 31    33                       1.40687
   35 Stretch                 33    34                       1.08024
   36 Stretch                 35    36                       1.22368
   37 Stretch                 35    37                       1.32524
   38 Stretch                 37    38                       1.00570
   39 Stretch                 37    39                       1.01079
   40 Bend                     1     2     3               110.00127
   41 Bend                     1     2     4               109.55703
   42 Bend                     1     2     5               109.47180
   43 Bend                     2     5     6               120.27461
   44 Bend                     2     5     7               116.73012
   45 Bend                     3     2     4               109.45696
   46 Bend                     3     2     5               109.43484
   47 Bend                     4     2     5               108.89974
   48 Bend                     5     7     8               117.87497
   49 Bend                     5     7     9               124.82567
   50 Bend                     6     5     7               122.99255
   51 Bend                     7     9    10               108.00047
   52 Bend                     7     9    11               107.96375
   53 Bend                     7     9    15               113.21007
   54 Bend                     8     7     9               117.29525
   55 Bend                     9    11    12               110.07127
   56 Bend                     9    11    13               110.17897
   57 Bend                     9    11    14               109.54462
   58 Bend                     9    15    16               120.74200
   59 Bend                     9    15    17               116.78164
   60 Bend                    10     9    11               107.49629
   61 Bend                    10     9    15               106.45495
   62 Bend                    11     9    15               113.43616
   63 Bend                    12    11    13               109.46112
   64 Bend                    12    11    14               108.73255
   65 Bend                    13    11    14               108.82190
   66 Bend                    15    17    18               115.27411
   67 Bend                    15    17    19               128.77571
   68 Bend                    16    15    17               122.46776
   69 Bend                    17    19    20               106.12958
   70 Bend                    17    19    21               110.40474
   71 Bend                    17    19    35               117.00839
   72 Bend                    18    17    19               115.93704
   73 Bend                    19    21    22               108.85719
   74 Bend                    19    21    23               108.53450
   75 Bend                    19    21    24               114.66677
   76 Bend                    19    35    36               119.80315
   77 Bend                    19    35    37               120.32353
   78 Bend                    20    19    21               106.18785
   79 Bend                    20    19    35               104.87429
   80 Bend                    21    19    35               111.37967
   81 Bend                    21    24    25               120.14177
   82 Bend                    21    24    33               120.12343
   83 Bend                    22    21    23               107.08798
   84 Bend                    22    21    24               108.90970
   85 Bend                    23    21    24               108.52367
   86 Bend                    24    25    26               119.93669
   87 Bend                    24    25    27               120.13026
   88 Bend                    24    33    31               120.09069
   89 Bend                    24    33    34               120.04079
   90 Bend                    25    24    33               119.72728
   91 Bend                    25    27    28               119.98298
   92 Bend                    25    27    29               120.04115
   93 Bend                    26    25    27               119.93267
   94 Bend                    27    29    30               120.06443
   95 Bend                    27    29    31               119.97183
   96 Bend                    28    27    29               119.97561
   97 Bend                    29    31    32               119.99056
   98 Bend                    29    31    33               120.03874
   99 Bend                    30    29    31               119.96373
  100 Bend                    31    33    34               119.86826
  101 Bend                    32    31    33               119.97067
  102 Bend                    35    37    38               118.52633
  103 Bend                    35    37    39               119.09686
  104 Bend                    36    35    37               119.85022
  105 Bend                    38    37    39               122.07833
  106 Torsion                  1     2     5     6         119.23871
  107 Torsion                  1     2     5     7         -60.17855
  108 Torsion                  2     5     7     8           0.00476
  109 Torsion                  2     5     7     9        -179.23593
  110 Torsion                  3     2     5     6        -120.13325
  111 Torsion                  3     2     5     7          60.44950
  112 Torsion                  4     2     5     6          -0.51913
  113 Torsion                  4     2     5     7        -179.93639
  114 Torsion                  5     7     9    10          42.87544
  115 Torsion                  5     7     9    11         158.83044
  116 Torsion                  5     7     9    15         -74.73126
  117 Torsion                  6     5     7     8        -179.39521
  118 Torsion                  6     5     7     9           1.36410
  119 Torsion                  7     9    11    12         -56.91154
  120 Torsion                  7     9    11    13          63.89808
  121 Torsion                  7     9    11    14        -176.41856
  122 Torsion                  7     9    15    16        -119.24136
  123 Torsion                  7     9    15    17          59.71782
  124 Torsion                  8     7     9    10        -136.36925
  125 Torsion                  8     7     9    11         -20.41425
  126 Torsion                  8     7     9    15         106.02405
  127 Torsion                  9    15    17    18           0.24331
  128 Torsion                  9    15    17    19         178.85795
  129 Torsion                 10     9    11    12          59.37258
  130 Torsion                 10     9    11    13        -179.81780
  131 Torsion                 10     9    11    14         -60.13444
  132 Torsion                 10     9    15    16         122.25272
  133 Torsion                 10     9    15    17         -58.78810
  134 Torsion                 11     9    15    16           4.23761
  135 Torsion                 11     9    15    17        -176.80321
  136 Torsion                 12    11     9    15         176.78251
  137 Torsion                 13    11     9    15         -62.40787
  138 Torsion                 14    11     9    15          57.27549
  139 Torsion                 15    17    19    20         179.79846
  140 Torsion                 15    17    19    21         -65.54246
  141 Torsion                 15    17    19    35          63.22573
  142 Torsion                 16    15    17    18         179.18301
  143 Torsion                 16    15    17    19          -2.20235
  144 Torsion                 17    19    21    22          74.98416
  145 Torsion                 17    19    21    23        -168.78436
  146 Torsion                 17    19    21    24         -47.27144
  147 Torsion                 17    19    35    36         145.52835
  148 Torsion                 17    19    35    37         -32.72107
  149 Torsion                 18    17    19    20          -1.59461
  150 Torsion                 18    17    19    21         113.06447
  151 Torsion                 18    17    19    35        -118.16734
  152 Torsion                 19    21    24    25         102.91235
  153 Torsion                 19    21    24    33         -76.08727
  154 Torsion                 19    35    37    38        -179.93689
  155 Torsion                 19    35    37    39          -6.07891
  156 Torsion                 20    19    21    22        -170.39357
  157 Torsion                 20    19    21    23         -54.16209
  158 Torsion                 20    19    21    24          67.35083
  159 Torsion                 20    19    35    36          28.26978
  160 Torsion                 20    19    35    37        -149.97964
  161 Torsion                 21    19    35    36         -86.17074
  162 Torsion                 21    19    35    37          95.57984
  163 Torsion                 21    24    25    26           0.84304
  164 Torsion                 21    24    25    27        -178.93418
  165 Torsion                 21    24    33    31         178.93426
  166 Torsion                 21    24    33    34          -0.87890
  167 Torsion                 22    21    19    35         -56.77179
  168 Torsion                 22    21    24    25         -19.31476
  169 Torsion                 22    21    24    33         161.68562
  170 Torsion                 23    21    19    35          59.45969
  171 Torsion                 23    21    24    25        -135.56881
  172 Torsion                 23    21    24    33          45.43157
  173 Torsion                 24    21    19    35        -179.02739
  174 Torsion                 24    25    27    28        -179.87400
  175 Torsion                 24    25    27    29          -0.06258
  176 Torsion                 24    33    31    29           0.06286
  177 Torsion                 24    33    31    32         179.99667
  178 Torsion                 25    24    33    31          -0.06952
  179 Torsion                 25    24    33    34        -179.88268
  180 Torsion                 25    27    29    30        -179.97306
  181 Torsion                 25    27    29    31           0.05560
  182 Torsion                 26    25    24    33         179.84664
  183 Torsion                 26    25    27    28           0.34877
  184 Torsion                 26    25    27    29        -179.83981
  185 Torsion                 27    25    24    33           0.06941
  186 Torsion                 27    29    31    32        -179.98952
  187 Torsion                 27    29    31    33          -0.05574
  188 Torsion                 28    27    29    30          -0.16163
  189 Torsion                 28    27    29    31         179.86703
  190 Torsion                 29    31    33    34         179.87634
  191 Torsion                 30    29    31    32           0.03910
  192 Torsion                 30    29    31    33         179.97289
  193 Torsion                 32    31    33    34          -0.18986
  194 Torsion                 36    35    37    38           1.81452
  195 Torsion                 36    35    37    39         175.67249


            XYZ format geometry
            -------------------
    39
 geometry
 H                    -0.41495719    -4.65010325    -1.68572643
 C                    -1.33882116    -4.12528732    -1.91936847
 H                    -2.19443839    -4.71867048    -1.60243066
 H                    -1.39682503    -3.94947460    -2.99256576
 C                    -1.35700346    -2.79560158    -1.20425643
 O                    -1.41875378    -1.75248894    -1.84220229
 N                    -1.29100926    -2.82963410     0.12593023
 H                    -1.23345437    -3.73005110     0.57118372
 C                    -1.31183059    -1.64777648     0.99706112
 H                    -2.07452366    -0.96411491     0.61986072
 C                    -1.74930947    -2.09993263     2.39877045
 H                    -2.71910243    -2.59583669     2.34634160
 H                    -1.01277848    -2.78561266     2.81993074
 H                    -1.83518059    -1.23051448     3.05255576
 C                     0.02306216    -0.86196584     0.99186782
 O                     0.67083339    -0.71618825     2.02718194
 N                     0.43350721    -0.37904855    -0.18586847
 H                    -0.17971163    -0.57369150    -0.97185688
 C                     1.63861309     0.41861527    -0.48898268
 H                     1.61334286     0.60970786    -1.56199295
 C                     1.55660694     1.79588867     0.19433422
 H                     1.75000477     1.67245500     1.26068238
 H                     2.35072312     2.42856754    -0.20430713
 C                     0.23037859     2.51499888     0.01445685
 C                    -0.70704496     2.54416048     1.06611825
 H                    -0.47662636     2.06558863     2.00757311
 C                    -1.94317608     3.19034814     0.89178999
 H                    -2.65993460     3.21304138     1.70107131
 C                    -2.24640924     3.81023743    -0.33212092
 H                    -3.19660307     4.30758544    -0.46642892
 C                    -1.31297960     3.78308632    -1.38370113
 H                    -1.54580035     4.25986547    -2.32503005
 C                    -0.07548287     3.13666916    -1.21041328
 H                     0.63864734     3.11575691    -2.02065381
 C                     3.00547803    -0.25346784    -0.23826663
 O                     3.94969149    -0.00526930    -0.97599451
 N                     3.15185693    -1.12372540     0.75040723
 H                     4.05447967    -1.54468631     0.89000701
 H                     2.38559716    -1.27121996     1.39288705

 ==============================================================================
                                internuclear distances
 ------------------------------------------------------------------------------
       center one      |      center two      | atomic units |  angstroms
 ------------------------------------------------------------------------------
    2 C                |   1 H                |     2.05585  |     1.08791
    3 H                |   2 C                |     2.05679  |     1.08841
    4 H                |   2 C                |     2.05800  |     1.08905
    5 C                |   2 C                |     2.85329  |     1.50989
    6 O                |   5 C                |     2.31356  |     1.22428
    7 N                |   5 C                |     2.51760  |     1.33226
    8 H                |   7 N                |     1.90133  |     1.00614
    9 C                |   7 N                |     2.77480  |     1.46836
   10 H                |   9 C                |     2.06264  |     1.09150
   11 C                |   9 C                |     2.90343  |     1.53643
   12 H                |  11 C                |     2.06073  |     1.09049
   13 H                |  11 C                |     2.06146  |     1.09088
   14 H                |  11 C                |     2.06205  |     1.09119
   15 C                |   9 C                |     2.92722  |     1.54902
   16 O                |  15 C                |     2.32424  |     1.22993
   17 N                |  15 C                |     2.52739  |     1.33744
   18 H                |  17 N                |     1.91945  |     1.01573
   19 C                |  17 N                |     2.79042  |     1.47663
   20 H                |  19 C                |     2.06015  |     1.09019
   21 C                |  19 C                |     2.90952  |     1.53965
   22 H                |  21 C                |     2.06122  |     1.09075
   23 H                |  21 C                |     2.06129  |     1.09079
   24 C                |  21 C                |     2.87111  |     1.51933
   25 C                |  24 C                |     2.66284  |     1.40911
   26 H                |  25 C                |     2.04271  |     1.08095
   27 C                |  25 C                |     2.65637  |     1.40569
   28 H                |  27 C                |     2.04335  |     1.08129
   29 C                |  27 C                |     2.65516  |     1.40505
   30 H                |  29 C                |     2.04253  |     1.08086
   31 C                |  29 C                |     2.65764  |     1.40636
   32 H                |  31 C                |     2.04197  |     1.08057
   33 C                |  24 C                |     2.65930  |     1.40724
   33 C                |  31 C                |     2.65860  |     1.40687
   34 H                |  33 C                |     2.04135  |     1.08024
   35 C                |  19 C                |     2.91709  |     1.54366
   36 O                |  35 C                |     2.31241  |     1.22368
   37 N                |  35 C                |     2.50433  |     1.32524
   38 H                |  37 N                |     1.90049  |     1.00570
   39 H                |  37 N                |     1.91011  |     1.01079
 ------------------------------------------------------------------------------
                         number of included internuclear distances:         39
 ==============================================================================



 ==============================================================================
                                 internuclear angles
 ------------------------------------------------------------------------------
        center 1       |       center 2       |       center 3       |  degrees
 ------------------------------------------------------------------------------
    1 H                |   2 C                |   3 H                |   110.00
    1 H                |   2 C                |   4 H                |   109.56
    1 H                |   2 C                |   5 C                |   109.47
    3 H                |   2 C                |   4 H                |   109.46
    3 H                |   2 C                |   5 C                |   109.43
    4 H                |   2 C                |   5 C                |   108.90
    2 C                |   5 C                |   6 O                |   120.27
    2 C                |   5 C                |   7 N                |   116.73
    6 O                |   5 C                |   7 N                |   122.99
    5 C                |   7 N                |   8 H                |   117.87
    5 C                |   7 N                |   9 C                |   124.83
    8 H                |   7 N                |   9 C                |   117.30
    7 N                |   9 C                |  10 H                |   108.00
    7 N                |   9 C                |  11 C                |   107.96
    7 N                |   9 C                |  15 C                |   113.21
   10 H                |   9 C                |  11 C                |   107.50
   10 H                |   9 C                |  15 C                |   106.45
   11 C                |   9 C                |  15 C                |   113.44
    9 C                |  11 C                |  12 H                |   110.07
    9 C                |  11 C                |  13 H                |   110.18
    9 C                |  11 C                |  14 H                |   109.54
   12 H                |  11 C                |  13 H                |   109.46
   12 H                |  11 C                |  14 H                |   108.73
   13 H                |  11 C                |  14 H                |   108.82
    9 C                |  15 C                |  16 O                |   120.74
    9 C                |  15 C                |  17 N                |   116.78
   16 O                |  15 C                |  17 N                |   122.47
   15 C                |  17 N                |  18 H                |   115.27
   15 C                |  17 N                |  19 C                |   128.78
   18 H                |  17 N                |  19 C                |   115.94
   17 N                |  19 C                |  20 H                |   106.13
   17 N                |  19 C                |  21 C                |   110.40
   17 N                |  19 C                |  35 C                |   117.01
   20 H                |  19 C                |  21 C                |   106.19
   20 H                |  19 C                |  35 C                |   104.87
   21 C                |  19 C                |  35 C                |   111.38
   19 C                |  21 C                |  22 H                |   108.86
   19 C                |  21 C                |  23 H                |   108.53
   19 C                |  21 C                |  24 C                |   114.67
   22 H                |  21 C                |  23 H                |   107.09
   22 H                |  21 C                |  24 C                |   108.91
   23 H                |  21 C                |  24 C                |   108.52
   21 C                |  24 C                |  25 C                |   120.14
   21 C                |  24 C                |  33 C                |   120.12
   25 C                |  24 C                |  33 C                |   119.73
   24 C                |  25 C                |  26 H                |   119.94
   24 C                |  25 C                |  27 C                |   120.13
   26 H                |  25 C                |  27 C                |   119.93
   25 C                |  27 C                |  28 H                |   119.98
   25 C                |  27 C                |  29 C                |   120.04
   28 H                |  27 C                |  29 C                |   119.98
   27 C                |  29 C                |  30 H                |   120.06
   27 C                |  29 C                |  31 C                |   119.97
   30 H                |  29 C                |  31 C                |   119.96
   29 C                |  31 C                |  32 H                |   119.99
   29 C                |  31 C                |  33 C                |   120.04
   32 H                |  31 C                |  33 C                |   119.97
   24 C                |  33 C                |  31 C                |   120.09
   24 C                |  33 C                |  34 H                |   120.04
   31 C                |  33 C                |  34 H                |   119.87
   19 C                |  35 C                |  36 O                |   119.80
   19 C                |  35 C                |  37 N                |   120.32
   36 O                |  35 C                |  37 N                |   119.85
   35 C                |  37 N                |  38 H                |   118.53
   35 C                |  37 N                |  39 H                |   119.10
   38 H                |  37 N                |  39 H                |   122.08
 ------------------------------------------------------------------------------
                            number of included internuclear angles:         66
 ==============================================================================



  library name resolved from: environment
  library file name is: </opt/rit/el9/20230413/app/linux-rhel9-x86_64_v3/gcc-11.2.1/nwchem-7.2.0-oxtctbuhfuzyfaoziquq6bki22grib3g/share/nwchem/libraries/>
  


 Summary of "ao basis" -> "" (cartesian)
 ------------------------------------------------------------------------------
       Tag                 Description            Shells   Functions and Types
 ---------------- ------------------------------  ------  ---------------------
 *                        aug-cc-pvdz                 on all atoms 


                      Basis "ao basis" -> "ao basis" (cartesian)
                      -----
  H (Hydrogen)
  ------------
            Exponent  Coefficients 
       -------------- ---------------------------------------------------------
  1 S  1.30100000E+01  0.019685
  1 S  1.96200000E+00  0.137977
  1 S  4.44600000E-01  0.478148

  2 S  1.22000000E-01  1.000000

  3 S  2.97400000E-02  1.000000

  4 P  7.27000000E-01  1.000000

  5 P  1.41000000E-01  1.000000

  C (Carbon)
  ----------
            Exponent  Coefficients 
       -------------- ---------------------------------------------------------
  1 S  6.66500000E+03  0.000692
  1 S  1.00000000E+03  0.005329
  1 S  2.28000000E+02  0.027077
  1 S  6.47100000E+01  0.101718
  1 S  2.10600000E+01  0.274740
  1 S  7.49500000E+00  0.448564
  1 S  2.79700000E+00  0.285074
  1 S  5.21500000E-01  0.015204

  2 S  6.66500000E+03 -0.000146
  2 S  1.00000000E+03 -0.001154
  2 S  2.28000000E+02 -0.005725
  2 S  6.47100000E+01 -0.023312
  2 S  2.10600000E+01 -0.063955
  2 S  7.49500000E+00 -0.149981
  2 S  2.79700000E+00 -0.127262
  2 S  5.21500000E-01  0.544529

  3 S  1.59600000E-01  1.000000

  4 S  4.69000000E-02  1.000000

  5 P  9.43900000E+00  0.038109
  5 P  2.00200000E+00  0.209480
  5 P  5.45600000E-01  0.508557

  6 P  1.51700000E-01  1.000000

  7 P  4.04100000E-02  1.000000

  8 D  5.50000000E-01  1.000000

  9 D  1.51000000E-01  1.000000

  O (Oxygen)
  ----------
            Exponent  Coefficients 
       -------------- ---------------------------------------------------------
  1 S  1.17200000E+04  0.000710
  1 S  1.75900000E+03  0.005470
  1 S  4.00800000E+02  0.027837
  1 S  1.13700000E+02  0.104800
  1 S  3.70300000E+01  0.283062
  1 S  1.32700000E+01  0.448719
  1 S  5.02500000E+00  0.270952
  1 S  1.01300000E+00  0.015458

  2 S  1.17200000E+04 -0.000160
  2 S  1.75900000E+03 -0.001263
  2 S  4.00800000E+02 -0.006267
  2 S  1.13700000E+02 -0.025716
  2 S  3.70300000E+01 -0.070924
  2 S  1.32700000E+01 -0.165411
  2 S  5.02500000E+00 -0.116955
  2 S  1.01300000E+00  0.557368

  3 S  3.02300000E-01  1.000000

  4 S  7.89600000E-02  1.000000

  5 P  1.77000000E+01  0.043018
  5 P  3.85400000E+00  0.228913
  5 P  1.04600000E+00  0.508728

  6 P  2.75300000E-01  1.000000

  7 P  6.85600000E-02  1.000000

  8 D  1.18500000E+00  1.000000

  9 D  3.32000000E-01  1.000000

  N (Nitrogen)
  ------------
            Exponent  Coefficients 
       -------------- ---------------------------------------------------------
  1 S  9.04600000E+03  0.000700
  1 S  1.35700000E+03  0.005389
  1 S  3.09300000E+02  0.027406
  1 S  8.77300000E+01  0.103207
  1 S  2.85600000E+01  0.278723
  1 S  1.02100000E+01  0.448540
  1 S  3.83800000E+00  0.278238
  1 S  7.46600000E-01  0.015440

  2 S  9.04600000E+03 -0.000153
  2 S  1.35700000E+03 -0.001208
  2 S  3.09300000E+02 -0.005992
  2 S  8.77300000E+01 -0.024544
  2 S  2.85600000E+01 -0.067459
  2 S  1.02100000E+01 -0.158078
  2 S  3.83800000E+00 -0.121831
  2 S  7.46600000E-01  0.549003

  3 S  2.24800000E-01  1.000000

  4 S  6.12400000E-02  1.000000

  5 P  1.35500000E+01  0.039919
  5 P  2.91700000E+00  0.217169
  5 P  7.97300000E-01  0.510319

  6 P  2.18500000E-01  1.000000

  7 P  5.61100000E-02  1.000000

  8 D  8.17000000E-01  1.000000

  9 D  2.30000000E-01  1.000000



 Summary of "ao basis" -> "ao basis" (cartesian)
 ------------------------------------------------------------------------------
       Tag                 Description            Shells   Functions and Types
 ---------------- ------------------------------  ------  ---------------------
 H                        aug-cc-pvdz                5        9   3s2p
 C                        aug-cc-pvdz                9       25   4s3p2d
 O                        aug-cc-pvdz                9       25   4s3p2d
 N                        aug-cc-pvdz                9       25   4s3p2d


                                 NWChem SCF Module
                                 -----------------



  ao basis        = "ao basis"
  functions       =   671
  atoms           =    39
  closed shells   =    74
  open shells     =     0
  charge          =   0.00
  wavefunction    = RHF 
  input vectors   = atomic
  output vectors  = ./ALA_PHE_5.movecs
  use symmetry    = F
  symmetry adapt  = F


 Summary of "ao basis" -> "ao basis" (cartesian)
 ------------------------------------------------------------------------------
       Tag                 Description            Shells   Functions and Types
 ---------------- ------------------------------  ------  ---------------------
 H                        aug-cc-pvdz                5        9   3s2p
 C                        aug-cc-pvdz                9       25   4s3p2d
 O                        aug-cc-pvdz                9       25   4s3p2d
 N                        aug-cc-pvdz                9       25   4s3p2d



 Forming initial guess at       1.4s


 !! The overlap matrix has  12 vectors deemed linearly dependent with
    eigenvalues:
 1.37D-06 1.74D-06 1.95D-06 2.60D-06 3.08D-06 4.21D-06 5.28D-06 5.69D-06
 6.71D-06 7.12D-06 7.63D-06 9.17D-06


      Superposition of Atomic Density Guess
      -------------------------------------

 Sum of atomic energies:        -924.03424378

      Non-variational initial energy
      ------------------------------

 Total energy =    -937.484465
 1-e energy   =   -4431.143767
 2-e energy   =    1894.429002
 HOMO         =      -0.292072
 LUMO         =      -0.024830


 Starting SCF solution at     432.6s



 ----------------------------------------------
         Quadratically convergent ROHF

 Convergence threshold     :          1.000E-04
 Maximum no. of iterations :           30
 Final Fock-matrix accuracy:          1.000E-10
 ----------------------------------------------


              iter       energy          gnorm     gmax       time
             ----- ------------------- --------- --------- --------
                 1     -928.9419888511  2.46D+00  1.43D-01    838.5
                 2     -929.2769294705  8.99D-01  3.82D-02   1668.7
                 3     -929.3463995165  6.22D-02  4.55D-03   2918.9
                 4     -929.3469787107  1.99D-03  8.36D-05   5224.8
                 5     -929.3469792637  6.32D-06  1.35D-06   8272.0


       Final RHF  results 
       ------------------ 

         Total SCF energy =   -929.346979263748
      One-electron energy =  -4445.651035492810
      Two-electron energy =   1917.073755886234
 Nuclear repulsion energy =   1599.230300342828

        Time for solution =   7849.6s


             Final eigenvalues
             -----------------

              1      
    1  -20.5478
    2  -20.5429
    3  -20.5127
    4  -15.6226
    5  -15.5970
    6  -15.5748
    7  -11.3775
    8  -11.3721
    9  -11.3483
   10  -11.3128
   11  -11.2976
   12  -11.2589
   13  -11.2525
   14  -11.2515
   15  -11.2464
   16  -11.2462
   17  -11.2427
   18  -11.2422
   19  -11.2413
   20  -11.2404
   21   -1.4139
   22   -1.4019
   23   -1.3755
   24   -1.2700
   25   -1.2451
   26   -1.2041
   27   -1.1510
   28   -1.0813
   29   -1.0617
   30   -1.0132
   31   -1.0095
   32   -1.0018
   33   -0.9171
   34   -0.8869
   35   -0.8330
   36   -0.8290
   37   -0.8136
   38   -0.7989
   39   -0.7642
   40   -0.7481
   41   -0.7297
   42   -0.7015
   43   -0.6931
   44   -0.6908
   45   -0.6771
   46   -0.6451
   47   -0.6359
   48   -0.6355
   49   -0.6257
   50   -0.6129
   51   -0.6030
   52   -0.5960
   53   -0.5910
   54   -0.5879
   55   -0.5859
   56   -0.5664
   57   -0.5614
   58   -0.5515
   59   -0.5481
   60   -0.5434
   61   -0.5337
   62   -0.5272
   63   -0.5134
   64   -0.4891
   65   -0.4866
   66   -0.4837
   67   -0.4586
   68   -0.4431
   69   -0.4295
   70   -0.4099
   71   -0.3973
   72   -0.3894
   73   -0.3342
   74   -0.3260
   75    0.0210
   76    0.0335
   77    0.0382
   78    0.0389
   79    0.0464
   80    0.0497
   81    0.0547
   82    0.0554
   83    0.0601
   84    0.0671

                       ROHF Final Molecular Orbital Analysis
                       -------------------------------------

 Vector   21  Occ=2.000000D+00  E=-1.413941D+00
              MO Center= -1.1D+00, -2.0D+00, -1.0D+00, r^2= 2.5D+00
   Bfn.  Coefficient  Atom+Function         Bfn.  Coefficient  Atom+Function  
  ----- ------------  ---------------      ----- ------------  ---------------
    80      0.329053   6 O  s                79      0.321805   6 O  s         
    54      0.226908   5 C  s                12      0.168726   2 C  s         

 Vector   22  Occ=2.000000D+00  E=-1.401859D+00
              MO Center=  2.7D-01, -9.2D-01,  1.1D+00, r^2= 2.9D+00
   Bfn.  Coefficient  Atom+Function         Bfn.  Coefficient  Atom+Function  
  ----- ------------  ---------------      ----- ------------  ---------------
   250      0.355740  16 O  s               249      0.331016  16 O  s         
   224      0.219804  15 C  s         

 Vector   23  Occ=2.000000D+00  E=-1.375493D+00
              MO Center=  3.5D+00, -1.9D-01, -5.4D-01, r^2= 1.2D+00
   Bfn.  Coefficient  Atom+Function         Bfn.  Coefficient  Atom+Function  
  ----- ------------  ---------------      ----- ------------  ---------------
   606      0.377422  36 O  s               605      0.349949  36 O  s         
   580      0.245664  35 C  s         

 Vector   24  Occ=2.000000D+00  E=-1.270040D+00
              MO Center= -1.2D+00, -2.5D+00, -1.0D-01, r^2= 1.9D+00
   Bfn.  Coefficient  Atom+Function         Bfn.  Coefficient  Atom+Function  
  ----- ------------  ---------------      ----- ------------  ---------------
   105      0.414936   7 N  s               104      0.338505   7 N  s         
    80     -0.216829   6 O  s                79     -0.182108   6 O  s         
    59      0.171972   5 C  pz              128      0.156318   8 H  s         

 Vector   25  Occ=2.000000D+00  E=-1.245142D+00
              MO Center=  5.6D-01, -4.5D-01,  8.2D-02, r^2= 2.2D+00
   Bfn.  Coefficient  Atom+Function         Bfn.  Coefficient  Atom+Function  
  ----- ------------  ---------------      ----- ------------  ---------------
   275      0.399202  17 N  s               274      0.338350  17 N  s         
   250     -0.203106  16 O  s               229     -0.180803  15 C  pz        
   249     -0.157016  16 O  s         

 Vector   26  Occ=2.000000D+00  E=-1.204053D+00
              MO Center=  3.1D+00, -8.6D-01,  4.2D-01, r^2= 1.6D+00
   Bfn.  Coefficient  Atom+Function         Bfn.  Coefficient  Atom+Function  
  ----- ------------  ---------------      ----- ------------  ---------------
   631      0.379937  37 N  s               630      0.368441  37 N  s         
   606     -0.215728  36 O  s               309     -0.178591  19 C  s         
   605     -0.176198  36 O  s               585      0.170273  35 C  pz        
   663      0.164366  39 H  s               654      0.158025  38 H  s         

 Vector   27  Occ=2.000000D+00  E=-1.150966D+00
              MO Center= -7.3D-01,  3.0D+00, -1.2D-01, r^2= 2.7D+00
   Bfn.  Coefficient  Atom+Function         Bfn.  Coefficient  Atom+Function  
  ----- ------------  ---------------      ----- ------------  ---------------
   385      0.200539  24 C  s               546      0.174336  33 C  s         
   410      0.173390  25 C  s               444      0.159364  27 C  s         
   512      0.158720  31 C  s               478      0.155153  29 C  s         

 Vector   28  Occ=2.000000D+00  E=-1.081261D+00
              MO Center= -5.8D-01, -9.0D-01,  3.1D-01, r^2= 8.7D+00
   Bfn.  Coefficient  Atom+Function         Bfn.  Coefficient  Atom+Function  
  ----- ------------  ---------------      ----- ------------  ---------------
   138      0.203519   9 C  s               172      0.151709  11 C  s         

 Vector   29  Occ=2.000000D+00  E=-1.061728D+00
              MO Center= -3.5D-01,  4.5D-01,  1.5D-01, r^2= 1.1D+01
   Bfn.  Coefficient  Atom+Function         Bfn.  Coefficient  Atom+Function  
  ----- ------------  ---------------      ----- ------------  ---------------
   342      0.190087  21 C  s         

 Vector   30  Occ=2.000000D+00  E=-1.013180D+00
              MO Center= -9.9D-01,  3.1D+00, -1.6D-01, r^2= 3.0D+00
   Bfn.  Coefficient  Atom+Function         Bfn.  Coefficient  Atom+Function  
  ----- ------------  ---------------      ----- ------------  ---------------
   412      0.395324  25 C  s               548     -0.333023  33 C  s         
   410     -0.220541  25 C  s               512      0.219258  31 C  s         
   546      0.208166  33 C  s               444     -0.204658  27 C  s         
   435     -0.170575  26 H  s               571      0.158377  34 H  s         

 Vector   31  Occ=2.000000D+00  E=-1.009498D+00
              MO Center= -1.3D+00, -3.0D+00, -9.1D-01, r^2= 7.0D+00
   Bfn.  Coefficient  Atom+Function         Bfn.  Coefficient  Atom+Function  
  ----- ------------  ---------------      ----- ------------  ---------------
    11      0.309784   2 C  s         

 Vector   32  Occ=2.000000D+00  E=-1.001760D+00
              MO Center= -1.4D-01,  1.3D+00, -1.0D-02, r^2= 9.1D+00
   Bfn.  Coefficient  Atom+Function         Bfn.  Coefficient  Atom+Function  
  ----- ------------  ---------------      ----- ------------  ---------------
   480     -0.214444  29 C  s               308      0.201783  19 C  s         
   478      0.176327  29 C  s               385     -0.168891  24 C  s         

 Vector   33  Occ=2.000000D+00  E=-9.171408D-01
              MO Center= -3.8D-01,  5.9D-03,  7.3D-01, r^2= 9.3D+00
   Bfn.  Coefficient  Atom+Function         Bfn.  Coefficient  Atom+Function  
  ----- ------------  ---------------      ----- ------------  ---------------
   139      0.238361   9 C  s               144      0.199419   9 C  px        
   480     -0.197439  29 C  s               315      0.191866  19 C  py        
   342      0.189668  21 C  s               172     -0.188302  11 C  s         

 Vector   34  Occ=2.000000D+00  E=-8.869108D-01
              MO Center=  1.1D-01, -8.8D-02,  5.0D-01, r^2= 1.1D+01
   Bfn.  Coefficient  Atom+Function         Bfn.  Coefficient  Atom+Function  
  ----- ------------  ---------------      ----- ------------  ---------------
   315     -0.193771  19 C  py              314      0.181304  19 C  px        
   139      0.179810   9 C  s               225     -0.173756  15 C  s         
   172     -0.163857  11 C  s               480      0.161151  29 C  s         

 Vector   35  Occ=2.000000D+00  E=-8.330390D-01
              MO Center= -5.4D-01, -1.8D+00, -7.1D-02, r^2= 7.5D+00
   Bfn.  Coefficient  Atom+Function         Bfn.  Coefficient  Atom+Function  
  ----- ------------  ---------------      ----- ------------  ---------------
   109      0.290122   7 N  pz              309     -0.253450  19 C  s         
    54     -0.188406   5 C  s               128      0.183069   8 H  s         
   139     -0.174705   9 C  s         

 Vector   36  Occ=2.000000D+00  E=-8.289842D-01
              MO Center= -9.4D-01,  2.7D+00, -1.5D-01, r^2= 6.1D+00
   Bfn.  Coefficient  Atom+Function         Bfn.  Coefficient  Atom+Function  
  ----- ------------  ---------------      ----- ------------  ---------------
   548     -0.463848  33 C  s               514      0.460429  31 C  s         
   412      0.453675  25 C  s               446     -0.424751  27 C  s         
   571      0.226277  34 H  s               435     -0.221028  26 H  s         
   537     -0.191239  32 H  s               390     -0.187340  24 C  pz        
   469      0.182896  28 H  s               483      0.176752  29 C  pz        

 Vector   37  Occ=2.000000D+00  E=-8.135568D-01
              MO Center=  3.7D-01, -1.2D+00,  1.6D-01, r^2= 6.9D+00
   Bfn.  Coefficient  Atom+Function         Bfn.  Coefficient  Atom+Function  
  ----- ------------  ---------------      ----- ------------  ---------------
   309      0.262015  19 C  s               279      0.214828  17 N  pz        
   128      0.201971   8 H  s               109      0.158067   7 N  pz        
   108     -0.154457   7 N  py        

 Vector   38  Occ=2.000000D+00  E=-7.989362D-01
              MO Center= -1.9D-01,  2.4D+00, -5.6D-02, r^2= 8.2D+00
   Bfn.  Coefficient  Atom+Function         Bfn.  Coefficient  Atom+Function  
  ----- ------------  ---------------      ----- ------------  ---------------
   480      0.500455  29 C  s               387      0.338563  24 C  s         
   514     -0.310558  31 C  s               446     -0.232647  27 C  s         
   582      0.221047  35 C  s               548     -0.198867  33 C  s         
   503     -0.196799  30 H  s               412     -0.191845  25 C  s         
   385     -0.181311  24 C  s               394     -0.181023  24 C  px        

 Vector   39  Occ=2.000000D+00  E=-7.642113D-01
              MO Center=  1.5D+00, -2.7D-01,  1.7D-01, r^2= 6.4D+00
   Bfn.  Coefficient  Atom+Function         Bfn.  Coefficient  Atom+Function  
  ----- ------------  ---------------      ----- ------------  ---------------
   581      0.244938  35 C  s               635     -0.221764  37 N  pz        
   298      0.216826  18 H  s               279     -0.200499  17 N  pz        
   663     -0.185475  39 H  s               275      0.181790  17 N  s         
   634      0.159881  37 N  py              582     -0.150215  35 C  s         

 Vector   40  Occ=2.000000D+00  E=-7.481338D-01
              MO Center=  8.3D-02, -1.4D+00,  5.9D-01, r^2= 6.2D+00
   Bfn.  Coefficient  Atom+Function         Bfn.  Coefficient  Atom+Function  
  ----- ------------  ---------------      ----- ------------  ---------------
   144      0.240736   9 C  px              145      0.236050   9 C  py        
   139      0.207933   9 C  s               108     -0.203418   7 N  py        
   225     -0.199777  15 C  s               141      0.180835   9 C  px        
   252     -0.172397  16 O  px        

 Vector   41  Occ=2.000000D+00  E=-7.296996D-01
              MO Center=  1.5D+00, -8.1D-01,  2.6D-01, r^2= 5.6D+00
   Bfn.  Coefficient  Atom+Function         Bfn.  Coefficient  Atom+Function  
  ----- ------------  ---------------      ----- ------------  ---------------
   633      0.236649  37 N  px              663     -0.231927  39 H  s         
   314     -0.196664  19 C  px              298     -0.160324  18 H  s         
   311     -0.161114  19 C  px              635     -0.151603  37 N  pz        
   664     -0.151316  39 H  s         

 Vector   42  Occ=2.000000D+00  E=-7.015332D-01
              MO Center= -2.9D-01, -1.5D+00, -5.5D-01, r^2= 1.2D+01
   Bfn.  Coefficient  Atom+Function         Bfn.  Coefficient  Atom+Function  
  ----- ------------  ---------------      ----- ------------  ---------------
   225      0.222565  15 C  s                83      0.204889   6 O  py        
    18     -0.199493   2 C  py               59      0.193423   5 C  pz        
    15     -0.190890   2 C  py              633      0.177432  37 N  px        
   654      0.155631  38 H  s                55      0.153886   5 C  s         

 Vector   43  Occ=2.000000D+00  E=-6.930933D-01
              MO Center= -1.0D+00,  2.2D+00, -2.5D-01, r^2= 9.6D+00
   Bfn.  Coefficient  Atom+Function         Bfn.  Coefficient  Atom+Function  
  ----- ------------  ---------------      ----- ------------  ---------------
   502     -0.201766  30 H  s               481      0.191018  29 C  px        
   434     -0.161974  26 H  s               570     -0.158867  34 H  s         
   435     -0.151598  26 H  s         

 Vector   44  Occ=2.000000D+00  E=-6.907787D-01
              MO Center= -1.2D+00, -1.9D+00, -1.1D-02, r^2= 4.4D+00
   Bfn.  Coefficient  Atom+Function         Bfn.  Coefficient  Atom+Function  
  ----- ------------  ---------------      ----- ------------  ---------------
    83      0.217647   6 O  py              142      0.208463   9 C  py        
   108     -0.205403   7 N  py              162      0.201956  10 H  s         
    80      0.188709   6 O  s               145      0.168694   9 C  py        
   141     -0.156601   9 C  px        

 Vector   45  Occ=2.000000D+00  E=-6.770979D-01
              MO Center=  1.1D+00, -5.7D-01,  4.3D-02, r^2= 8.9D+00
   Bfn.  Coefficient  Atom+Function         Bfn.  Coefficient  Atom+Function  
  ----- ------------  ---------------      ----- ------------  ---------------
   314     -0.232389  19 C  px              139      0.218323   9 C  s         
   309     -0.185184  19 C  s               608      0.167248  36 O  px        
   250     -0.163312  16 O  s               277      0.163495  17 N  px        
   311     -0.159535  19 C  px              229      0.158363  15 C  pz        
   606      0.158914  36 O  s               633     -0.155523  37 N  px        

 Vector   46  Occ=2.000000D+00  E=-6.451001D-01
              MO Center= -1.8D-01,  1.2D+00, -2.0D-01, r^2= 1.2D+01
   Bfn.  Coefficient  Atom+Function         Bfn.  Coefficient  Atom+Function  
  ----- ------------  ---------------      ----- ------------  ---------------
   139      0.184756   9 C  s               391     -0.165028  24 C  px        
   514      0.164583  31 C  s               225     -0.155346  15 C  s         
   387     -0.153445  24 C  s         

 Vector   47  Occ=2.000000D+00  E=-6.359028D-01
              MO Center= -4.5D-01,  1.6D+00, -2.0D-01, r^2= 1.3D+01
   Bfn.  Coefficient  Atom+Function         Bfn.  Coefficient  Atom+Function  
  ----- ------------  ---------------      ----- ------------  ---------------
   479     -0.220144  29 C  s               469      0.215096  28 H  s         
   446     -0.199104  27 C  s               468      0.195337  28 H  s         
   387      0.184024  24 C  s               464      0.169678  27 C  dxz       
   536      0.166755  32 H  s               537      0.166129  32 H  s         
   447     -0.163422  27 C  px              394     -0.161797  24 C  px        

 Vector   48  Occ=2.000000D+00  E=-6.355434D-01
              MO Center= -1.3D-01, -6.1D-01, -3.9D-01, r^2= 1.3D+01
   Bfn.  Coefficient  Atom+Function         Bfn.  Coefficient  Atom+Function  
  ----- ------------  ---------------      ----- ------------  ---------------
    14      0.201637   2 C  px              139      0.171700   9 C  s         
   412     -0.155842  25 C  s         

 Vector   49  Occ=2.000000D+00  E=-6.257070D-01
              MO Center= -9.3D-02, -1.0D+00,  4.8D-01, r^2= 9.5D+00
   Bfn.  Coefficient  Atom+Function         Bfn.  Coefficient  Atom+Function  
  ----- ------------  ---------------      ----- ------------  ---------------
   309      0.267994  19 C  s               254      0.263350  16 O  pz        
   229     -0.172395  15 C  pz              227     -0.170900  15 C  px        
    14     -0.168554   2 C  px              144      0.164537   9 C  px        
   174      0.161802  11 C  s               149     -0.159502   9 C  pz        
   250      0.150260  16 O  s         

 Vector   50  Occ=2.000000D+00  E=-6.128678D-01
              MO Center= -1.2D-01, -4.2D-01, -2.7D-02, r^2= 9.7D+00
   Bfn.  Coefficient  Atom+Function         Bfn.  Coefficient  Atom+Function  
  ----- ------------  ---------------      ----- ------------  ---------------
   277      0.193693  17 N  px               58     -0.158353   5 C  py        

 Vector   51  Occ=2.000000D+00  E=-6.030477D-01
              MO Center= -4.2D-01, -8.9D-01, -6.0D-01, r^2= 1.1D+01
   Bfn.  Coefficient  Atom+Function         Bfn.  Coefficient  Atom+Function  
  ----- ------------  ---------------      ----- ------------  ---------------
    58      0.254341   5 C  py              276      0.238054  17 N  s         
    84      0.230497   6 O  pz              309     -0.180802  19 C  s         
   548      0.162501  33 C  s                15     -0.153073   2 C  py        
    83     -0.153367   6 O  py        

 Vector   52  Occ=2.000000D+00  E=-5.959754D-01
              MO Center=  1.0D+00, -3.7D-01, -1.0D-01, r^2= 1.0D+01
   Bfn.  Coefficient  Atom+Function         Bfn.  Coefficient  Atom+Function  
  ----- ------------  ---------------      ----- ------------  ---------------
   610      0.179997  36 O  pz              514     -0.157806  31 C  s         
   412     -0.154510  25 C  s               584      0.154415  35 C  py        
   233     -0.153066  15 C  px        

 Vector   53  Occ=2.000000D+00  E=-5.910393D-01
              MO Center=  1.4D+00,  6.7D-01, -3.7D-01, r^2= 1.2D+01
   Bfn.  Coefficient  Atom+Function         Bfn.  Coefficient  Atom+Function  
  ----- ------------  ---------------      ----- ------------  ---------------
   608      0.238162  36 O  px              583     -0.202216  35 C  px        
   606      0.194404  36 O  s               480     -0.178508  29 C  s         
   610     -0.168130  36 O  pz              309     -0.158838  19 C  s         

 Vector   54  Occ=2.000000D+00  E=-5.878567D-01
              MO Center= -9.2D-01, -1.7D+00, -8.4D-01, r^2= 1.4D+01
   Bfn.  Coefficient  Atom+Function         Bfn.  Coefficient  Atom+Function  
  ----- ------------  ---------------      ----- ------------  ---------------
    16      0.264478   2 C  pz               44     -0.261509   4 H  s         
    45     -0.227227   4 H  s               412      0.184495  25 C  s         
   548     -0.181347  33 C  s               214     -0.152986  14 H  s         

 Vector   55  Occ=2.000000D+00  E=-5.858964D-01
              MO Center= -9.3D-01,  1.6D+00, -3.6D-01, r^2= 1.3D+01
   Bfn.  Coefficient  Atom+Function         Bfn.  Coefficient  Atom+Function  
  ----- ------------  ---------------      ----- ------------  ---------------
   513     -0.256663  31 C  s               445      0.246065  27 C  s         
   412      0.238396  25 C  s               435     -0.223033  26 H  s         
   517     -0.194691  31 C  pz              415     -0.191811  25 C  pz        
   434     -0.184698  26 H  s               536      0.185096  32 H  s         
   537      0.175256  32 H  s               548     -0.175261  33 C  s         

 Vector   56  Occ=2.000000D+00  E=-5.663940D-01
              MO Center=  1.2D-01, -9.7D-01,  8.4D-01, r^2= 1.1D+01
   Bfn.  Coefficient  Atom+Function         Bfn.  Coefficient  Atom+Function  
  ----- ------------  ---------------      ----- ------------  ---------------
   174      0.236078  11 C  s               215     -0.220034  14 H  s         
   205      0.198093  13 H  s               610     -0.185898  36 O  pz        
   176     -0.184926  11 C  py              276     -0.183603  17 N  s         
   253      0.165497  16 O  py              583     -0.162796  35 C  px        
   175      0.158379  11 C  px              214     -0.156862  14 H  s         

 Vector   57  Occ=2.000000D+00  E=-5.614331D-01
              MO Center= -7.2D-01, -6.7D-01,  5.9D-01, r^2= 1.3D+01
   Bfn.  Coefficient  Atom+Function         Bfn.  Coefficient  Atom+Function  
  ----- ------------  ---------------      ----- ------------  ---------------
   175      0.256250  11 C  px              196     -0.246146  12 H  s         
   197     -0.201468  12 H  s               367     -0.177963  22 H  s         
   375      0.154664  23 H  s               225      0.151394  15 C  s         

 Vector   58  Occ=2.000000D+00  E=-5.514525D-01
              MO Center= -1.0D+00, -1.9D+00,  7.7D-01, r^2= 8.4D+00
   Bfn.  Coefficient  Atom+Function         Bfn.  Coefficient  Atom+Function  
  ----- ------------  ---------------      ----- ------------  ---------------
   215      0.293067  14 H  s               176      0.221034  11 C  py        
   214      0.222082  14 H  s                12      0.184539   2 C  s         
   196     -0.175676  12 H  s               253      0.176269  16 O  py        
    55     -0.171699   5 C  s                16      0.168436   2 C  pz        
    44     -0.150514   4 H  s         

 Vector   59  Occ=2.000000D+00  E=-5.480860D-01
              MO Center=  6.2D-01,  1.1D+00,  3.2D-02, r^2= 1.2D+01
   Bfn.  Coefficient  Atom+Function         Bfn.  Coefficient  Atom+Function  
  ----- ------------  ---------------      ----- ------------  ---------------
   480      0.246092  29 C  s               503     -0.245561  30 H  s         
   502     -0.193342  30 H  s               609      0.192657  36 O  py        
   479      0.189082  29 C  s               481      0.189880  29 C  px        
   435      0.174451  26 H  s         

 Vector   60  Occ=2.000000D+00  E=-5.433814D-01
              MO Center= -1.1D+00, -2.5D+00, -1.9D-01, r^2= 6.7D+00
   Bfn.  Coefficient  Atom+Function         Bfn.  Coefficient  Atom+Function  
  ----- ------------  ---------------      ----- ------------  ---------------
    82      0.237255   6 O  px              177     -0.221321  11 C  pz        
   143      0.211689   9 C  pz               14     -0.197621   2 C  px        
     1     -0.191367   1 H  s                85      0.177564   6 O  px        
    57      0.157934   5 C  px               36      0.155580   3 H  s         

 Vector   61  Occ=2.000000D+00  E=-5.336955D-01
              MO Center=  6.2D-01,  1.8D-01,  3.0D-01, r^2= 9.4D+00
   Bfn.  Coefficient  Atom+Function         Bfn.  Coefficient  Atom+Function  
  ----- ------------  ---------------      ----- ------------  ---------------
   276      0.246649  17 N  s               376      0.222997  23 H  s         
   367     -0.209705  22 H  s               346      0.195454  21 C  py        
   375      0.192643  23 H  s         

 Vector   62  Occ=2.000000D+00  E=-5.271838D-01
              MO Center= -9.4D-01, -1.5D+00,  1.3D+00, r^2= 5.7D+00
   Bfn.  Coefficient  Atom+Function         Bfn.  Coefficient  Atom+Function  
  ----- ------------  ---------------      ----- ------------  ---------------
   180      0.284593  11 C  pz              173     -0.258714  11 C  s         
   162      0.249302  10 H  s               205      0.244868  13 H  s         
   177      0.214888  11 C  pz              206      0.210858  13 H  s         
   197     -0.206218  12 H  s               143     -0.202539   9 C  pz        
   174      0.202740  11 C  s                56     -0.187134   5 C  s         

 Vector   63  Occ=2.000000D+00  E=-5.134247D-01
              MO Center=  7.6D-01,  1.2D+00,  8.6D-02, r^2= 7.6D+00
   Bfn.  Coefficient  Atom+Function         Bfn.  Coefficient  Atom+Function  
  ----- ------------  ---------------      ----- ------------  ---------------
   347     -0.239864  21 C  pz              313      0.231886  19 C  pz        
   367     -0.232747  22 H  s               332     -0.222712  20 H  s         
   366     -0.211501  22 H  s               333     -0.200213  20 H  s         
   435      0.187362  26 H  s               349     -0.185397  21 C  py        
    56     -0.174573   5 C  s         

 Vector   64  Occ=2.000000D+00  E=-4.891439D-01
              MO Center= -4.9D-01,  2.7D+00, -1.0D-01, r^2= 6.0D+00
   Bfn.  Coefficient  Atom+Function         Bfn.  Coefficient  Atom+Function  
  ----- ------------  ---------------      ----- ------------  ---------------
   514      0.288078  31 C  s               435     -0.271899  26 H  s         
   537     -0.268737  32 H  s               412      0.252198  25 C  s         
   548     -0.247320  33 C  s               551     -0.224461  33 C  pz        
   390      0.210179  24 C  pz              483     -0.210213  29 C  pz        
   469      0.205510  28 H  s               571      0.206491  34 H  s         

 Vector   65  Occ=2.000000D+00  E=-4.865982D-01
              MO Center= -4.5D-01,  2.5D+00, -1.2D-01, r^2= 6.3D+00
   Bfn.  Coefficient  Atom+Function         Bfn.  Coefficient  Atom+Function  
  ----- ------------  ---------------      ----- ------------  ---------------
   582      0.282462  35 C  s               446     -0.249219  27 C  s         
   367     -0.211513  22 H  s               333     -0.193334  20 H  s         
   310      0.184143  19 C  s               632     -0.182449  37 N  s         
   283      0.176450  17 N  px              394     -0.171483  24 C  px        
   448      0.169420  27 C  py              516      0.160705  31 C  py        

 Vector   66  Occ=2.000000D+00  E=-4.837042D-01
              MO Center= -3.0D-01,  2.7D+00, -8.4D-02, r^2= 5.9D+00
   Bfn.  Coefficient  Atom+Function         Bfn.  Coefficient  Atom+Function  
  ----- ------------  ---------------      ----- ------------  ---------------
   480      0.299424  29 C  s               503     -0.256068  30 H  s         
   388     -0.249997  24 C  px              345      0.248406  21 C  px        
   447     -0.218820  27 C  px              515     -0.213513  31 C  px        
   571      0.179212  34 H  s               413      0.175089  25 C  px        
   518     -0.175609  31 C  px              502     -0.160215  30 H  s         

 Vector   67  Occ=2.000000D+00  E=-4.585726D-01
              MO Center= -3.9D-01, -1.3D+00,  8.9D-02, r^2= 6.3D+00
   Bfn.  Coefficient  Atom+Function         Bfn.  Coefficient  Atom+Function  
  ----- ------------  ---------------      ----- ------------  ---------------
    82      0.266386   6 O  px              252     -0.236909  16 O  px        
   107     -0.228748   7 N  px              110     -0.207635   7 N  px        
   253     -0.206911  16 O  py               85      0.203360   6 O  px        
   255     -0.200887  16 O  px              254      0.189080  16 O  pz        
    84     -0.186447   6 O  pz              139     -0.182912   9 C  s         

 Vector   68  Occ=2.000000D+00  E=-4.431184D-01
              MO Center= -9.4D-01, -2.0D+00, -1.2D+00, r^2= 4.8D+00
   Bfn.  Coefficient  Atom+Function         Bfn.  Coefficient  Atom+Function  
  ----- ------------  ---------------      ----- ------------  ---------------
    84      0.384586   6 O  pz               87      0.317160   6 O  pz        
    83      0.288434   6 O  py               86      0.226956   6 O  py        
    13     -0.211587   2 C  s                15      0.202098   2 C  py        
   105     -0.202500   7 N  s                18      0.191221   2 C  py        
   276     -0.185525  17 N  s               225      0.184556  15 C  s         

 Vector   69  Occ=2.000000D+00  E=-4.295067D-01
              MO Center=  2.0D+00, -2.8D-01, -1.6D-01, r^2= 6.2D+00
   Bfn.  Coefficient  Atom+Function         Bfn.  Coefficient  Atom+Function  
  ----- ------------  ---------------      ----- ------------  ---------------
   333      0.289758  20 H  s               253     -0.246436  16 O  py        
   609      0.247398  36 O  py              610     -0.236275  36 O  pz        
   278      0.233281  17 N  py              608     -0.226793  36 O  px        
   281      0.210372  17 N  py              256     -0.200796  16 O  py        
   612      0.195746  36 O  py              611     -0.184375  36 O  px        

 Vector   70  Occ=2.000000D+00  E=-4.099268D-01
              MO Center= -3.3D-01, -1.6D+00,  3.2D-01, r^2= 5.6D+00
   Bfn.  Coefficient  Atom+Function         Bfn.  Coefficient  Atom+Function  
  ----- ------------  ---------------      ----- ------------  ---------------
   107      0.341334   7 N  px              110      0.309704   7 N  px        
   252     -0.268681  16 O  px               82     -0.243319   6 O  px        
   255     -0.213412  16 O  px               85     -0.193521   6 O  px        
   141     -0.185790   9 C  px              144     -0.173822   9 C  px        

 Vector   71  Occ=2.000000D+00  E=-3.973081D-01
              MO Center=  2.8D+00, -6.1D-01,  6.4D-03, r^2= 4.4D+00
   Bfn.  Coefficient  Atom+Function         Bfn.  Coefficient  Atom+Function  
  ----- ------------  ---------------      ----- ------------  ---------------
   609      0.369556  36 O  py              612      0.294264  36 O  py        
   635     -0.263893  37 N  pz              634     -0.237590  37 N  py        
   637     -0.237046  37 N  py              638     -0.195768  37 N  pz        

 Vector   72  Occ=2.000000D+00  E=-3.894365D-01
              MO Center=  2.1D+00, -2.7D-01,  2.6D-05, r^2= 4.7D+00
   Bfn.  Coefficient  Atom+Function         Bfn.  Coefficient  Atom+Function  
  ----- ------------  ---------------      ----- ------------  ---------------
   278      0.267159  17 N  py              281      0.252834  17 N  py        
   608      0.246789  36 O  px              610      0.247782  36 O  pz        
   634     -0.218764  37 N  py              613      0.199187  36 O  pz        
   277     -0.184032  17 N  px              611      0.184737  36 O  px        
   253     -0.179822  16 O  py              637     -0.177961  37 N  py        

 Vector   73  Occ=2.000000D+00  E=-3.341660D-01
              MO Center= -9.9D-01,  3.1D+00, -1.7D-01, r^2= 3.3D+00
   Bfn.  Coefficient  Atom+Function         Bfn.  Coefficient  Atom+Function  
  ----- ------------  ---------------      ----- ------------  ---------------
   550     -0.240477  33 C  py              448      0.237177  27 C  py        
   414      0.232187  25 C  py              516     -0.232797  31 C  py        
   417      0.179609  25 C  py              553     -0.173431  33 C  py        
   451      0.169154  27 C  py              519     -0.167067  31 C  py        

 Vector   74  Occ=2.000000D+00  E=-3.259545D-01
              MO Center= -8.8D-01,  3.1D+00, -1.5D-01, r^2= 3.8D+00
   Bfn.  Coefficient  Atom+Function         Bfn.  Coefficient  Atom+Function  
  ----- ------------  ---------------      ----- ------------  ---------------
   482     -0.269376  29 C  py              389      0.261787  24 C  py        
   276      0.226564  17 N  s               392      0.221909  24 C  py        
   485     -0.205573  29 C  py              309      0.163723  19 C  s         
   139      0.162897   9 C  s               394      0.162157  24 C  px        
   315      0.150393  19 C  py              414      0.150826  25 C  py        

 Vector   75  Occ=0.000000D+00  E= 2.100402D-02
              MO Center= -2.0D+00, -4.9D+00,  7.5D-01, r^2= 2.0D+01
   Bfn.  Coefficient  Atom+Function         Bfn.  Coefficient  Atom+Function  
  ----- ------------  ---------------      ----- ------------  ---------------
   233      2.578070  15 C  px              106      2.362944   7 N  s         
   148      2.165471   9 C  py              235     -2.137515  15 C  pz        
   198      1.973625  12 H  s                64      1.933570   5 C  py        
    12     -1.918710   2 C  s               548     -1.755618  33 C  s         
   226     -1.649549  15 C  s               582     -1.647042  35 C  s         

 Vector   76  Occ=0.000000D+00  E= 3.350153D-02
              MO Center= -2.9D+00,  3.5D-02,  1.5D+00, r^2= 3.7D+01
   Bfn.  Coefficient  Atom+Function         Bfn.  Coefficient  Atom+Function  
  ----- ------------  ---------------      ----- ------------  ---------------
   446      4.381748  27 C  s               582     -3.499802  35 C  s         
   394      2.985105  24 C  px              387     -2.907028  24 C  s         
   470      2.862645  28 H  s               419      2.033882  25 C  px        
   453      2.008294  27 C  px              318     -1.974558  19 C  py        
   198      1.932540  12 H  s                65     -1.889755   5 C  pz        

 Vector   77  Occ=0.000000D+00  E= 3.824644D-02
              MO Center= -1.9D+00, -1.0D+00, -1.2D+00, r^2= 4.7D+01
   Bfn.  Coefficient  Atom+Function         Bfn.  Coefficient  Atom+Function  
  ----- ------------  ---------------      ----- ------------  ---------------
   149      3.512172   9 C  pz              174     -2.538297  11 C  s         
   233     -2.531314  15 C  px              276      2.488960  17 N  s         
   538      2.098049  32 H  s                64      1.968216   5 C  py        
    46      1.917105   4 H  s               514      1.890012  31 C  s         
   394      1.825306  24 C  px               12     -1.752513   2 C  s         

 Vector   78  Occ=0.000000D+00  E= 3.889231D-02
              MO Center= -1.2D-01, -1.9D+00,  7.2D-01, r^2= 4.4D+01
   Bfn.  Coefficient  Atom+Function         Bfn.  Coefficient  Atom+Function  
  ----- ------------  ---------------      ----- ------------  ---------------
   233      4.853077  15 C  px              174      3.392598  11 C  s         
   394     -2.742820  24 C  px              148      2.725272   9 C  py        
   632     -2.678780  37 N  s               198      2.466726  12 H  s         
   317      2.335219  19 C  px              235     -2.306673  15 C  pz        
    37      2.279912   3 H  s               106      2.234818   7 N  s         

 Vector   79  Occ=0.000000D+00  E= 4.636303D-02
              MO Center= -1.8D+00,  9.0D-01, -1.1D+00, r^2= 4.8D+01
   Bfn.  Coefficient  Atom+Function         Bfn.  Coefficient  Atom+Function  
  ----- ------------  ---------------      ----- ------------  ---------------
   538     -3.613126  32 H  s               470      3.534300  28 H  s         
   446      3.450237  27 C  s               455     -3.323254  27 C  pz        
   514     -3.269511  31 C  s               523     -2.658658  31 C  pz        
   106     -2.565878   7 N  s               412      2.218730  25 C  s         
   130     -2.112634   8 H  s               396     -2.088829  24 C  pz        

 Vector   80  Occ=0.000000D+00  E= 4.966064D-02
              MO Center= -1.5D+00,  1.6D+00, -6.6D-01, r^2= 4.6D+01
   Bfn.  Coefficient  Atom+Function         Bfn.  Coefficient  Atom+Function  
  ----- ------------  ---------------      ----- ------------  ---------------
   480      6.330416  29 C  s               504      4.750209  30 H  s         
   487      3.666075  29 C  px              523     -2.813320  31 C  pz        
   582      2.691301  35 C  s               555      2.630967  33 C  px        
   276      2.376748  17 N  s               538     -2.342860  32 H  s         
   130      2.280931   8 H  s               548     -2.176637  33 C  s         

 Vector   81  Occ=0.000000D+00  E= 5.474524D-02
              MO Center=  1.5D+00, -2.2D+00,  1.3D+00, r^2= 3.9D+01
   Bfn.  Coefficient  Atom+Function         Bfn.  Coefficient  Atom+Function  
  ----- ------------  ---------------      ----- ------------  ---------------
   632      3.126005  37 N  s               164      2.924948  10 H  s         
   656      2.696708  38 H  s               387      2.520142  24 C  s         
   480      2.463093  29 C  s                56     -2.428313   5 C  s         
   446     -2.412298  27 C  s               226     -2.084433  15 C  s         
    37      2.039817   3 H  s               548     -1.988043  33 C  s         

 Vector   82  Occ=0.000000D+00  E= 5.535680D-02
              MO Center= -2.8D-01,  2.3D-01,  7.1D-01, r^2= 4.6D+01
   Bfn.  Coefficient  Atom+Function         Bfn.  Coefficient  Atom+Function  
  ----- ------------  ---------------      ----- ------------  ---------------
   480      5.456191  29 C  s               234      3.870556  15 C  py        
   233      3.557308  15 C  px              436     -3.227423  26 H  s         
   377     -3.069211  23 H  s               419      3.048613  25 C  px        
   147      2.984963   9 C  px              394     -2.994726  24 C  px        
    13      2.763996   2 C  s               174      2.747118  11 C  s         

 Vector   83  Occ=0.000000D+00  E= 6.009236D-02
              MO Center= -8.8D-01, -1.6D+00,  4.5D-02, r^2= 4.5D+01
   Bfn.  Coefficient  Atom+Function         Bfn.  Coefficient  Atom+Function  
  ----- ------------  ---------------      ----- ------------  ---------------
   446      3.919440  27 C  s               207     -3.529441  13 H  s         
   548      3.525987  33 C  s               572      3.049812  34 H  s         
   470      2.904590  28 H  s                65     -2.762133   5 C  pz        
   504     -2.686782  30 H  s                 3      2.621515   1 H  s         
    46     -2.613847   4 H  s                56     -2.559382   5 C  s         

 Vector   84  Occ=0.000000D+00  E= 6.706812D-02
              MO Center= -2.7D-01,  1.4D+00, -8.8D-01, r^2= 4.9D+01
   Bfn.  Coefficient  Atom+Function         Bfn.  Coefficient  Atom+Function  
  ----- ------------  ---------------      ----- ------------  ---------------
   514      8.091106  31 C  s               387     -6.839728  24 C  s         
   538      5.647062  32 H  s               480     -4.404707  29 C  s         
    56     -4.333982   5 C  s               412      4.303310  25 C  s         
   582     -4.086971  35 C  s               523      4.034361  31 C  pz        
   504     -3.866061  30 H  s               487     -3.244411  29 C  px        

 Vector   85  Occ=0.000000D+00  E= 6.822511D-02
              MO Center= -6.9D-01, -7.5D-01,  4.2D-01, r^2= 4.8D+01
   Bfn.  Coefficient  Atom+Function         Bfn.  Coefficient  Atom+Function  
  ----- ------------  ---------------      ----- ------------  ---------------
   446      6.868525  27 C  s               582     -4.709231  35 C  s         
   548      4.650923  33 C  s               470      4.435877  28 H  s         
   387     -4.173622  24 C  s               572      3.848751  34 H  s         
    56     -3.796106   5 C  s                 3     -3.664445   1 H  s         
   198     -3.497957  12 H  s               377     -3.038089  23 H  s         

 Vector   86  Occ=0.000000D+00  E= 7.128042D-02
              MO Center= -1.1D+00, -5.9D-01,  7.6D-01, r^2= 4.0D+01
   Bfn.  Coefficient  Atom+Function         Bfn.  Coefficient  Atom+Function  
  ----- ------------  ---------------      ----- ------------  ---------------
   164      7.757456  10 H  s               148     -5.765449   9 C  py        
   412      5.200992  25 C  s               514      5.209224  31 C  s         
   436      4.954897  26 H  s                56     -3.893374   5 C  s         
   548     -3.909400  33 C  s               446     -3.721709  27 C  s         
   421     -3.700637  25 C  pz              572     -3.340454  34 H  s         

 Vector   87  Occ=0.000000D+00  E= 7.644513D-02
              MO Center= -7.3D-01, -6.2D-01,  5.0D-01, r^2= 4.5D+01
   Bfn.  Coefficient  Atom+Function         Bfn.  Coefficient  Atom+Function  
  ----- ------------  ---------------      ----- ------------  ---------------
   164      6.032221  10 H  s               436     -4.820684  26 H  s         
    13     -4.370619   2 C  s               572      4.301531  34 H  s         
   148     -4.238488   9 C  py              233     -4.200914  15 C  px        
   446      3.999194  27 C  s               198     -3.770743  12 H  s         
[...]
   557     -7.795984  33 C  pz              523      7.470964  31 C  pz        

 Vector  191  Occ=0.000000D+00  E= 4.460997D-01
              MO Center= -5.8D-01,  1.5D-01,  1.1D-01, r^2= 2.2D+01
   Bfn.  Coefficient  Atom+Function         Bfn.  Coefficient  Atom+Function  
  ----- ------------  ---------------      ----- ------------  ---------------
   412     16.299186  25 C  s               480    -12.941275  29 C  s         
   514     11.083764  31 C  s               387     -8.408980  24 C  s         
   174     -7.934484  11 C  s               421     -6.860664  25 C  pz        
   523      5.594634  31 C  pz               65     -5.478492   5 C  pz        
   548     -5.316413  33 C  s               148     -5.182360   9 C  py        

 Vector  192  Occ=0.000000D+00  E= 4.476343D-01
              MO Center= -7.1D-01,  1.9D+00, -5.0D-01, r^2= 2.2D+01
   Bfn.  Coefficient  Atom+Function         Bfn.  Coefficient  Atom+Function  
  ----- ------------  ---------------      ----- ------------  ---------------
   548     20.402072  33 C  s               446     18.811833  27 C  s         
   412    -13.746739  25 C  s               394     12.745841  24 C  px        
   582    -11.126107  35 C  s               352    -10.058544  21 C  py        
   555     -8.643713  33 C  px              276      8.044077  17 N  s         
   421      7.517235  25 C  pz              514     -7.244512  31 C  s         

 Vector  193  Occ=0.000000D+00  E= 4.489937D-01
              MO Center= -4.2D-01, -5.0D-01,  1.3D-01, r^2= 2.2D+01
   Bfn.  Coefficient  Atom+Function         Bfn.  Coefficient  Atom+Function  
  ----- ------------  ---------------      ----- ------------  ---------------
   300     11.345455  18 H  s               412     -9.774548  25 C  s         
   387      8.530788  24 C  s               147     -8.376622   9 C  px        
   174     -8.020806  11 C  s               548      7.520649  33 C  s         
   276      7.114875  17 N  s               514     -7.074908  31 C  s         
   173     -6.528088  11 C  s               206      6.199397  13 H  s         

 Vector  194  Occ=0.000000D+00  E= 4.504953D-01
              MO Center=  3.9D-01,  7.3D-01, -2.0D-01, r^2= 2.2D+01
   Bfn.  Coefficient  Atom+Function         Bfn.  Coefficient  Atom+Function  
  ----- ------------  ---------------      ----- ------------  ---------------
   276     11.872110  17 N  s               446     10.021125  27 C  s         
   387     -8.973653  24 C  s               317      8.556599  19 C  px        
   319     -8.396633  19 C  pz               56     -8.052951   5 C  s         
   344     -7.636662  21 C  s               174     -7.450052  11 C  s         
   632      6.535405  37 N  s               334     -6.412344  20 H  s         

 Vector  195  Occ=0.000000D+00  E= 4.578170D-01
              MO Center= -2.6D-02, -2.4D-01, -4.8D-01, r^2= 2.4D+01
   Bfn.  Coefficient  Atom+Function         Bfn.  Coefficient  Atom+Function  
  ----- ------------  ---------------      ----- ------------  ---------------
   514     16.189936  31 C  s               582    -15.465592  35 C  s         
   632     13.424707  37 N  s               300     10.812874  18 H  s         
   310     -9.909477  19 C  s               446     -9.646229  27 C  s         
   412      7.548509  25 C  s               106      6.852531   7 N  s         
    12      6.763826   2 C  s                13      6.338120   2 C  s         

 Vector  196  Occ=0.000000D+00  E= 4.638083D-01
              MO Center= -6.5D-01, -3.9D-01,  2.8D-01, r^2= 2.4D+01
   Bfn.  Coefficient  Atom+Function         Bfn.  Coefficient  Atom+Function  
  ----- ------------  ---------------      ----- ------------  ---------------
   412     13.882087  25 C  s               174     12.381436  11 C  s         
   173      9.501252  11 C  s               548     -9.356854  33 C  s         
   396     -8.413943  24 C  pz              106      7.751934   7 N  s         
   446     -7.372236  27 C  s               514      7.355620  31 C  s         
   300     -7.221556  18 H  s               632     -7.121212  37 N  s         

 Vector  197  Occ=0.000000D+00  E= 4.681572D-01
              MO Center= -3.7D-01, -5.7D-02, -2.1D-02, r^2= 2.3D+01
   Bfn.  Coefficient  Atom+Function         Bfn.  Coefficient  Atom+Function  
  ----- ------------  ---------------      ----- ------------  ---------------
   582     33.523074  35 C  s               174    -23.586412  11 C  s         
   317    -19.727849  19 C  px               13    -17.741595   2 C  s         
    56     17.750893   5 C  s               446    -13.081561  27 C  s         
   318     12.263373  19 C  py              276    -10.546077  17 N  s         
   284     -9.021795  17 N  py              394     -9.014405  24 C  px        

 Vector  198  Occ=0.000000D+00  E= 4.716181D-01
              MO Center=  8.0D-01,  1.3D-01,  4.0D-01, r^2= 2.3D+01
   Bfn.  Coefficient  Atom+Function         Bfn.  Coefficient  Atom+Function  
  ----- ------------  ---------------      ----- ------------  ---------------
   317     12.736001  19 C  px              234      9.550333  15 C  py        
   285     -7.972582  17 N  pz              632     -8.004775  37 N  s         
   174      7.860756  11 C  s               233      7.804817  15 C  px        
   591      7.124129  35 C  pz              106      6.704330   7 N  s         
   368     -6.266331  22 H  s                12      5.527889   2 C  s         

 Vector  199  Occ=0.000000D+00  E= 4.739945D-01
              MO Center= -1.9D-01, -7.7D-01,  4.1D-01, r^2= 1.9D+01
   Bfn.  Coefficient  Atom+Function         Bfn.  Coefficient  Atom+Function  
  ----- ------------  ---------------      ----- ------------  ---------------
   514     10.684572  31 C  s                56     -9.461537   5 C  s         
   387     -8.686631  24 C  s               174      8.525523  11 C  s         
   582     -7.578542  35 C  s               233      6.901300  15 C  px        
    13      6.562583   2 C  s               318     -6.396037  19 C  py        
   235      6.273291  15 C  pz              317      5.465782  19 C  px        

 Vector  200  Occ=0.000000D+00  E= 4.772819D-01
              MO Center= -1.1D-01, -2.1D-01,  4.5D-01, r^2= 2.1D+01
   Bfn.  Coefficient  Atom+Function         Bfn.  Coefficient  Atom+Function  
  ----- ------------  ---------------      ----- ------------  ---------------
   233     13.761776  15 C  px              276     -9.535098  17 N  s         
   548      8.694049  33 C  s               174      8.633647  11 C  s         
   283     -8.464623  17 N  px              480     -8.050951  29 C  s         
   173      8.007103  11 C  s               197     -7.092997  12 H  s         
   226      5.580407  15 C  s               285     -5.527456  17 N  pz        

 Vector  201  Occ=0.000000D+00  E= 4.801564D-01
              MO Center= -4.6D-01,  6.9D-01, -1.4D-01, r^2= 2.1D+01
   Bfn.  Coefficient  Atom+Function         Bfn.  Coefficient  Atom+Function  
  ----- ------------  ---------------      ----- ------------  ---------------
   276     12.906555  17 N  s               412    -11.186891  25 C  s         
   174    -10.840115  11 C  s               480     10.111482  29 C  s         
   344     -9.369192  21 C  s               582      8.503264  35 C  s         
    56      7.585405   5 C  s               309     -6.975043  19 C  s         
   284      6.031260  17 N  py              149      5.815642   9 C  pz        

 Vector  202  Occ=0.000000D+00  E= 4.878361D-01
              MO Center= -4.8D-01,  6.0D-01,  4.9D-01, r^2= 2.2D+01
   Bfn.  Coefficient  Atom+Function         Bfn.  Coefficient  Atom+Function  
  ----- ------------  ---------------      ----- ------------  ---------------
   582     13.899143  35 C  s               234    -13.602116  15 C  py        
   233    -12.369176  15 C  px              548    -12.073748  33 C  s         
   412     10.595504  25 C  s               394     10.124778  24 C  px        
   174     -9.735250  11 C  s               480      8.081529  29 C  s         
   106     -7.105847   7 N  s               317     -6.595192  19 C  px        

 Vector  203  Occ=0.000000D+00  E= 4.894629D-01
              MO Center= -6.2D-01, -8.0D-01,  5.0D-01, r^2= 2.0D+01
   Bfn.  Coefficient  Atom+Function         Bfn.  Coefficient  Atom+Function  
  ----- ------------  ---------------      ----- ------------  ---------------
   548     12.085067  33 C  s               446     10.790040  27 C  s         
   480     -9.022025  29 C  s               394      8.013960  24 C  px        
   387     -7.373873  24 C  s                13     -6.490658   2 C  s         
   115     -6.374970   7 N  pz              396      6.224698  24 C  pz        
   235     -6.074117  15 C  pz              582     -6.017193  35 C  s         

 Vector  204  Occ=0.000000D+00  E= 4.942122D-01
              MO Center=  1.2D-01, -5.7D-01,  3.8D-01, r^2= 2.1D+01
   Bfn.  Coefficient  Atom+Function         Bfn.  Coefficient  Atom+Function  
  ----- ------------  ---------------      ----- ------------  ---------------
   276      9.919441  17 N  s               317      9.950708  19 C  px        
    13      8.795415   2 C  s               234      8.792333  15 C  py        
   548     -8.155046  33 C  s                12      7.836876   2 C  s         
   387     -7.705460  24 C  s               284      7.477632  17 N  py        
   300      7.103060  18 H  s               632      7.127150  37 N  s         

 Vector  205  Occ=0.000000D+00  E= 4.967525D-01
              MO Center=  8.9D-03, -5.7D-01,  2.2D-01, r^2= 2.1D+01
   Bfn.  Coefficient  Atom+Function         Bfn.  Coefficient  Atom+Function  
  ----- ------------  ---------------      ----- ------------  ---------------
   276     14.835347  17 N  s               233     12.407959  15 C  px        
   387    -10.703442  24 C  s               174     -9.690301  11 C  s         
   344     -8.782177  21 C  s               163      7.618251  10 H  s         
   147     -7.257294   9 C  px              114     -7.086051   7 N  py        
   317      6.983319  19 C  px              376      6.379090  23 H  s         

 Vector  206  Occ=0.000000D+00  E= 4.984112D-01
              MO Center= -7.9D-01, -4.4D-02, -1.6D-01, r^2= 2.2D+01
   Bfn.  Coefficient  Atom+Function         Bfn.  Coefficient  Atom+Function  
  ----- ------------  ---------------      ----- ------------  ---------------
   174     21.041550  11 C  s                56    -16.898052   5 C  s         
   548    -14.449817  33 C  s               387    -11.554488  24 C  s         
    13     10.584882   2 C  s               412      9.050353  25 C  s         
   149     -8.338553   9 C  pz              233      8.238810  15 C  px        
   148      7.900083   9 C  py              395      7.496700  24 C  py        

 Vector  207  Occ=0.000000D+00  E= 5.043121D-01
              MO Center= -1.5D-01,  1.2D-01,  1.3D-01, r^2= 2.3D+01
   Bfn.  Coefficient  Atom+Function         Bfn.  Coefficient  Atom+Function  
  ----- ------------  ---------------      ----- ------------  ---------------
   174     24.995693  11 C  s               548    -13.917060  33 C  s         
   149    -13.702188   9 C  pz              582     13.299516  35 C  s         
   276    -12.969444  17 N  s               446    -12.466109  27 C  s         
   394    -11.516760  24 C  px               56    -10.836944   5 C  s         
   480     10.673501  29 C  s                12     10.018648   2 C  s         


 center of mass
 --------------
 x =   0.05505435 y =   0.04289638 z =  -0.01911120

 moments of inertia (a.u.)
 ------------------
        6994.817487154543          -0.000000000001           0.000000000001
          -0.000000000001        4879.935900850647          -0.000000000001
           0.000000000001          -0.000000000001        8803.698107441822

  Mulliken analysis of the total density
  --------------------------------------

    Atom       Charge   Shell Charges
 -----------   ------   -------------------------------------------------------
    1 H    1     0.85   0.76  0.11 -0.00  0.03 -0.06
    2 C    6     6.27   2.01  0.66  0.24  0.10  2.07  1.03  0.00  0.06  0.10
    3 H    1     0.85   0.76  0.12 -0.00  0.03 -0.06
    4 H    1     0.97   0.76  0.22  0.01  0.03 -0.05
    5 C    6     5.00   2.01  0.68  0.06 -0.16  1.89  0.34 -0.07  0.24  0.01
    6 O    8     8.78   2.01  0.82  1.00  0.16  2.80  1.86  0.13  0.02 -0.01
    7 N    7     7.52   2.01  0.72  0.83 -0.13  2.45  1.44  0.10  0.05  0.04
    8 H    1     0.98   0.77  0.22 -0.03  0.05 -0.03
    9 C    6     6.80   2.01  0.66  0.11  0.02  1.99  1.57  0.03  0.14  0.27
   10 H    1     1.04   0.78  0.19  0.02  0.03  0.02
   11 C    6     5.71   2.01  0.66  0.22  0.27  2.04  0.47 -0.05  0.07  0.02
   12 H    1     0.93   0.77  0.21  0.00  0.03 -0.09
   13 H    1     0.88   0.77  0.13  0.03  0.03 -0.08
   14 H    1     0.97   0.77  0.24  0.01  0.03 -0.08
   15 C    6     4.38   2.01  0.68 -0.05 -0.03  1.88  0.11  0.06  0.23 -0.51
   16 O    8     8.96   2.01  0.82  1.05  0.21  2.80  1.90  0.17  0.01  0.00
   17 N    7     7.23   2.01  0.72  0.89 -0.33  2.45  1.45 -0.06  0.05  0.06
   18 H    1     1.02   0.73  0.35 -0.04  0.06 -0.07
   19 C    6     6.20   2.01  0.66  0.15  0.01  1.99  1.16  0.06  0.14  0.02
   20 H    1     1.26   0.78  0.46 -0.00  0.03 -0.01
   21 C    6     5.64   2.01  0.66  0.12 -0.05  2.04  0.78  0.03  0.09 -0.04
   22 H    1     1.20   0.78  0.45 -0.01  0.03 -0.04
   23 H    1     1.10   0.78  0.37 -0.02  0.03 -0.06
   24 C    6     6.26   2.01  0.66  0.22 -0.10  1.99  0.88  0.22  0.12  0.28
   25 C    6     5.13   2.01  0.66  0.19 -0.52  2.00  0.78  0.11  0.09 -0.20
   26 H    1     1.71   0.78  0.90 -0.01  0.03  0.01
   27 C    6     5.35   2.01  0.66  0.16 -0.36  2.00  0.74  0.30  0.09 -0.25
   28 H    1     1.57   0.78  0.74 -0.00  0.03  0.02
   29 C    6     5.42   2.01  0.66  0.12 -0.34  2.00  0.77  0.32  0.09 -0.22
   30 H    1     1.56   0.78  0.74  0.00  0.03  0.01
   31 C    6     5.44   2.01  0.66  0.20 -0.39  1.99  0.82  0.29  0.09 -0.23
   32 H    1     1.54   0.78  0.73 -0.01  0.03  0.01
   33 C    6     5.22   2.01  0.66  0.12 -0.46  2.00  0.76  0.25  0.09 -0.22
   34 H    1     1.67   0.78  0.84  0.01  0.03  0.02
   35 C    6     4.64   2.01  0.68  0.07  0.08  1.89 -0.18  0.01  0.24 -0.15
   36 O    8     8.82   2.01  0.82  1.04  0.19  2.79  1.83  0.14  0.01 -0.00
   37 N    7     7.20   2.01  0.72  0.80 -0.17  2.47  1.25  0.11  0.04 -0.02
   38 H    1     1.02   0.76  0.24 -0.00  0.05 -0.03
   39 H    1     0.91   0.73  0.20 -0.02  0.06 -0.05

       Multipole analysis of the density wrt the origin
       ------------------------------------------------

     L   x y z        total         open         nuclear
     -   - - -        -----         ----         -------
     0   0 0 0     -0.000000      0.000000    148.000000

     1   1 0 0     -1.928095      0.000000     -0.000000
     1   0 1 0     -1.829712      0.000000      0.000000
     1   0 0 1      0.737368      0.000000      0.000000

     2   2 0 0    -98.354633      0.000000   1811.299710
     2   1 1 0      0.442524      0.000000     16.415632
     2   1 0 1      1.889421      0.000000     -6.901466
     2   0 2 0    -72.738623      0.000000   3021.728762
     2   0 1 1     -3.023216      0.000000     -6.709864
     2   0 0 2    -92.206953      0.000000    878.129998


 Task  times  cpu:     8279.1s     wall:     8714.1s


                                NWChem Input Module
                                -------------------


 Summary of allocated global arrays
-----------------------------------
  No active global arrays


MA_summarize_allocated_blocks: starting scan ...
MA_summarize_allocated_blocks: scan completed: 0 heap blocks, 0 stack blocks
MA usage statistics:

	allocation statistics:
					      heap	     stack
					      ----	     -----
	current number of blocks	         0	         0
	maximum number of blocks	        16	        14
	current total bytes		         0	         0
	maximum total bytes		    142960	  30457976
	maximum total K-bytes		       143	     30458
	maximum total M-bytes		         1	        31


                                     CITATION
                                     --------
                Please cite the following reference when publishing
                           results obtained with NWChem:

          E. Apra, E. J. Bylaska, W. A. de Jong, N. Govind, K. Kowalski,
       T. P. Straatsma, M. Valiev, H. J. J. van Dam, Y. Alexeev, J. Anchell,
       V. Anisimov, F. W. Aquino, R. Atta-Fynn, J. Autschbach, N. P. Bauman,
     J. C. Becca, D. E. Bernholdt, K. Bhaskaran-Nair, S. Bogatko, P. Borowski,
         J. Boschen, J. Brabec, A. Bruner, E. Cauet, Y. Chen, G. N. Chuev,
      C. J. Cramer, J. Daily, M. J. O. Deegan, T. H. Dunning Jr., M. Dupuis,
   K. G. Dyall, G. I. Fann, S. A. Fischer, A. Fonari, H. Fruchtl, L. Gagliardi,
      J. Garza, N. Gawande, S. Ghosh, K. Glaesemann, A. W. Gotz, J. Hammond,
       V. Helms, E. D. Hermes, K. Hirao, S. Hirata, M. Jacquelin, L. Jensen,
   B. G. Johnson, H. Jonsson, R. A. Kendall, M. Klemm, R. Kobayashi, V. Konkov,
      S. Krishnamoorthy, M. Krishnan, Z. Lin, R. D. Lins, R. J. Littlefield,
      A. J. Logsdail, K. Lopata, W. Ma, A. V. Marenich, J. Martin del Campo,
   D. Mejia-Rodriguez, J. E. Moore, J. M. Mullin, T. Nakajima, D. R. Nascimento,
    J. A. Nichols, P. J. Nichols, J. Nieplocha, A. Otero-de-la-Roza, B. Palmer,
    A. Panyala, T. Pirojsirikul, B. Peng, R. Peverati, J. Pittner, L. Pollack,
   R. M. Richard, P. Sadayappan, G. C. Schatz, W. A. Shelton, D. W. Silverstein,
   D. M. A. Smith, T. A. Soares, D. Song, M. Swart, H. L. Taylor, G. S. Thomas,
            V. Tipparaju, D. G. Truhlar, K. Tsemekhman, T. Van Voorhis,
      A. Vazquez-Mayagoitia, P. Verma, O. Villa, A. Vishnu, K. D. Vogiatzis,
        D. Wang, J. H. Weare, M. J. Williamson, T. L. Windus, K. Wolinski,
        A. T. Wong, Q. Wu, C. Yang, Q. Yu, M. Zacharias, Z. Zhang, Y. Zhao,
                                and R. J. Harrison
                        "NWChem: Past, present, and future
                         J. Chem. Phys. 152, 184102 (2020)
                               doi:10.1063/5.0004997

                                      AUTHORS
                                      -------
  E. Apra, E. J. Bylaska, N. Govind, K. Kowalski, M. Valiev, D. Mejia-Rodriguez,
       A. Kunitsa, N. P. Bauman, A. Panyala, W. A. de Jong, T. P. Straatsma,
   H. J. J. van Dam, D. Wang, T. L. Windus, J. Hammond, J. Autschbach, A. Woods,
    K. Bhaskaran-Nair, J. Brabec, K. Lopata, S. A. Fischer, S. Krishnamoorthy,
     M. Jacquelin, W. Ma, M. Klemm, O. Villa, Y. Chen, V. Anisimov, F. Aquino,
     S. Hirata, M. T. Hackler, E. Hermes, L. Jensen, J. E. Moore, J. C. Becca,
      V. Konjkov, T. Risthaus, M. Malagoli, A. Marenich, A. Otero-de-la-Roza,
        J. Mullin, P. Nichols, R. Peverati, J. Pittner, Y. Zhao, P.-D. Fan,
        A. Fonari, M. J. Williamson, R. J. Harrison, J. R. Rehr, M. Dupuis,
     D. Silverstein, D. M. A. Smith, J. Nieplocha, V. Tipparaju, M. Krishnan,
     B. E. Van Kuiken, A. Vazquez-Mayagoitia, M. Swart, Q. Wu, T. Van Voorhis,
     A. A. Auer, M. Nooijen, L. D. Crosby, E. Brown, G. Cisneros, G. I. Fann,
   H. Fruchtl, J. Garza, K. Hirao, R. A. Kendall, J. A. Nichols, K. Tsemekhman,
    K. Wolinski, J. Anchell, D. E. Bernholdt, P. Borowski, T. Clark, D. Clerc,
   H. Dachsel, M. J. O. Deegan, K. Dyall, D. Elwood, E. Glendening, M. Gutowski,
   A. C. Hess, J. Jaffe, B. G. Johnson, J. Ju, R. Kobayashi, R. Kutteh, Z. Lin,
   R. Littlefield, X. Long, B. Meng, T. Nakajima, S. Niu, L. Pollack, M. Rosing,
   K. Glaesemann, G. Sandrone, M. Stave, H. Taylor, G. Thomas, J. H. van Lenthe,
                               A. T. Wong, Z. Zhang.

 Total times  cpu:     8279.2s     wall:     8714.6s
