export TMOUT=5400
export TMPDIR=/tmp
export PTMPDIR=/tmp/ptmp
 argument  1 = ALA_GLY_4.nw
                                         
                                         


             Northwest Computational Chemistry Package (NWChem) 7.2.0
             --------------------------------------------------------


                    Environmental Molecular Sciences Laboratory
                       Pacific Northwest National Laboratory
                                Richland, WA 99352

                              Copyright (c) 1994-2022
                       Pacific Northwest National Laboratory
                            Battelle Memorial Institute

             NWChem is an open-source computational chemistry package
                        distributed under the terms of the
                      Educational Community License (ECL) 2.0
             A copy of the license is included with this distribution
                              in the LICENSE.TXT file

                                  ACKNOWLEDGMENT
                                  --------------

            This software and its documentation were developed at the
            EMSL at Pacific Northwest National Laboratory, a multiprogram
            national laboratory, operated for the U.S. Department of Energy
            by Battelle under Contract Number DE-AC05-76RL01830. Support
            for this work was provided by the Department of Energy Office
            of Biological and Environmental Research, Office of Basic
            Energy Sciences, and the Office of Advanced Scientific Computing.


           Job information
           ---------------

    hostname        = nova18-18
    program         = /opt/rit/el9/20230413/app/linux-rhel9-x86_64_v3/gcc-11.2.1/nwchem-7.2.0-oxtctbuhfuzyfaoziquq6bki22grib3g/bin/nwchem
    date            = Thu Jun 26 17:01:05 2025

    compiled        = Wed_May_17_23:46:39_2023
    source          = /tmp/root/spack-stage/spack-stage-nwchem-7.2.0-oxtctbuhfuzyfaoziquq6bki22grib3g/spack-src
    nwchem branch   = 7.2.0
    nwchem revision = d0d141fd
    ga revision     = 5.8.0
    use scalapack   = T
    input           = ALA_GLY_4.nw
    prefix          = ALA_GLY_4.
    data base       = ./ALA_GLY_4.db
    status          = startup
    nproc           =        8
    time left       =     -1s



           Memory information
           ------------------

    heap     =   26214400 doubles =    200.0 Mbytes
    stack    =   26214397 doubles =    200.0 Mbytes
    global   =   52428800 doubles =    400.0 Mbytes (distinct from heap & stack)
    total    =  104857597 doubles =    800.0 Mbytes
    verify   = yes
    hardfail = no 


           Directory information
           ---------------------

  0 permanent = .
  0 scratch   = .




                                NWChem Input Module
                                -------------------



 Scaling coordinates for geometry "geometry" by  1.889725989
 (inverse scale =  0.529177249)

 C1  symmetry detected

          ------
          auto-z
          ------
  no constraints, skipping    0.0000000000000000     
  no constraints, skipping    0.0000000000000000     


                             Geometry "geometry" -> ""
                             -------------------------

 Output coordinates in angstroms (scale by  1.889725989 to convert to a.u.)

  No.       Tag          Charge          X              Y              Z
 ---- ---------------- ---------- -------------- -------------- --------------
    1 H                    1.0000    -1.17457437     4.91187103     0.42408646
    2 C                    6.0000    -0.80818709     4.63124559    -0.56115652
    3 H                    1.0000    -0.27590492     5.47041294    -1.00592933
    4 H                    1.0000    -1.63979339     4.34472530    -1.20092061
    5 C                    6.0000     0.14355500     3.46543765    -0.42603496
    6 O                    8.0000     1.30534381     3.57533040    -0.79600162
    7 N                    7.0000    -0.35525064     2.34897731     0.09861850
    8 H                    1.0000    -1.33309672     2.32430157     0.34500471
    9 C                    6.0000     0.39661995     1.10730216     0.28855384
   10 H                    1.0000     1.12643343     1.00978546    -0.51732753
   11 C                    6.0000     1.15202439     1.18247883     1.62411687
   12 H                    1.0000     1.74458912     0.27930145     1.76777152
   13 H                    1.0000     1.82311230     2.04323989     1.62006469
   14 H                    1.0000     0.44435688     1.28218043     2.44716746
   15 C                    6.0000    -0.53698954    -0.11624799     0.23491292
   16 O                    8.0000    -1.74951779     0.01042832     0.40346066
   17 N                    7.0000     0.02656767    -1.30644566     0.01568065
   18 H                    1.0000     1.02859752    -1.36253078    -0.10642029
   19 C                    6.0000    -0.71423468    -2.56713335    -0.05326429
   20 H                    1.0000    -1.26143570    -2.71575371     0.87793764
   21 H                    1.0000    -1.43537037    -2.51733107    -0.86975804
   22 C                    6.0000     0.20515386    -3.76941606    -0.27970855
   23 O                    8.0000     1.41940167    -3.63086313    -0.37274806
   24 N                    7.0000    -0.35347598    -4.96796290    -0.37254264
   25 H                    1.0000     0.25032924    -5.75980395    -0.52198161
   26 H                    1.0000    -1.35160316    -5.07354556    -0.29419437

      Atomic Mass 
      ----------- 

      H                  1.007825
      C                 12.000000
      O                 15.994910
      N                 14.003070


 Effective nuclear repulsion energy (a.u.)     797.7643082358

            Nuclear Dipole moment (a.u.) 
            ----------------------------
        X                 Y               Z
 ---------------- ---------------- ----------------
    -0.0000000000    -0.0000000000    -0.0000000000



                                Z-matrix (autoz)
                                -------- 

 Units are Angstrom for bonds and degrees for angles

      Type          Name      I     J     K     L     M      Value
      ----------- --------  ----- ----- ----- ----- ----- ----------
    1 Stretch                  1     2                       1.08798
    2 Stretch                  2     3                       1.08874
    3 Stretch                  2     4                       1.08764
    4 Stretch                  2     5                       1.51102
    5 Stretch                  5     6                       1.22422
    6 Stretch                  5     7                       1.33062
    7 Stretch                  7     8                       1.00871
    8 Stretch                  7     9                       1.46395
    9 Stretch                  9    10                       1.09160
   10 Stretch                  9    11                       1.53623
   11 Stretch                  9    15                       1.53999
   12 Stretch                 11    12                       1.08972
   13 Stretch                 11    13                       1.09146
   14 Stretch                 11    14                       1.09002
   15 Stretch                 15    16                       1.23072
   16 Stretch                 15    17                       1.33500
   17 Stretch                 17    18                       1.01100
   18 Stretch                 17    19                       1.46386
   19 Stretch                 19    20                       1.09025
   20 Stretch                 19    21                       1.09049
   21 Stretch                 19    22                       1.53037
   22 Stretch                 22    23                       1.22566
   23 Stretch                 22    24                       1.32559
   24 Stretch                 24    25                       1.00694
   25 Stretch                 24    26                       1.00675
   26 Bend                     1     2     3               109.62000
   27 Bend                     1     2     4               110.06783
   28 Bend                     1     2     5               109.27724
   29 Bend                     2     5     6               120.09704
   30 Bend                     2     5     7               116.51954
   31 Bend                     3     2     4               109.66738
   32 Bend                     3     2     5               108.86074
   33 Bend                     4     2     5               109.32626
   34 Bend                     5     7     8               118.70050
   35 Bend                     5     7     9               124.77018
   36 Bend                     6     5     7               123.38259
   37 Bend                     7     9    10               108.86632
   38 Bend                     7     9    11               108.89495
   39 Bend                     7     9    15               110.97769
   40 Bend                     8     7     9               116.45131
   41 Bend                     9    11    12               109.96437
   42 Bend                     9    11    13               109.73701
   43 Bend                     9    11    14               109.97938
   44 Bend                     9    15    16               120.71256
   45 Bend                     9    15    17               117.26705
   46 Bend                    10     9    11               108.50824
   47 Bend                    10     9    15               107.97645
   48 Bend                    11     9    15               111.54714
   49 Bend                    12    11    13               108.64940
   50 Bend                    12    11    14               109.22640
   51 Bend                    13    11    14               109.25945
   52 Bend                    15    17    18               119.18858
   53 Bend                    15    17    19               124.18746
   54 Bend                    16    15    17               122.01576
   55 Bend                    17    19    20               109.33946
   56 Bend                    17    19    21               109.30448
   57 Bend                    17    19    22               112.30431
   58 Bend                    18    17    19               116.62243
   59 Bend                    19    22    23               121.17073
   60 Bend                    19    22    24               117.87283
   61 Bend                    20    19    21               108.29011
   62 Bend                    20    19    22               108.71201
   63 Bend                    21    19    22               108.80628
   64 Bend                    22    24    25               117.95048
   65 Bend                    22    24    26               120.47635
   66 Bend                    23    22    24               120.95644
   67 Bend                    25    24    26               121.57316
   68 Torsion                  1     2     5     6        -119.69396
   69 Torsion                  1     2     5     7          60.62605
   70 Torsion                  2     5     7     8           2.14155
   71 Torsion                  2     5     7     9         178.80880
   72 Torsion                  3     2     5     6           0.00131
   73 Torsion                  3     2     5     7        -179.67868
   74 Torsion                  4     2     5     6         119.78321
   75 Torsion                  4     2     5     7         -59.89678
   76 Torsion                  5     7     9    10         -33.10024
   77 Torsion                  5     7     9    11          85.03363
   78 Torsion                  5     7     9    15        -151.80663
   79 Torsion                  6     5     7     8        -177.52688
   80 Torsion                  6     5     7     9          -0.85964
   81 Torsion                  7     9    11    12        -178.13540
   82 Torsion                  7     9    11    13         -58.67713
   83 Torsion                  7     9    11    14          61.54236
   84 Torsion                  7     9    15    16         -19.14121
   85 Torsion                  7     9    15    17         161.62660
   86 Torsion                  8     7     9    10         143.63472
   87 Torsion                  8     7     9    11         -98.23141
   88 Torsion                  8     7     9    15          24.92833
   89 Torsion                  9    15    17    18          -0.06684
   90 Torsion                  9    15    17    19         179.46726
   91 Torsion                 10     9    11    12         -59.77609
   92 Torsion                 10     9    11    13          59.68218
   93 Torsion                 10     9    11    14         179.90167
   94 Torsion                 10     9    15    16        -138.38288
   95 Torsion                 10     9    15    17          42.38493
   96 Torsion                 11     9    15    16         102.47835
   97 Torsion                 11     9    15    17         -76.75384
   98 Torsion                 12    11     9    15          59.04622
   99 Torsion                 13    11     9    15         178.50449
  100 Torsion                 14    11     9    15         -61.27602
  101 Torsion                 15    17    19    20         -57.73397
  102 Torsion                 15    17    19    21          60.64806
  103 Torsion                 15    17    19    22        -178.49545
  104 Torsion                 16    15    17    18        -179.28831
  105 Torsion                 16    15    17    19           0.24579
  106 Torsion                 17    19    22    23           0.61309
  107 Torsion                 17    19    22    24        -179.37663
  108 Torsion                 18    17    19    20         121.81105
  109 Torsion                 18    17    19    21        -119.80692
  110 Torsion                 18    17    19    22           1.04957
  111 Torsion                 19    22    24    25         179.97106
  112 Torsion                 19    22    24    26          -0.06743
  113 Torsion                 20    19    22    23        -120.50930
  114 Torsion                 20    19    22    24          59.50098
  115 Torsion                 21    19    22    23         121.75598
  116 Torsion                 21    19    22    24         -58.23374
  117 Torsion                 23    22    24    25          -0.01868
  118 Torsion                 23    22    24    26         179.94283


            XYZ format geometry
            -------------------
    26
 geometry
 H                    -1.17457437     4.91187103     0.42408646
 C                    -0.80818709     4.63124559    -0.56115652
 H                    -0.27590492     5.47041294    -1.00592933
 H                    -1.63979339     4.34472530    -1.20092061
 C                     0.14355500     3.46543765    -0.42603496
 O                     1.30534381     3.57533040    -0.79600162
 N                    -0.35525064     2.34897731     0.09861850
 H                    -1.33309672     2.32430157     0.34500471
 C                     0.39661995     1.10730216     0.28855384
 H                     1.12643343     1.00978546    -0.51732753
 C                     1.15202439     1.18247883     1.62411687
 H                     1.74458912     0.27930145     1.76777152
 H                     1.82311230     2.04323989     1.62006469
 H                     0.44435688     1.28218043     2.44716746
 C                    -0.53698954    -0.11624799     0.23491292
 O                    -1.74951779     0.01042832     0.40346066
 N                     0.02656767    -1.30644566     0.01568065
 H                     1.02859752    -1.36253078    -0.10642029
 C                    -0.71423468    -2.56713335    -0.05326429
 H                    -1.26143570    -2.71575371     0.87793764
 H                    -1.43537037    -2.51733107    -0.86975804
 C                     0.20515386    -3.76941606    -0.27970855
 O                     1.41940167    -3.63086313    -0.37274806
 N                    -0.35347598    -4.96796290    -0.37254264
 H                     0.25032924    -5.75980395    -0.52198161
 H                    -1.35160316    -5.07354556    -0.29419437

 ==============================================================================
                                internuclear distances
 ------------------------------------------------------------------------------
       center one      |      center two      | atomic units |  angstroms
 ------------------------------------------------------------------------------
    2 C                |   1 H                |     2.05598  |     1.08798
    3 H                |   2 C                |     2.05742  |     1.08874
    4 H                |   2 C                |     2.05534  |     1.08764
    5 C                |   2 C                |     2.85541  |     1.51102
    6 O                |   5 C                |     2.31343  |     1.22422
    7 N                |   5 C                |     2.51451  |     1.33062
    8 H                |   7 N                |     1.90619  |     1.00871
    9 C                |   7 N                |     2.76646  |     1.46395
   10 H                |   9 C                |     2.06282  |     1.09160
   11 C                |   9 C                |     2.90306  |     1.53623
   12 H                |  11 C                |     2.05928  |     1.08972
   13 H                |  11 C                |     2.06256  |     1.09146
   14 H                |  11 C                |     2.05984  |     1.09002
   15 C                |   9 C                |     2.91017  |     1.53999
   16 O                |  15 C                |     2.32573  |     1.23072
   17 N                |  15 C                |     2.52279  |     1.33500
   18 H                |  17 N                |     1.91051  |     1.01100
   19 C                |  17 N                |     2.76629  |     1.46386
   20 H                |  19 C                |     2.06028  |     1.09025
   21 H                |  19 C                |     2.06074  |     1.09049
   22 C                |  19 C                |     2.89198  |     1.53037
   23 O                |  22 C                |     2.31617  |     1.22566
   24 N                |  22 C                |     2.50501  |     1.32559
   25 H                |  24 N                |     1.90284  |     1.00694
   26 H                |  24 N                |     1.90248  |     1.00675
 ------------------------------------------------------------------------------
                         number of included internuclear distances:         25
 ==============================================================================



 ==============================================================================
                                 internuclear angles
 ------------------------------------------------------------------------------
        center 1       |       center 2       |       center 3       |  degrees
 ------------------------------------------------------------------------------
    1 H                |   2 C                |   3 H                |   109.62
    1 H                |   2 C                |   4 H                |   110.07
    1 H                |   2 C                |   5 C                |   109.28
    3 H                |   2 C                |   4 H                |   109.67
    3 H                |   2 C                |   5 C                |   108.86
    4 H                |   2 C                |   5 C                |   109.33
    2 C                |   5 C                |   6 O                |   120.10
    2 C                |   5 C                |   7 N                |   116.52
    6 O                |   5 C                |   7 N                |   123.38
    5 C                |   7 N                |   8 H                |   118.70
    5 C                |   7 N                |   9 C                |   124.77
    8 H                |   7 N                |   9 C                |   116.45
    7 N                |   9 C                |  10 H                |   108.87
    7 N                |   9 C                |  11 C                |   108.89
    7 N                |   9 C                |  15 C                |   110.98
   10 H                |   9 C                |  11 C                |   108.51
   10 H                |   9 C                |  15 C                |   107.98
   11 C                |   9 C                |  15 C                |   111.55
    9 C                |  11 C                |  12 H                |   109.96
    9 C                |  11 C                |  13 H                |   109.74
    9 C                |  11 C                |  14 H                |   109.98
   12 H                |  11 C                |  13 H                |   108.65
   12 H                |  11 C                |  14 H                |   109.23
   13 H                |  11 C                |  14 H                |   109.26
    9 C                |  15 C                |  16 O                |   120.71
    9 C                |  15 C                |  17 N                |   117.27
   16 O                |  15 C                |  17 N                |   122.02
   15 C                |  17 N                |  18 H                |   119.19
   15 C                |  17 N                |  19 C                |   124.19
   18 H                |  17 N                |  19 C                |   116.62
   17 N                |  19 C                |  20 H                |   109.34
   17 N                |  19 C                |  21 H                |   109.30
   17 N                |  19 C                |  22 C                |   112.30
   20 H                |  19 C                |  21 H                |   108.29
   20 H                |  19 C                |  22 C                |   108.71
   21 H                |  19 C                |  22 C                |   108.81
   19 C                |  22 C                |  23 O                |   121.17
   19 C                |  22 C                |  24 N                |   117.87
   23 O                |  22 C                |  24 N                |   120.96
   22 C                |  24 N                |  25 H                |   117.95
   22 C                |  24 N                |  26 H                |   120.48
   25 H                |  24 N                |  26 H                |   121.57
 ------------------------------------------------------------------------------
                            number of included internuclear angles:         42
 ==============================================================================



  library name resolved from: environment
  library file name is: </opt/rit/el9/20230413/app/linux-rhel9-x86_64_v3/gcc-11.2.1/nwchem-7.2.0-oxtctbuhfuzyfaoziquq6bki22grib3g/share/nwchem/libraries/>
  


 Summary of "ao basis" -> "" (cartesian)
 ------------------------------------------------------------------------------
       Tag                 Description            Shells   Functions and Types
 ---------------- ------------------------------  ------  ---------------------
 *                        aug-cc-pvdz                 on all atoms 


                      Basis "ao basis" -> "ao basis" (cartesian)
                      -----
  H (Hydrogen)
  ------------
            Exponent  Coefficients 
       -------------- ---------------------------------------------------------
  1 S  1.30100000E+01  0.019685
  1 S  1.96200000E+00  0.137977
  1 S  4.44600000E-01  0.478148

  2 S  1.22000000E-01  1.000000

  3 S  2.97400000E-02  1.000000

  4 P  7.27000000E-01  1.000000

  5 P  1.41000000E-01  1.000000

  C (Carbon)
  ----------
            Exponent  Coefficients 
       -------------- ---------------------------------------------------------
  1 S  6.66500000E+03  0.000692
  1 S  1.00000000E+03  0.005329
  1 S  2.28000000E+02  0.027077
  1 S  6.47100000E+01  0.101718
  1 S  2.10600000E+01  0.274740
  1 S  7.49500000E+00  0.448564
  1 S  2.79700000E+00  0.285074
  1 S  5.21500000E-01  0.015204

  2 S  6.66500000E+03 -0.000146
  2 S  1.00000000E+03 -0.001154
  2 S  2.28000000E+02 -0.005725
  2 S  6.47100000E+01 -0.023312
  2 S  2.10600000E+01 -0.063955
  2 S  7.49500000E+00 -0.149981
  2 S  2.79700000E+00 -0.127262
  2 S  5.21500000E-01  0.544529

  3 S  1.59600000E-01  1.000000

  4 S  4.69000000E-02  1.000000

  5 P  9.43900000E+00  0.038109
  5 P  2.00200000E+00  0.209480
  5 P  5.45600000E-01  0.508557

  6 P  1.51700000E-01  1.000000

  7 P  4.04100000E-02  1.000000

  8 D  5.50000000E-01  1.000000

  9 D  1.51000000E-01  1.000000

  O (Oxygen)
  ----------
            Exponent  Coefficients 
       -------------- ---------------------------------------------------------
  1 S  1.17200000E+04  0.000710
  1 S  1.75900000E+03  0.005470
  1 S  4.00800000E+02  0.027837
  1 S  1.13700000E+02  0.104800
  1 S  3.70300000E+01  0.283062
  1 S  1.32700000E+01  0.448719
  1 S  5.02500000E+00  0.270952
  1 S  1.01300000E+00  0.015458

  2 S  1.17200000E+04 -0.000160
  2 S  1.75900000E+03 -0.001263
  2 S  4.00800000E+02 -0.006267
  2 S  1.13700000E+02 -0.025716
  2 S  3.70300000E+01 -0.070924
  2 S  1.32700000E+01 -0.165411
  2 S  5.02500000E+00 -0.116955
  2 S  1.01300000E+00  0.557368

  3 S  3.02300000E-01  1.000000

  4 S  7.89600000E-02  1.000000

  5 P  1.77000000E+01  0.043018
  5 P  3.85400000E+00  0.228913
  5 P  1.04600000E+00  0.508728

  6 P  2.75300000E-01  1.000000

  7 P  6.85600000E-02  1.000000

  8 D  1.18500000E+00  1.000000

  9 D  3.32000000E-01  1.000000

  N (Nitrogen)
  ------------
            Exponent  Coefficients 
       -------------- ---------------------------------------------------------
  1 S  9.04600000E+03  0.000700
  1 S  1.35700000E+03  0.005389
  1 S  3.09300000E+02  0.027406
  1 S  8.77300000E+01  0.103207
  1 S  2.85600000E+01  0.278723
  1 S  1.02100000E+01  0.448540
  1 S  3.83800000E+00  0.278238
  1 S  7.46600000E-01  0.015440

  2 S  9.04600000E+03 -0.000153
  2 S  1.35700000E+03 -0.001208
  2 S  3.09300000E+02 -0.005992
  2 S  8.77300000E+01 -0.024544
  2 S  2.85600000E+01 -0.067459
  2 S  1.02100000E+01 -0.158078
  2 S  3.83800000E+00 -0.121831
  2 S  7.46600000E-01  0.549003

  3 S  2.24800000E-01  1.000000

  4 S  6.12400000E-02  1.000000

  5 P  1.35500000E+01  0.039919
  5 P  2.91700000E+00  0.217169
  5 P  7.97300000E-01  0.510319

  6 P  2.18500000E-01  1.000000

  7 P  5.61100000E-02  1.000000

  8 D  8.17000000E-01  1.000000

  9 D  2.30000000E-01  1.000000



 Summary of "ao basis" -> "ao basis" (cartesian)
 ------------------------------------------------------------------------------
       Tag                 Description            Shells   Functions and Types
 ---------------- ------------------------------  ------  ---------------------
 H                        aug-cc-pvdz                5        9   3s2p
 C                        aug-cc-pvdz                9       25   4s3p2d
 O                        aug-cc-pvdz                9       25   4s3p2d
 N                        aug-cc-pvdz                9       25   4s3p2d


                                 NWChem SCF Module
                                 -----------------



  ao basis        = "ao basis"
  functions       =   442
  atoms           =    26
  closed shells   =    50
  open shells     =     0
  charge          =   0.00
  wavefunction    = RHF 
  input vectors   = atomic
  output vectors  = ./ALA_GLY_4.movecs
  use symmetry    = F
  symmetry adapt  = F


 Summary of "ao basis" -> "ao basis" (cartesian)
 ------------------------------------------------------------------------------
       Tag                 Description            Shells   Functions and Types
 ---------------- ------------------------------  ------  ---------------------
 H                        aug-cc-pvdz                5        9   3s2p
 C                        aug-cc-pvdz                9       25   4s3p2d
 O                        aug-cc-pvdz                9       25   4s3p2d
 N                        aug-cc-pvdz                9       25   4s3p2d



 Forming initial guess at       0.9s


 !! The overlap matrix has   2 vectors deemed linearly dependent with
    eigenvalues:
 3.65D-06 8.55D-06


      Superposition of Atomic Density Guess
      -------------------------------------

 Sum of atomic energies:        -657.36908239

      Non-variational initial energy
      ------------------------------

 Total energy =    -665.508479
 1-e energy   =   -2476.851762
 2-e energy   =    1013.578975
 HOMO         =      -0.313226
 LUMO         =       0.014075


 Starting SCF solution at     100.8s



 ----------------------------------------------
         Quadratically convergent ROHF

 Convergence threshold     :          1.000E-04
 Maximum no. of iterations :           30
 Final Fock-matrix accuracy:          1.000E-10
 ----------------------------------------------


              iter       energy          gnorm     gmax       time
             ----- ------------------- --------- --------- --------
                 1     -660.4103906191  2.32D+00  1.87D-01    190.6
                 2     -660.6952775981  7.41D-01  5.52D-02    391.8
                 3     -660.7438163551  6.09D-02  5.94D-03    788.3
                 4     -660.7444118167  3.53D-03  4.38D-04   1189.2
                 5     -660.7444141414  6.27D-06  4.00D-07   1875.1


       Final RHF  results 
       ------------------ 

         Total SCF energy =   -660.744414141385
      One-electron energy =  -2486.021436095330
      Two-electron energy =   1027.512713718170
 Nuclear repulsion energy =    797.764308235775

        Time for solution =   1779.4s


             Final eigenvalues
             -----------------

              1      
    1  -20.5493
    2  -20.5395
    3  -20.5147
    4  -15.6210
    5  -15.6117
    6  -15.5901
    7  -11.3853
    8  -11.3702
    9  -11.3471
   10  -11.3110
   11  -11.2980
   12  -11.2359
   13  -11.2358
   14   -1.4121
   15   -1.3973
   16   -1.3762
   17   -1.2519
   18   -1.2488
   19   -1.2385
   20   -1.0648
   21   -1.0144
   22   -0.9847
   23   -0.8956
   24   -0.8347
   25   -0.8089
   26   -0.7865
   27   -0.7695
   28   -0.7264
   29   -0.6856
   30   -0.6764
   31   -0.6709
   32   -0.6538
   33   -0.6422
   34   -0.6255
   35   -0.6113
   36   -0.5971
   37   -0.5822
   38   -0.5812
   39   -0.5631
   40   -0.5605
   41   -0.5438
   42   -0.5292
   43   -0.5229
   44   -0.4950
   45   -0.4518
   46   -0.4392
   47   -0.4345
   48   -0.4133
   49   -0.4105
   50   -0.3882
   51    0.0200
   52    0.0379
   53    0.0436
   54    0.0454
   55    0.0505
   56    0.0575
   57    0.0589
   58    0.0683
   59    0.0720
   60    0.0764

                       ROHF Final Molecular Orbital Analysis
                       -------------------------------------

 Vector   14  Occ=2.000000D+00  E=-1.412066D+00
              MO Center=  7.5D-01, -3.6D+00, -3.0D-01, r^2= 1.8D+00
   Bfn.  Coefficient  Atom+Function         Bfn.  Coefficient  Atom+Function  
  ----- ------------  ---------------      ----- ------------  ---------------
   377      0.354067  23 O  s               376      0.337972  23 O  s         
   351      0.240270  22 C  s         

 Vector   15  Occ=2.000000D+00  E=-1.397252D+00
              MO Center= -1.0D+00, -2.6D-01,  2.5D-01, r^2= 2.5D+00
   Bfn.  Coefficient  Atom+Function         Bfn.  Coefficient  Atom+Function  
  ----- ------------  ---------------      ----- ------------  ---------------
   250      0.351709  16 O  s               249      0.334103  16 O  s         
   224      0.233902  15 C  s         

 Vector   16  Occ=2.000000D+00  E=-1.376176D+00
              MO Center=  7.1D-01,  3.3D+00, -5.6D-01, r^2= 1.5D+00
   Bfn.  Coefficient  Atom+Function         Bfn.  Coefficient  Atom+Function  
  ----- ------------  ---------------      ----- ------------  ---------------
    79      0.344121   6 O  s                80      0.345470   6 O  s         
    54      0.243028   5 C  s                12      0.164122   2 C  s         

 Vector   17  Occ=2.000000D+00  E=-1.251949D+00
              MO Center= -2.6D-01, -1.3D+00,  5.6D-02, r^2= 2.1D+00
   Bfn.  Coefficient  Atom+Function         Bfn.  Coefficient  Atom+Function  
  ----- ------------  ---------------      ----- ------------  ---------------
   275      0.408415  17 N  s               274      0.339099  17 N  s         
   250     -0.220745  16 O  s               249     -0.180534  16 O  s         
   227      0.151342  15 C  px              298      0.150272  18 H  s         

 Vector   18  Occ=2.000000D+00  E=-1.248793D+00
              MO Center= -1.1D-01, -4.5D+00, -3.3D-01, r^2= 1.9D+00
   Bfn.  Coefficient  Atom+Function         Bfn.  Coefficient  Atom+Function  
  ----- ------------  ---------------      ----- ------------  ---------------
   402      0.414090  24 N  s               401      0.364990  24 N  s         
   377     -0.203121  23 O  s               376     -0.172757  23 O  s         
   434      0.167325  26 H  s               354     -0.159465  22 C  px        
   425      0.153785  25 H  s         

 Vector   19  Occ=2.000000D+00  E=-1.238539D+00
              MO Center= -3.6D-02,  2.4D+00, -2.9D-02, r^2= 1.8D+00
   Bfn.  Coefficient  Atom+Function         Bfn.  Coefficient  Atom+Function  
  ----- ------------  ---------------      ----- ------------  ---------------
   105      0.435901   7 N  s               104      0.342603   7 N  s         
    80     -0.213642   6 O  s                79     -0.186822   6 O  s         
   128      0.152992   8 H  s         

 Vector   20  Occ=2.000000D+00  E=-1.064755D+00
              MO Center=  1.6D-01,  9.7D-01,  3.6D-01, r^2= 5.7D+00
   Bfn.  Coefficient  Atom+Function         Bfn.  Coefficient  Atom+Function  
  ----- ------------  ---------------      ----- ------------  ---------------
   138      0.232320   9 C  s               172      0.186545  11 C  s         
    12     -0.182627   2 C  s               309     -0.165091  19 C  s         

 Vector   21  Occ=2.000000D+00  E=-1.014435D+00
              MO Center= -3.7D-01, -9.6D-01, -6.6D-02, r^2= 1.0D+01
   Bfn.  Coefficient  Atom+Function         Bfn.  Coefficient  Atom+Function  
  ----- ------------  ---------------      ----- ------------  ---------------
   309      0.309435  19 C  s               308      0.271480  19 C  s         
   225      0.176815  15 C  s               275     -0.168339  17 N  s         

 Vector   22  Occ=2.000000D+00  E=-9.847211D-01
              MO Center= -2.2D-01,  3.0D+00,  9.5D-03, r^2= 7.2D+00
   Bfn.  Coefficient  Atom+Function         Bfn.  Coefficient  Atom+Function  
  ----- ------------  ---------------      ----- ------------  ---------------
    56      0.340977   5 C  s                11     -0.297666   2 C  s         
    13     -0.247090   2 C  s               225     -0.205621  15 C  s         
   172     -0.184076  11 C  s               144     -0.180210   9 C  px        

 Vector   23  Occ=2.000000D+00  E=-8.955630D-01
              MO Center=  4.1D-01,  7.2D-01,  7.0D-01, r^2= 6.3D+00
   Bfn.  Coefficient  Atom+Function         Bfn.  Coefficient  Atom+Function  
  ----- ------------  ---------------      ----- ------------  ---------------
   144      0.282521   9 C  px              172      0.248031  11 C  s         
   139     -0.215070   9 C  s               145      0.212331   9 C  py        
   309     -0.211267  19 C  s               225      0.206788  15 C  s         
   231      0.170233  15 C  py              138     -0.169069   9 C  s         
   146      0.156921   9 C  pz              174      0.157628  11 C  s         

 Vector   24  Occ=2.000000D+00  E=-8.346620D-01
              MO Center= -1.5D-01, -2.9D+00, -2.0D-01, r^2= 9.4D+00
   Bfn.  Coefficient  Atom+Function         Bfn.  Coefficient  Atom+Function  
  ----- ------------  ---------------      ----- ------------  ---------------
   405      0.294612  24 N  py              351      0.213795  22 C  s         
   225      0.185212  15 C  s               352      0.174716  22 C  s         
   425     -0.174186  25 H  s               434     -0.172625  26 H  s         
   278      0.166448  17 N  py        

 Vector   25  Occ=2.000000D+00  E=-8.089402D-01
              MO Center= -2.0D-01, -1.2D+00, -1.3D-02, r^2= 5.0D+00
   Bfn.  Coefficient  Atom+Function         Bfn.  Coefficient  Atom+Function  
  ----- ------------  ---------------      ----- ------------  ---------------
   309      0.351015  19 C  s               277     -0.280605  17 N  px        
   298     -0.280275  18 H  s               275     -0.269775  17 N  s         
   352     -0.253626  22 C  s               139      0.209591   9 C  s         
   225      0.208717  15 C  s               231     -0.182234  15 C  py        
   299     -0.180531  18 H  s               243     -0.165390  15 C  dxy       

 Vector   26  Occ=2.000000D+00  E=-7.865368D-01
              MO Center= -1.0D-01,  1.6D+00,  4.0D-02, r^2= 5.3D+00
   Bfn.  Coefficient  Atom+Function         Bfn.  Coefficient  Atom+Function  
  ----- ------------  ---------------      ----- ------------  ---------------
   128      0.282049   8 H  s               225      0.269602  15 C  s         
   107     -0.264080   7 N  px              139     -0.262531   9 C  s         
   105      0.248433   7 N  s               144      0.225467   9 C  px        
    55     -0.196557   5 C  s                54     -0.167742   5 C  s         
    80      0.163903   6 O  s                61      0.153750   5 C  py        

 Vector   27  Occ=2.000000D+00  E=-7.694537D-01
              MO Center= -2.6D-01, -3.3D+00, -2.1D-01, r^2= 8.2D+00
   Bfn.  Coefficient  Atom+Function         Bfn.  Coefficient  Atom+Function  
  ----- ------------  ---------------      ----- ------------  ---------------
   404      0.352560  24 N  px              434     -0.292102  26 H  s         
   425      0.203946  25 H  s               355     -0.151886  22 C  py        

 Vector   28  Occ=2.000000D+00  E=-7.263594D-01
              MO Center= -2.1D-01, -5.3D-01, -5.2D-02, r^2= 1.3D+01
   Bfn.  Coefficient  Atom+Function         Bfn.  Coefficient  Atom+Function  
  ----- ------------  ---------------      ----- ------------  ---------------
   145      0.235166   9 C  py              425     -0.217156  25 H  s         
   142      0.210995   9 C  py              228     -0.200813  15 C  py        
   405      0.187875  24 N  py              404     -0.165028  24 N  px        
   225      0.161830  15 C  s         

 Vector   29  Occ=2.000000D+00  E=-6.856434D-01
              MO Center=  3.6D-02, -2.0D+00, -1.2D-01, r^2= 7.5D+00
   Bfn.  Coefficient  Atom+Function         Bfn.  Coefficient  Atom+Function  
  ----- ------------  ---------------      ----- ------------  ---------------
   379      0.267278  23 O  px              377      0.224707  23 O  s         
   355     -0.210723  22 C  py              311     -0.199465  19 C  px        
   252     -0.185959  16 O  px              226      0.165440  15 C  s         
   352     -0.160444  22 C  s               225     -0.153315  15 C  s         

 Vector   30  Occ=2.000000D+00  E=-6.763887D-01
              MO Center= -3.6D-01, -2.0D+00, -3.6D-02, r^2= 5.0D+00
   Bfn.  Coefficient  Atom+Function         Bfn.  Coefficient  Atom+Function  
  ----- ------------  ---------------      ----- ------------  ---------------
   313      0.311895  19 C  pz              332      0.210616  20 H  s         
   341     -0.195730  21 H  s               279      0.191976  17 N  pz        
   282      0.160337  17 N  pz        

 Vector   31  Occ=2.000000D+00  E=-6.708947D-01
              MO Center=  5.6D-02,  5.2D-01, -1.6D-01, r^2= 1.1D+01
   Bfn.  Coefficient  Atom+Function         Bfn.  Coefficient  Atom+Function  
  ----- ------------  ---------------      ----- ------------  ---------------
    82      0.215259   6 O  px              309      0.196080  19 C  s         
    80      0.192352   6 O  s                56     -0.187644   5 C  s         
   252     -0.156222  16 O  px        

 Vector   32  Occ=2.000000D+00  E=-6.537836D-01
              MO Center= -1.4D-01,  1.2D+00, -1.5D-01, r^2= 1.1D+01
   Bfn.  Coefficient  Atom+Function         Bfn.  Coefficient  Atom+Function  
  ----- ------------  ---------------      ----- ------------  ---------------
    56      0.226628   5 C  s               252     -0.220083  16 O  px        
    58      0.216124   5 C  py               13     -0.185801   2 C  s         
   379     -0.181103  23 O  px               14      0.160986   2 C  px        
    82     -0.152105   6 O  px              250      0.150505  16 O  s         

 Vector   33  Occ=2.000000D+00  E=-6.421969D-01
              MO Center= -1.4D-01,  1.5D-02,  2.6D-03, r^2= 8.6D+00
   Bfn.  Coefficient  Atom+Function         Bfn.  Coefficient  Atom+Function  
  ----- ------------  ---------------      ----- ------------  ---------------
   309      0.237961  19 C  s               278      0.229425  17 N  py        
   312     -0.192054  19 C  py              352     -0.191496  22 C  s         
   315     -0.186166  19 C  py              252     -0.155816  16 O  px        

 Vector   34  Occ=2.000000D+00  E=-6.254861D-01
              MO Center=  7.6D-02,  2.2D+00,  3.9D-02, r^2= 7.9D+00
   Bfn.  Coefficient  Atom+Function         Bfn.  Coefficient  Atom+Function  
  ----- ------------  ---------------      ----- ------------  ---------------
   139      0.436889   9 C  s               173     -0.364003  11 C  s         
    16      0.204468   2 C  pz               59      0.195803   5 C  pz        
   225     -0.194115  15 C  s                82      0.178035   6 O  px        
   145     -0.160533   9 C  py              108      0.158208   7 N  py        
   109      0.154680   7 N  pz        

 Vector   35  Occ=2.000000D+00  E=-6.113118D-01
              MO Center= -1.9D-02,  1.8D-01,  1.6D-01, r^2= 1.1D+01
   Bfn.  Coefficient  Atom+Function         Bfn.  Coefficient  Atom+Function  
  ----- ------------  ---------------      ----- ------------  ---------------
    56      0.204224   5 C  s               379      0.178163  23 O  px        
   252      0.172090  16 O  px              227     -0.161106  15 C  px        
   139      0.160075   9 C  s               354     -0.157230  22 C  px        

 Vector   36  Occ=2.000000D+00  E=-5.971432D-01
              MO Center=  5.4D-03, -8.8D-01, -1.2D-01, r^2= 1.3D+01
   Bfn.  Coefficient  Atom+Function         Bfn.  Coefficient  Atom+Function  
  ----- ------------  ---------------      ----- ------------  ---------------
   354      0.212470  22 C  px              379     -0.191640  23 O  px        
   380     -0.152026  23 O  py        

 Vector   37  Occ=2.000000D+00  E=-5.822192D-01
              MO Center=  1.2D-01, -8.9D-01,  2.5D-01, r^2= 1.1D+01
   Bfn.  Coefficient  Atom+Function         Bfn.  Coefficient  Atom+Function  
  ----- ------------  ---------------      ----- ------------  ---------------
   356     -0.171475  22 C  pz              406     -0.171808  24 N  pz        
   381     -0.166987  23 O  pz              175      0.164820  11 C  px        
   252      0.165044  16 O  px        

 Vector   38  Occ=2.000000D+00  E=-5.811718D-01
              MO Center=  1.7D-01,  1.0D+00,  6.5D-02, r^2= 1.1D+01
   Bfn.  Coefficient  Atom+Function         Bfn.  Coefficient  Atom+Function  
  ----- ------------  ---------------      ----- ------------  ---------------
    57      0.194864   5 C  px              311      0.173205  19 C  px        
    15      0.170663   2 C  py              176     -0.168875  11 C  py        
   196      0.163449  12 H  s                82     -0.162157   6 O  px        
   277     -0.160364  17 N  px        

 Vector   39  Occ=2.000000D+00  E=-5.631114D-01
              MO Center=  9.4D-02,  7.6D-01, -8.9D-03, r^2= 1.3D+01
   Bfn.  Coefficient  Atom+Function         Bfn.  Coefficient  Atom+Function  
  ----- ------------  ---------------      ----- ------------  ---------------
   177     -0.187677  11 C  pz               82     -0.182740   6 O  px        
    57      0.181165   5 C  px               44      0.162451   4 H  s         
    14     -0.159971   2 C  px              406      0.158501  24 N  pz        
   381      0.156226  23 O  pz        

 Vector   40  Occ=2.000000D+00  E=-5.604944D-01
              MO Center=  6.2D-02,  2.5D+00, -7.7D-02, r^2= 1.2D+01
   Bfn.  Coefficient  Atom+Function         Bfn.  Coefficient  Atom+Function  
  ----- ------------  ---------------      ----- ------------  ---------------
    36      0.265217   3 H  s                35      0.259930   3 H  s         
    14      0.224525   2 C  px              176     -0.203620  11 C  py        
   205     -0.170013  13 H  s                15      0.167492   2 C  py        
    13     -0.164435   2 C  s         

 Vector   41  Occ=2.000000D+00  E=-5.438077D-01
              MO Center=  6.5D-02,  2.4D+00,  4.2D-01, r^2= 7.3D+00
   Bfn.  Coefficient  Atom+Function         Bfn.  Coefficient  Atom+Function  
  ----- ------------  ---------------      ----- ------------  ---------------
   206      0.251907  13 H  s                35      0.219868   3 H  s         
   205      0.214381  13 H  s               176      0.212927  11 C  py        
   163     -0.209481  10 H  s                16     -0.193713   2 C  pz        
   253      0.186076  16 O  py                1     -0.157535   1 H  s         
   108      0.156871   7 N  py              234      0.152480  15 C  py        

 Vector   42  Occ=2.000000D+00  E=-5.292072D-01
              MO Center= -9.8D-02,  6.2D-01,  5.4D-01, r^2= 7.5D+00
   Bfn.  Coefficient  Atom+Function         Bfn.  Coefficient  Atom+Function  
  ----- ------------  ---------------      ----- ------------  ---------------
   175      0.237265  11 C  px              254      0.235351  16 O  pz        
   215     -0.180274  14 H  s               257      0.174779  16 O  pz        
   205      0.164269  13 H  s               214     -0.164412  14 H  s         
   229      0.151160  15 C  pz        

 Vector   43  Occ=2.000000D+00  E=-5.228785D-01
              MO Center=  1.4D-01,  1.4D+00,  5.1D-01, r^2= 6.7D+00
   Bfn.  Coefficient  Atom+Function         Bfn.  Coefficient  Atom+Function  
  ----- ------------  ---------------      ----- ------------  ---------------
   163      0.304654  10 H  s               197     -0.231855  12 H  s         
   215      0.225587  14 H  s               196     -0.206552  12 H  s         
   139     -0.181065   9 C  s               214      0.181496  14 H  s         
   254      0.179716  16 O  pz              176      0.177953  11 C  py        
   162      0.166557  10 H  s               107     -0.150558   7 N  px        

 Vector   44  Occ=2.000000D+00  E=-4.949758D-01
              MO Center=  3.5D-01,  2.4D+00,  7.4D-03, r^2= 5.4D+00
   Bfn.  Coefficient  Atom+Function         Bfn.  Coefficient  Atom+Function  
  ----- ------------  ---------------      ----- ------------  ---------------
    84      0.284746   6 O  pz              143     -0.241904   9 C  pz        
   177      0.217827  11 C  pz               87      0.207952   6 O  pz        
    59      0.175114   5 C  pz              162      0.164273  10 H  s         

 Vector   45  Occ=2.000000D+00  E=-4.518349D-01
              MO Center=  8.4D-01, -3.4D+00, -2.8D-01, r^2= 2.8D+00
   Bfn.  Coefficient  Atom+Function         Bfn.  Coefficient  Atom+Function  
  ----- ------------  ---------------      ----- ------------  ---------------
   380      0.529082  23 O  py              383      0.422272  23 O  py        
   309      0.317160  19 C  s               139     -0.226828   9 C  s         
   402      0.226555  24 N  s               353     -0.220880  22 C  s         
   276     -0.206164  17 N  s               372     -0.197917  22 C  dyy       
   310      0.177553  19 C  s               352     -0.172951  22 C  s         

 Vector   46  Occ=2.000000D+00  E=-4.392465D-01
              MO Center=  3.8D-01, -4.2D+00, -3.4D-01, r^2= 2.7D+00
   Bfn.  Coefficient  Atom+Function         Bfn.  Coefficient  Atom+Function  
  ----- ------------  ---------------      ----- ------------  ---------------
   406     -0.420582  24 N  pz              381      0.399744  23 O  pz        
   409     -0.349775  24 N  pz              384      0.305325  23 O  pz        

 Vector   47  Occ=2.000000D+00  E=-4.345441D-01
              MO Center= -9.2D-01,  6.8D-02,  3.4D-01, r^2= 3.6D+00
   Bfn.  Coefficient  Atom+Function         Bfn.  Coefficient  Atom+Function  
  ----- ------------  ---------------      ----- ------------  ---------------
   253      0.499772  16 O  py              256      0.407165  16 O  py        
   309      0.243208  19 C  s               141      0.168379   9 C  px        
   145      0.155052   9 C  py              142      0.151377   9 C  py        

 Vector   48  Occ=2.000000D+00  E=-4.133057D-01
              MO Center=  5.5D-01,  2.8D+00, -5.3D-01, r^2= 5.6D+00
   Bfn.  Coefficient  Atom+Function         Bfn.  Coefficient  Atom+Function  
  ----- ------------  ---------------      ----- ------------  ---------------
    83      0.457011   6 O  py               13      0.430731   2 C  s         
    86      0.364117   6 O  py               56     -0.348560   5 C  s         
    64     -0.222091   5 C  py              105      0.222455   7 N  s         
   145     -0.219136   9 C  py               17     -0.174886   2 C  px        
   279     -0.173903  17 N  pz               14     -0.168293   2 C  px        

 Vector   49  Occ=2.000000D+00  E=-4.104843D-01
              MO Center= -3.4D-01, -1.6D-01, -1.1D-02, r^2= 6.7D+00
   Bfn.  Coefficient  Atom+Function         Bfn.  Coefficient  Atom+Function  
  ----- ------------  ---------------      ----- ------------  ---------------
   279      0.390458  17 N  pz              282      0.345118  17 N  pz        
   254     -0.296328  16 O  pz               13      0.245198   2 C  s         
    83      0.238257   6 O  py              257     -0.229822  16 O  pz        
    86      0.188265   6 O  py        

 Vector   50  Occ=2.000000D+00  E=-3.881893D-01
              MO Center=  2.5D-01,  2.3D+00, -7.6D-02, r^2= 3.6D+00
   Bfn.  Coefficient  Atom+Function         Bfn.  Coefficient  Atom+Function  
  ----- ------------  ---------------      ----- ------------  ---------------
   109      0.402412   7 N  pz              112      0.367508   7 N  pz        
    84     -0.306898   6 O  pz               87     -0.236770   6 O  pz        
   139      0.216096   9 C  s               174      0.169437  11 C  s         
    56     -0.150207   5 C  s         

 Vector   51  Occ=0.000000D+00  E= 2.002429D-02
              MO Center= -1.8D+00, -5.9D+00, -3.0D-01, r^2= 1.4D+01
   Bfn.  Coefficient  Atom+Function         Bfn.  Coefficient  Atom+Function  
  ----- ------------  ---------------      ----- ------------  ---------------
   234      3.316225  15 C  py              403      3.180817  24 N  s         
   353     -2.798217  22 C  s               174     -2.511437  11 C  s         
   361      2.108335  22 C  py              318      1.965582  19 C  py        
   436      1.964536  26 H  s                56     -1.711918   5 C  s         
   427      1.449975  25 H  s               411      1.316457  24 N  py        

 Vector   52  Occ=0.000000D+00  E= 3.794236D-02
              MO Center= -1.4D+00,  2.9D+00,  8.8D-01, r^2= 3.2D+01
   Bfn.  Coefficient  Atom+Function         Bfn.  Coefficient  Atom+Function  
  ----- ------------  ---------------      ----- ------------  ---------------
   174      3.785901  11 C  s               148      3.679790   9 C  py        
   106     -2.755424   7 N  s                64      2.675664   5 C  py        
    56      2.403320   5 C  s               173      2.011845  11 C  s         
     3     -1.894314   1 H  s               226      1.673445  15 C  s         
   215     -1.556456  14 H  s                46     -1.525779   4 H  s         

 Vector   53  Occ=0.000000D+00  E= 4.355770D-02
              MO Center= -8.9D-01, -6.4D-01,  5.4D-01, r^2= 3.2D+01
   Bfn.  Coefficient  Atom+Function         Bfn.  Coefficient  Atom+Function  
  ----- ------------  ---------------      ----- ------------  ---------------
   343      3.815212  21 H  s               334     -3.391136  20 H  s         
    64     -2.591832   5 C  py              319      2.513431  19 C  pz        
   149      2.260553   9 C  pz               13      1.883353   2 C  s         
    46      1.746488   4 H  s               173      1.618977  11 C  s         
   198     -1.546239  12 H  s                56     -1.461301   5 C  s         

 Vector   54  Occ=0.000000D+00  E= 4.543300D-02
              MO Center= -6.8D-01, -4.2D+00, -2.2D-01, r^2= 3.7D+01
   Bfn.  Coefficient  Atom+Function         Bfn.  Coefficient  Atom+Function  
  ----- ------------  ---------------      ----- ------------  ---------------
   427      3.401105  25 H  s               353      2.885785  22 C  s         
   309      2.293614  19 C  s               361      2.194478  22 C  py        
   334     -1.964213  20 H  s               234     -1.581170  15 C  py        
   310     -1.576936  19 C  s               343     -1.467222  21 H  s         
   436     -1.404478  26 H  s               226     -1.357850  15 C  s         

 Vector   55  Occ=0.000000D+00  E= 5.047620D-02
              MO Center=  7.4D-01, -5.2D-01, -3.2D-01, r^2= 3.4D+01
   Bfn.  Coefficient  Atom+Function         Bfn.  Coefficient  Atom+Function  
  ----- ------------  ---------------      ----- ------------  ---------------
   148      3.954460   9 C  py               64      3.168396   5 C  py        
   343      2.812270  21 H  s                56     -2.552375   5 C  s         
   436     -2.089411  26 H  s                 3     -1.941525   1 H  s         
   353     -1.934183  22 C  s               276      1.836021  17 N  s         
   361     -1.679955  22 C  py              174     -1.571260  11 C  s         

 Vector   56  Occ=0.000000D+00  E= 5.746977D-02
              MO Center= -7.4D-01,  2.9D-01,  9.2D-01, r^2= 4.0D+01
   Bfn.  Coefficient  Atom+Function         Bfn.  Coefficient  Atom+Function  
  ----- ------------  ---------------      ----- ------------  ---------------
   334      4.408682  20 H  s               207     -2.825256  13 H  s         
    46      2.809158   4 H  s               149      2.581635   9 C  pz        
   353     -2.301946  22 C  s                64     -2.015131   5 C  py        
   319     -1.967763  19 C  pz              436     -1.971661  26 H  s         
    13      1.809317   2 C  s               343     -1.725089  21 H  s         

 Vector   57  Occ=0.000000D+00  E= 5.888834D-02
              MO Center= -1.4D-01,  2.6D+00,  3.0D-02, r^2= 4.1D+01
   Bfn.  Coefficient  Atom+Function         Bfn.  Coefficient  Atom+Function  
  ----- ------------  ---------------      ----- ------------  ---------------
   310      3.818455  19 C  s                37      3.672725   3 H  s         
   174     -3.324539  11 C  s               130     -2.528939   8 H  s         
   106     -2.483403   7 N  s               216     -2.326004  14 H  s         
   343     -1.854280  21 H  s               436      1.821225  26 H  s         
    13     -1.793699   2 C  s               149      1.748351   9 C  pz        

 Vector   58  Occ=0.000000D+00  E= 6.827310D-02
              MO Center= -7.6D-01,  1.8D+00, -4.5D-01, r^2= 4.1D+01
   Bfn.  Coefficient  Atom+Function         Bfn.  Coefficient  Atom+Function  
  ----- ------------  ---------------      ----- ------------  ---------------
    13      3.824721   2 C  s                46     -3.764468   4 H  s         
   198     -3.590909  12 H  s               106     -3.480730   7 N  s         
    37      3.146998   3 H  s               234      2.767295  15 C  py        
    64     -2.647243   5 C  py              300      2.653702  18 H  s         
     3      2.291185   1 H  s               334      2.223932  20 H  s         

 Vector   59  Occ=0.000000D+00  E= 7.196632D-02
              MO Center=  2.1D-01,  1.7D+00,  6.1D-02, r^2= 3.7D+01
   Bfn.  Coefficient  Atom+Function         Bfn.  Coefficient  Atom+Function  
  ----- ------------  ---------------      ----- ------------  ---------------
    56      4.935298   5 C  s               148     -4.668138   9 C  py        
    64     -4.111672   5 C  py              164     -3.596767  10 H  s         
    37      3.550629   3 H  s                13      3.416515   2 C  s         
   310     -3.319969  19 C  s                 3     -3.133519   1 H  s         
   216      2.889118  14 H  s               343      2.848713  21 H  s         

 Vector   60  Occ=0.000000D+00  E= 7.636753D-02
              MO Center=  4.3D-01,  7.9D-01,  7.6D-01, r^2= 3.5D+01
   Bfn.  Coefficient  Atom+Function         Bfn.  Coefficient  Atom+Function  
  ----- ------------  ---------------      ----- ------------  ---------------
   198      5.385892  12 H  s                13     -4.869975   2 C  s         
   216     -4.480357  14 H  s               164     -4.357661  10 H  s         
   226      4.240552  15 C  s                56      3.691969   5 C  s         
   353     -3.348572  22 C  s               140      3.200741   9 C  s         
   234      2.817826  15 C  py              343      2.789246  21 H  s         

 Vector   61  Occ=0.000000D+00  E= 8.139816D-02
              MO Center=  8.2D-01,  8.1D-01,  1.6D+00, r^2= 3.5D+01
   Bfn.  Coefficient  Atom+Function         Bfn.  Coefficient  Atom+Function  
  ----- ------------  ---------------      ----- ------------  ---------------
   310      8.234950  19 C  s               207     -6.981128  13 H  s         
   216      4.302145  14 H  s               276     -4.171859  17 N  s         
   174     -4.059875  11 C  s               226      3.803175  15 C  s         
   106     -3.457947   7 N  s               148      3.004257   9 C  py        
   181      2.891522  11 C  px              130     -2.765612   8 H  s         

 Vector   62  Occ=0.000000D+00  E= 9.111589D-02
              MO Center= -9.3D-01,  2.5D+00,  2.9D-01, r^2= 3.3D+01
   Bfn.  Coefficient  Atom+Function         Bfn.  Coefficient  Atom+Function  
  ----- ------------  ---------------      ----- ------------  ---------------
   310      9.830535  19 C  s               130     -5.960388   8 H  s         
   148      5.711673   9 C  py              353     -5.398303  22 C  s         
   140      5.286125   9 C  s               198     -5.064814  12 H  s         
   234      4.880609  15 C  py              226      4.727358  15 C  s         
    46      4.045102   4 H  s                37     -3.982954   3 H  s         

 Vector   63  Occ=0.000000D+00  E= 1.046173D-01
              MO Center=  1.9D-01,  2.8D-01, -8.0D-01, r^2= 3.2D+01
   Bfn.  Coefficient  Atom+Function         Bfn.  Coefficient  Atom+Function  
  ----- ------------  ---------------      ----- ------------  ---------------
    56    -15.730344   5 C  s                13     14.961896   2 C  s         
    64     -6.133286   5 C  py              226     -5.810742  15 C  s         
   300     -5.438683  18 H  s               353      5.035822  22 C  s         
   148     -4.686302   9 C  py              198      4.708511  12 H  s         
    63      4.516225   5 C  px                3      3.750380   1 H  s         

 Vector   64  Occ=0.000000D+00  E= 1.063491D-01
              MO Center= -4.4D-01, -6.4D-01,  2.0D-01, r^2= 3.8D+01
   Bfn.  Coefficient  Atom+Function         Bfn.  Coefficient  Atom+Function  
  ----- ------------  ---------------      ----- ------------  ---------------
    56     13.284086   5 C  s                13    -10.894794   2 C  s         
   310    -10.372163  19 C  s               403      8.228202  24 N  s         
   361      7.161105  22 C  py              300     -6.677119  18 H  s         
   164      5.871536  10 H  s               148     -5.073523   9 C  py        
   276      4.717346  17 N  s                64      3.193472   5 C  py        

 Vector   65  Occ=0.000000D+00  E= 1.142847D-01
              MO Center= -4.1D-01, -5.9D-01, -2.3D-01, r^2= 3.5D+01
   Bfn.  Coefficient  Atom+Function         Bfn.  Coefficient  Atom+Function  
  ----- ------------  ---------------      ----- ------------  ---------------
    13     19.354484   2 C  s                56    -16.590166   5 C  s         
   353    -10.440243  22 C  s                64     -9.165656   5 C  py        
   148     -7.366829   9 C  py              403      5.986110  24 N  s         
    63      5.357993   5 C  px              318     -5.305841  19 C  py        
    20      5.088756   2 C  px              284     -4.667690  17 N  py        

 Vector   66  Occ=0.000000D+00  E= 1.220593D-01
              MO Center=  2.1D-01, -1.6D+00, -6.3D-01, r^2= 3.2D+01
   Bfn.  Coefficient  Atom+Function         Bfn.  Coefficient  Atom+Function  
  ----- ------------  ---------------      ----- ------------  ---------------
   234      9.816062  15 C  py              226     -8.609801  15 C  s         
   318      8.443074  19 C  py              164     -6.999528  10 H  s         
   310     -6.097255  19 C  s               300      6.031764  18 H  s         
   353      5.136349  22 C  s                13      5.065442   2 C  s         
   403      4.765810  24 N  s               361      4.582644  22 C  py        

 Vector   67  Occ=0.000000D+00  E= 1.257527D-01
              MO Center= -6.1D-02, -1.7D+00, -3.9D-01, r^2= 3.4D+01
   Bfn.  Coefficient  Atom+Function         Bfn.  Coefficient  Atom+Function  
  ----- ------------  ---------------      ----- ------------  ---------------
    56     22.819049   5 C  s                13    -15.150164   2 C  s         
   310    -13.920108  19 C  s               174     11.546352  11 C  s         
   234    -10.356453  15 C  py              353      9.861580  22 C  s         
   149     -6.257718   9 C  pz               63     -5.867092   5 C  px        
   114     -5.524098   7 N  py              140     -5.107160   9 C  s         

 Vector   68  Occ=0.000000D+00  E= 1.314996D-01
              MO Center= -2.4D-01, -1.4D+00,  8.2D-01, r^2= 3.2D+01
   Bfn.  Coefficient  Atom+Function         Bfn.  Coefficient  Atom+Function  
  ----- ------------  ---------------      ----- ------------  ---------------
   353     18.558943  22 C  s               174     15.164202  11 C  s         
   226    -13.231623  15 C  s               310    -12.784296  19 C  s         
    56     -9.816750   5 C  s                13      9.265765   2 C  s         
   140     -9.025649   9 C  s               276      8.222418  17 N  s         
   403     -7.457190  24 N  s               149     -5.775724   9 C  pz        

 Vector   69  Occ=0.000000D+00  E= 1.330807D-01
              MO Center= -4.1D-01, -9.4D-01, -5.6D-01, r^2= 3.0D+01
   Bfn.  Coefficient  Atom+Function         Bfn.  Coefficient  Atom+Function  
  ----- ------------  ---------------      ----- ------------  ---------------
    56     15.573468   5 C  s               174      7.560868  11 C  s         
   234     -6.778106  15 C  py              353      6.726621  22 C  s         
   310     -6.362441  19 C  s                13     -6.157440   2 C  s         
   106     -4.562629   7 N  s               148     -4.186215   9 C  py        
   343     -4.194228  21 H  s               318     -4.170253  19 C  py        

 Vector   70  Occ=0.000000D+00  E= 1.430615D-01
              MO Center= -1.5D-01,  2.8D-01,  8.3D-02, r^2= 3.3D+01
   Bfn.  Coefficient  Atom+Function         Bfn.  Coefficient  Atom+Function  
  ----- ------------  ---------------      ----- ------------  ---------------
    13     17.038738   2 C  s                64    -13.846539   5 C  py        
   174    -13.177290  11 C  s               148    -11.743339   9 C  py        
   226    -10.153761  15 C  s               149      8.602204   9 C  pz        
    56     -7.679261   5 C  s               234      7.576214  15 C  py        
   353      7.077227  22 C  s               147      5.639753   9 C  px        

 Vector   71  Occ=0.000000D+00  E= 1.493167D-01
              MO Center=  4.1D-01, -2.3D-01,  1.8D+00, r^2= 2.2D+01
   Bfn.  Coefficient  Atom+Function         Bfn.  Coefficient  Atom+Function  
  ----- ------------  ---------------      ----- ------------  ---------------
   226      9.126462  15 C  s               353     -8.953081  22 C  s         
    13      7.124700   2 C  s               276     -6.936616  17 N  s         
    64     -6.676380   5 C  py              234     -5.683360  15 C  py        
   183      5.317879  11 C  pz              403      5.336993  24 N  s         
   149      5.169040   9 C  pz              318     -5.185784  19 C  py        

 Vector   72  Occ=0.000000D+00  E= 1.524770D-01
              MO Center= -4.2D-01,  2.0D+00,  7.9D-01, r^2= 2.9D+01
   Bfn.  Coefficient  Atom+Function         Bfn.  Coefficient  Atom+Function  
  ----- ------------  ---------------      ----- ------------  ---------------
    56     16.775153   5 C  s               106     -9.654601   7 N  s         
    13     -7.955583   2 C  s                63     -5.939582   5 C  px        
   226      5.750764  15 C  s               148      5.640077   9 C  py        
   353     -4.842762  22 C  s                64      4.782194   5 C  py        
   114     -4.669959   7 N  py              173      3.789811  11 C  s         

 Vector   73  Occ=0.000000D+00  E= 1.541404D-01
              MO Center=  2.3D-01, -7.1D-01, -6.8D-01, r^2= 3.3D+01
   Bfn.  Coefficient  Atom+Function         Bfn.  Coefficient  Atom+Function  
  ----- ------------  ---------------      ----- ------------  ---------------
    56      8.872972   5 C  s               310      8.176200  19 C  s         
   106     -7.425218   7 N  s                64     -6.960614   5 C  py        
   174     -6.404079  11 C  s               353     -5.553689  22 C  s         
   361     -5.523603  22 C  py              226      5.227852  15 C  s         
   149      5.023961   9 C  pz              276     -4.371864  17 N  s         

 Vector   74  Occ=0.000000D+00  E= 1.572438D-01
              MO Center=  3.1D-02, -3.0D+00,  1.2D-01, r^2= 1.3D+01
   Bfn.  Coefficient  Atom+Function         Bfn.  Coefficient  Atom+Function  
  ----- ------------  ---------------      ----- ------------  ---------------
   174      4.279789  11 C  s               276     -3.336138  17 N  s         
   147     -2.804696   9 C  px              334     -2.378431  20 H  s         
   300     -2.315099  18 H  s               234     -2.274303  15 C  py        
   226      2.249602  15 C  s               183     -2.048864  11 C  pz        
   149     -1.941011   9 C  pz              284     -1.931127  17 N  py        

 Vector   75  Occ=0.000000D+00  E= 1.596874D-01
              MO Center= -1.9D-01,  9.2D-01,  8.8D-02, r^2= 3.6D+01
   Bfn.  Coefficient  Atom+Function         Bfn.  Coefficient  Atom+Function  
  ----- ------------  ---------------      ----- ------------  ---------------
   148     11.257688   9 C  py              234      8.543742  15 C  py        
   310      7.691264  19 C  s               318      7.566493  19 C  py        
    64      7.517616   5 C  py              276      6.947725  17 N  s         
   353      6.418332  22 C  s               361     -5.783542  22 C  py        
    56     -5.277381   5 C  s               403     -4.911364  24 N  s         

 Vector   76  Occ=0.000000D+00  E= 1.648705D-01
              MO Center=  1.3D+00,  4.4D-01, -4.4D-01, r^2= 2.4D+01
   Bfn.  Coefficient  Atom+Function         Bfn.  Coefficient  Atom+Function  
  ----- ------------  ---------------      ----- ------------  ---------------
   148      8.984293   9 C  py              174     -7.452733  11 C  s         
   164      5.305677  10 H  s               284      4.308741  17 N  py        
    56     -4.194762   5 C  s                63     -4.121515   5 C  px        
   149      3.934792   9 C  pz              182     -3.408676  11 C  py        
   207      3.189234  13 H  s               334     -3.108216  20 H  s         

 Vector   77  Occ=0.000000D+00  E= 1.694820D-01
              MO Center= -1.4D-01,  1.4D+00, -1.0D+00, r^2= 3.1D+01
   Bfn.  Coefficient  Atom+Function         Bfn.  Coefficient  Atom+Function  
  ----- ------------  ---------------      ----- ------------  ---------------
   234     12.218241  15 C  py              148     10.167648   9 C  py        
   353     10.090204  22 C  s               300      9.723699  18 H  s         
   318      8.647248  19 C  py              276      8.241599  17 N  s         
    64      7.622363   5 C  py              226     -6.675359  15 C  s         
   149     -5.551269   9 C  pz              235      4.994243  15 C  pz        

 Vector   78  Occ=0.000000D+00  E= 1.740071D-01
              MO Center= -1.0D-01,  1.3D+00,  1.6D-01, r^2= 2.4D+01
   Bfn.  Coefficient  Atom+Function         Bfn.  Coefficient  Atom+Function  
  ----- ------------  ---------------      ----- ------------  ---------------
    56     10.190410   5 C  s               148     -8.017372   9 C  py        
   234     -7.444205  15 C  py              310     -6.576987  19 C  s         
   300     -5.403936  18 H  s               114     -5.168950   7 N  py        
    65      4.196656   5 C  pz              130      3.957668   8 H  s         
   198      3.780789  12 H  s               318     -3.773699  19 C  py        

 Vector   79  Occ=0.000000D+00  E= 1.769926D-01
              MO Center= -7.9D-01, -9.3D-01, -7.9D-01, r^2= 2.5D+01
   Bfn.  Coefficient  Atom+Function         Bfn.  Coefficient  Atom+Function  
  ----- ------------  ---------------      ----- ------------  ---------------
   310     16.064545  19 C  s                56    -12.123357   5 C  s         
   174     -7.254073  11 C  s               318      6.813992  19 C  py        
    13      6.635838   2 C  s               148      6.176823   9 C  py        
   284      5.760296  17 N  py              149      5.239763   9 C  pz        
   343     -4.867619  21 H  s               164      4.651032  10 H  s         

 Vector   80  Occ=0.000000D+00  E= 1.797956D-01
              MO Center= -4.8D-01,  8.5D-01, -6.4D-02, r^2= 3.4D+01
   Bfn.  Coefficient  Atom+Function         Bfn.  Coefficient  Atom+Function  
  ----- ------------  ---------------      ----- ------------  ---------------
   310      7.247675  19 C  s               174     -6.974142  11 C  s         
   149      6.390092   9 C  pz              234      6.332009  15 C  py        
    13      4.799714   2 C  s                21     -3.937547   2 C  py        
    37      3.424042   3 H  s                64     -3.322526   5 C  py        
    65      3.187975   5 C  pz              130     -3.133243   8 H  s         

 Vector   81  Occ=0.000000D+00  E= 1.826298D-01
              MO Center=  2.2D-01,  1.1D+00,  6.8D-01, r^2= 1.9D+01
   Bfn.  Coefficient  Atom+Function         Bfn.  Coefficient  Atom+Function  
  ----- ------------  ---------------      ----- ------------  ---------------
   310      8.164029  19 C  s                56     -6.069305   5 C  s         
   234      5.798273  15 C  py              149      5.073360   9 C  pz        
   198     -4.627792  12 H  s               181      4.577397  11 C  px        
   173      4.257777  11 C  s               140      4.204975   9 C  s         
    13      4.097758   2 C  s               174     -3.987349  11 C  s         

 Vector   82  Occ=0.000000D+00  E= 1.862038D-01
              MO Center= -6.0D-01,  2.0D+00, -4.1D-01, r^2= 3.1D+01
   Bfn.  Coefficient  Atom+Function         Bfn.  Coefficient  Atom+Function  
  ----- ------------  ---------------      ----- ------------  ---------------
   235      5.594393  15 C  pz              106     -4.930166   7 N  s         
   130     -4.831013   8 H  s               149     -4.836395   9 C  pz        
    37      4.625614   3 H  s                21     -3.325714   2 C  py        
   319     -3.179870  19 C  pz              361     -3.048769  22 C  py        
   300      2.825503  18 H  s                22      2.779980   2 C  pz        

 Vector   83  Occ=0.000000D+00  E= 1.872712D-01
              MO Center= -1.2D-01, -5.5D-01,  2.1D-01, r^2= 2.6D+01
   Bfn.  Coefficient  Atom+Function         Bfn.  Coefficient  Atom+Function  
  ----- ------------  ---------------      ----- ------------  ---------------
   147      7.030939   9 C  px              353      6.625664  22 C  s         
   233     -6.428655  15 C  px              403     -5.633868  24 N  s         
   106      5.173470   7 N  s               276      5.055139  17 N  s         
    56      3.882039   5 C  s               226     -3.849268  15 C  s         
   174     -3.596714  11 C  s               360     -3.591432  22 C  px        

 Vector   84  Occ=0.000000D+00  E= 1.897004D-01
              MO Center=  4.1D-01,  1.2D+00,  7.7D-01, r^2= 2.8D+01
   Bfn.  Coefficient  Atom+Function         Bfn.  Coefficient  Atom+Function  
  ----- ------------  ---------------      ----- ------------  ---------------
   353     19.193074  22 C  s                56     14.230147   5 C  s         
   226    -11.405505  15 C  s               310     -9.977253  19 C  s         
   148     -9.903509   9 C  py              198      6.554561  12 H  s         
   182      6.406300  11 C  py              140     -6.064488   9 C  s         
    13     -5.007686   2 C  s               403     -4.821737  24 N  s         

 Vector   85  Occ=0.000000D+00  E= 1.933884D-01
              MO Center= -4.8D-02, -2.5D-01,  1.2D-01, r^2= 3.3D+01
   Bfn.  Coefficient  Atom+Function         Bfn.  Coefficient  Atom+Function  
  ----- ------------  ---------------      ----- ------------  ---------------
   234      9.425398  15 C  py              300      8.656514  18 H  s         
   106     -6.636982   7 N  s               361     -6.463758  22 C  py        
    63      5.435743   5 C  px              164     -5.225232  10 H  s         
   114      4.439043   7 N  py              276      4.251990  17 N  s         
    64     -4.059247   5 C  py              353     -3.848181  22 C  s         

 Vector   86  Occ=0.000000D+00  E= 2.005342D-01
              MO Center=  3.7D-01, -6.6D-01,  3.4D-01, r^2= 2.9D+01
   Bfn.  Coefficient  Atom+Function         Bfn.  Coefficient  Atom+Function  
  ----- ------------  ---------------      ----- ------------  ---------------
    13     12.435561   2 C  s                64    -10.909230   5 C  py        
   147      8.236148   9 C  px              174     -6.684923  11 C  s         
   276      6.104837  17 N  s               114     -5.931280   7 N  py        
   318     -5.422445  19 C  py              140     -4.835245   9 C  s         
   233     -4.780317  15 C  px              182     -4.641731  11 C  py        

 Vector   87  Occ=0.000000D+00  E= 2.032978D-01
              MO Center=  8.3D-01,  1.9D-01,  1.2D+00, r^2= 2.8D+01
   Bfn.  Coefficient  Atom+Function         Bfn.  Coefficient  Atom+Function  
  ----- ------------  ---------------      ----- ------------  ---------------
    13     12.242523   2 C  s               181      6.773989  11 C  px        
   216      6.432251  14 H  s                64     -5.992792   5 C  py        
   207     -5.464755  13 H  s                56     -4.979779   5 C  s         
   147     -4.687672   9 C  px              226     -3.949138  15 C  s         
   353      3.715962  22 C  s               198     -3.591210  12 H  s         

 Vector   88  Occ=0.000000D+00  E= 2.111744D-01
              MO Center=  1.6D-01, -2.5D+00, -1.1D-01, r^2= 2.6D+01
   Bfn.  Coefficient  Atom+Function         Bfn.  Coefficient  Atom+Function  
  ----- ------------  ---------------      ----- ------------  ---------------
   174     13.050909  11 C  s               310     -9.930374  19 C  s         
   300      5.688270  18 H  s               140     -5.496937   9 C  s         
   147     -5.285977   9 C  px              276      4.610688  17 N  s         
   198     -4.361546  12 H  s               343     -4.244783  21 H  s         
   226     -3.861958  15 C  s               353      3.836041  22 C  s         

 Vector   89  Occ=0.000000D+00  E= 2.163023D-01
              MO Center=  2.1D-02, -2.8D-01, -3.1D-01, r^2= 2.9D+01
   Bfn.  Coefficient  Atom+Function         Bfn.  Coefficient  Atom+Function  
  ----- ------------  ---------------      ----- ------------  ---------------
   353     14.167596  22 C  s                56     13.191141   5 C  s         
   310    -10.582563  19 C  s               226    -10.491532  15 C  s         
   276     10.323533  17 N  s               140     -9.275231   9 C  s         
    64     -8.904524   5 C  py              106     -7.550533   7 N  s         
   361      6.629686  22 C  py              284      5.483726  17 N  py        

 Vector   90  Occ=0.000000D+00  E= 2.179850D-01
              MO Center= -4.5D-02,  1.5D+00, -2.1D-02, r^2= 2.4D+01
   Bfn.  Coefficient  Atom+Function         Bfn.  Coefficient  Atom+Function  
  ----- ------------  ---------------      ----- ------------  ---------------
   353     11.224508  22 C  s               226     -8.667944  15 C  s         
   174      8.389905  11 C  s               403     -8.155267  24 N  s         
   361     -6.599556  22 C  py              234     -6.273083  15 C  py        
   318      6.054636  19 C  py              148      5.489354   9 C  py        
   149     -4.913512   9 C  pz              310     -4.595461  19 C  s         

 Vector   91  Occ=0.000000D+00  E= 2.213314D-01
              MO Center= -4.2D-02,  5.2D-01,  2.5D-01, r^2= 2.7D+01
   Bfn.  Coefficient  Atom+Function         Bfn.  Coefficient  Atom+Function  
  ----- ------------  ---------------      ----- ------------  ---------------
   310     29.482659  19 C  s               353    -25.009853  22 C  s         
   174    -24.523927  11 C  s                56    -19.863680   5 C  s         
   226     17.681016  15 C  s               140     15.215193   9 C  s         
   234     13.412622  15 C  py               13     13.261307   2 C  s         
   114      9.724397   7 N  py              276     -8.537643  17 N  s         

 Vector   92  Occ=0.000000D+00  E= 2.308866D-01
              MO Center= -7.8D-02,  1.7D-01,  2.7D-02, r^2= 2.7D+01
   Bfn.  Coefficient  Atom+Function         Bfn.  Coefficient  Atom+Function  
  ----- ------------  ---------------      ----- ------------  ---------------
   353     21.449160  22 C  s               226    -13.647552  15 C  s         
   234     12.035455  15 C  py              318     11.671936  19 C  py        
    13     -9.665734   2 C  s                64      9.121380   5 C  py        
   147     -6.507542   9 C  px              174      6.233521  11 C  s         
   114      5.484685   7 N  py               56     -4.970636   5 C  s         

 Vector   93  Occ=0.000000D+00  E= 2.402622D-01
              MO Center=  1.2D-01,  5.8D-02,  3.4D-01, r^2= 2.2D+01
   Bfn.  Coefficient  Atom+Function         Bfn.  Coefficient  Atom+Function  
  ----- ------------  ---------------      ----- ------------  ---------------
   353     26.351017  22 C  s                56    -21.961761   5 C  s         
   226    -17.927756  15 C  s               174     13.330116  11 C  s         
   318     12.261070  19 C  py              234     11.718779  15 C  py        
    13      8.947424   2 C  s               276      7.468265  17 N  s         
   148      6.153001   9 C  py              149     -6.099450   9 C  pz        

 Vector   94  Occ=0.000000D+00  E= 2.433917D-01
              MO Center= -3.8D-01, -1.1D-01,  9.6D-02, r^2= 2.5D+01
   Bfn.  Coefficient  Atom+Function         Bfn.  Coefficient  Atom+Function  
[...]
    13    -10.865502   2 C  s               276      9.824049  17 N  s         
    56      9.229751   5 C  s               403     -9.223804  24 N  s         
   318      8.113762  19 C  py              149     -7.964554   9 C  pz        
   140     -7.179689   9 C  s               174      6.944160  11 C  s         

 Vector  125  Occ=0.000000D+00  E= 4.129677D-01
              MO Center= -8.5D-02, -1.3D+00, -2.3D-01, r^2= 2.0D+01
   Bfn.  Coefficient  Atom+Function         Bfn.  Coefficient  Atom+Function  
  ----- ------------  ---------------      ----- ------------  ---------------
   353     16.174601  22 C  s               226     -8.850410  15 C  s         
   276     -8.673859  17 N  s               403     -7.371956  24 N  s         
   318      5.897856  19 C  py              164      5.687589  10 H  s         
   147     -5.051007   9 C  px              300     -4.874780  18 H  s         
   378     -4.787786  23 O  s               310      3.836518  19 C  s         

 Vector  126  Occ=0.000000D+00  E= 4.155893D-01
              MO Center= -2.3D-01, -8.9D-01,  2.1D-01, r^2= 1.9D+01
   Bfn.  Coefficient  Atom+Function         Bfn.  Coefficient  Atom+Function  
  ----- ------------  ---------------      ----- ------------  ---------------
   310      7.390426  19 C  s               284     -6.717726  17 N  py        
   333     -6.578241  20 H  s                13     -6.276503   2 C  s         
    56      5.774883   5 C  s                64      5.741505   5 C  py        
   140      4.992072   9 C  s               318      4.971674  19 C  py        
   361     -4.969516  22 C  py              276     -4.243716  17 N  s         

 Vector  127  Occ=0.000000D+00  E= 4.193252D-01
              MO Center= -9.2D-02, -2.4D-01,  2.8D-01, r^2= 1.6D+01
   Bfn.  Coefficient  Atom+Function         Bfn.  Coefficient  Atom+Function  
  ----- ------------  ---------------      ----- ------------  ---------------
   310     20.550553  19 C  s                56    -13.760174   5 C  s         
   234     12.009931  15 C  py              140     10.364381   9 C  s         
   318     10.027893  19 C  py              309      9.835107  19 C  s         
   276     -9.046457  17 N  s               174     -7.844677  11 C  s         
   342     -7.358844  21 H  s               333     -7.169175  20 H  s         

 Vector  128  Occ=0.000000D+00  E= 4.234994D-01
              MO Center=  2.2D-02,  1.5D+00,  4.2D-01, r^2= 1.9D+01
   Bfn.  Coefficient  Atom+Function         Bfn.  Coefficient  Atom+Function  
  ----- ------------  ---------------      ----- ------------  ---------------
    56     18.152182   5 C  s               276    -10.578061  17 N  s         
   148     -9.624122   9 C  py              353     -9.251803  22 C  s         
   318     -8.058961  19 C  py               13     -7.880520   2 C  s         
   234     -7.015018  15 C  py              226      6.530116  15 C  s         
    64      5.514575   5 C  py              300     -5.328579  18 H  s         

 Vector  129  Occ=0.000000D+00  E= 4.324243D-01
              MO Center= -1.4D-01,  7.8D-01,  4.3D-01, r^2= 1.9D+01
   Bfn.  Coefficient  Atom+Function         Bfn.  Coefficient  Atom+Function  
  ----- ------------  ---------------      ----- ------------  ---------------
    56     16.162345   5 C  s               114     -9.466138   7 N  py        
   353      8.613292  22 C  s               148     -8.226845   9 C  py        
   174     -6.801381  11 C  s                13     -6.254081   2 C  s         
   310     -6.030693  19 C  s               226     -5.536510  15 C  s         
   106      5.377570   7 N  s               197      5.064962  12 H  s         

 Vector  130  Occ=0.000000D+00  E= 4.384004D-01
              MO Center=  1.9D-02,  1.6D+00, -3.6D-01, r^2= 1.9D+01
   Bfn.  Coefficient  Atom+Function         Bfn.  Coefficient  Atom+Function  
  ----- ------------  ---------------      ----- ------------  ---------------
   310      8.443891  19 C  s               148      8.092148   9 C  py        
   163     -6.890233  10 H  s               318      6.598679  19 C  py        
   353      5.991095  22 C  s                13      5.866077   2 C  s         
   164     -5.835397  10 H  s               106     -5.713743   7 N  s         
   284      5.693595  17 N  py              147      5.585135   9 C  px        

 Vector  131  Occ=0.000000D+00  E= 4.435928D-01
              MO Center= -6.2D-01,  1.3D+00, -1.3D-01, r^2= 2.1D+01
   Bfn.  Coefficient  Atom+Function         Bfn.  Coefficient  Atom+Function  
  ----- ------------  ---------------      ----- ------------  ---------------
   113      7.386144   7 N  px              148     -5.966659   9 C  py        
   284     -5.027466  17 N  py              226     -4.733072  15 C  s         
   173      4.391401  11 C  s               309     -4.370523  19 C  s         
   318      4.061555  19 C  py              333      3.913725  20 H  s         
    13      3.666391   2 C  s               147     -3.502478   9 C  px        

 Vector  132  Occ=0.000000D+00  E= 4.470689D-01
              MO Center= -3.0D-01,  2.6D+00, -5.3D-01, r^2= 2.0D+01
   Bfn.  Coefficient  Atom+Function         Bfn.  Coefficient  Atom+Function  
  ----- ------------  ---------------      ----- ------------  ---------------
    56     13.924734   5 C  s               353    -13.639087  22 C  s         
   318    -11.200502  19 C  py              148    -10.262485   9 C  py        
   106      8.796317   7 N  s               226      7.688185  15 C  s         
   234     -7.066091  15 C  py              310     -5.738668  19 C  s         
   174     -5.634106  11 C  s                13     -5.308079   2 C  s         

 Vector  133  Occ=0.000000D+00  E= 4.558184D-01
              MO Center=  4.7D-01,  8.2D-01,  6.4D-01, r^2= 1.9D+01
   Bfn.  Coefficient  Atom+Function         Bfn.  Coefficient  Atom+Function  
  ----- ------------  ---------------      ----- ------------  ---------------
   174     19.366160  11 C  s               353     16.661403  22 C  s         
   310    -16.273791  19 C  s               226    -14.624297  15 C  s         
   215     -9.571485  14 H  s               140     -9.210625   9 C  s         
    13      8.902857   2 C  s               173      8.937727  11 C  s         
   403     -8.738451  24 N  s               276      7.598527  17 N  s         

 Vector  134  Occ=0.000000D+00  E= 4.586235D-01
              MO Center=  6.8D-02,  1.3D+00,  1.6D-02, r^2= 2.1D+01
   Bfn.  Coefficient  Atom+Function         Bfn.  Coefficient  Atom+Function  
  ----- ------------  ---------------      ----- ------------  ---------------
   310     17.558211  19 C  s               148     16.517760   9 C  py        
   353    -14.354060  22 C  s               226     12.398795  15 C  s         
   174    -11.704353  11 C  s                56    -10.210891   5 C  s         
   140      9.100524   9 C  s               403      8.399768  24 N  s         
   147      7.359235   9 C  px              106     -6.082431   7 N  s         

 Vector  135  Occ=0.000000D+00  E= 4.683913D-01
              MO Center= -5.8D-02, -3.3D-01, -1.4D-01, r^2= 2.3D+01
   Bfn.  Coefficient  Atom+Function         Bfn.  Coefficient  Atom+Function  
  ----- ------------  ---------------      ----- ------------  ---------------
    13     27.552101   2 C  s                56    -24.238062   5 C  s         
   310     14.092365  19 C  s               174    -12.722826  11 C  s         
   353    -11.123081  22 C  s                64    -10.914512   5 C  py        
   148      7.532522   9 C  py               12      7.397491   2 C  s         
   113      7.302436   7 N  px              300      6.225897  18 H  s         

 Vector  136  Occ=0.000000D+00  E= 4.711800D-01
              MO Center=  3.9D-01,  6.2D-01,  5.6D-01, r^2= 1.8D+01
   Bfn.  Coefficient  Atom+Function         Bfn.  Coefficient  Atom+Function  
  ----- ------------  ---------------      ----- ------------  ---------------
    56     20.942930   5 C  s                13    -14.038982   2 C  s         
   148    -13.250895   9 C  py              353     12.944468  22 C  s         
   226     -9.870748  15 C  s               106      7.565821   7 N  s         
   318      6.817474  19 C  py              114     -6.413708   7 N  py        
   283     -6.359332  17 N  px              197      6.182462  12 H  s         

 Vector  137  Occ=0.000000D+00  E= 4.801071D-01
              MO Center= -1.6D-01, -1.0D+00,  2.2D-01, r^2= 2.1D+01
   Bfn.  Coefficient  Atom+Function         Bfn.  Coefficient  Atom+Function  
  ----- ------------  ---------------      ----- ------------  ---------------
   234     10.381747  15 C  py              106     -6.622216   7 N  s         
   378     -5.863768  23 O  s               284     -5.506389  17 N  py        
   403      5.308234  24 N  s               361      5.276780  22 C  py        
   174      4.204137  11 C  s               215     -3.629579  14 H  s         
   173      3.315570  11 C  s               149     -3.254866   9 C  pz        

 Vector  138  Occ=0.000000D+00  E= 4.847108D-01
              MO Center=  1.5D-01,  6.8D-01,  4.1D-01, r^2= 2.1D+01
   Bfn.  Coefficient  Atom+Function         Bfn.  Coefficient  Atom+Function  
  ----- ------------  ---------------      ----- ------------  ---------------
   310     15.730501  19 C  s               174    -13.018533  11 C  s         
   234     11.120503  15 C  py               56     -9.988169   5 C  s         
    13      9.691120   2 C  s               318      8.108991  19 C  py        
   284      7.632524  17 N  py              206      6.914680  13 H  s         
   114      6.476057   7 N  py              148      6.365564   9 C  py        

 Vector  139  Occ=0.000000D+00  E= 4.900858D-01
              MO Center=  3.6D-01,  3.0D-01,  3.5D-01, r^2= 2.0D+01
   Bfn.  Coefficient  Atom+Function         Bfn.  Coefficient  Atom+Function  
  ----- ------------  ---------------      ----- ------------  ---------------
    13     17.757014   2 C  s               174    -14.608966  11 C  s         
    56    -13.101207   5 C  s               173    -10.660211  11 C  s         
   310     10.186977  19 C  s               206      9.986892  13 H  s         
   226     -9.409894  15 C  s                64     -9.292539   5 C  py        
   318      7.571922  19 C  py              234      6.798871  15 C  py        

 Vector  140  Occ=0.000000D+00  E= 4.941715D-01
              MO Center=  2.1D-01, -4.3D-01,  2.2D-01, r^2= 1.8D+01
   Bfn.  Coefficient  Atom+Function         Bfn.  Coefficient  Atom+Function  
  ----- ------------  ---------------      ----- ------------  ---------------
    56     20.503018   5 C  s               174    -14.853584  11 C  s         
    13    -14.344672   2 C  s               114    -10.576473   7 N  py        
   226      9.159545  15 C  s                12     -8.938171   2 C  s         
   284      8.311941  17 N  py              148      7.843789   9 C  py        
   149      6.913932   9 C  pz              378      6.762654  23 O  s         

 Vector  141  Occ=0.000000D+00  E= 4.990590D-01
              MO Center= -4.7D-01,  1.0D+00,  5.2D-02, r^2= 2.2D+01
   Bfn.  Coefficient  Atom+Function         Bfn.  Coefficient  Atom+Function  
  ----- ------------  ---------------      ----- ------------  ---------------
    56     16.719052   5 C  s               234    -14.780358  15 C  py        
   353    -14.267910  22 C  s               318    -11.856209  19 C  py        
   310    -10.747002  19 C  s               226     10.363221  15 C  s         
   114     -9.892147   7 N  py               13     -8.682644   2 C  s         
    12     -8.636638   2 C  s               174      8.415988  11 C  s         

 Vector  142  Occ=0.000000D+00  E= 5.006507D-01
              MO Center= -6.4D-01, -3.3D-01, -2.2D-01, r^2= 2.9D+01
   Bfn.  Coefficient  Atom+Function         Bfn.  Coefficient  Atom+Function  
  ----- ------------  ---------------      ----- ------------  ---------------
    13     45.954082   2 C  s                56    -34.640561   5 C  s         
    64    -18.612823   5 C  py              353    -14.409380  22 C  s         
   174    -13.023559  11 C  s               310     12.105867  19 C  s         
    63     11.513261   5 C  px               12     11.082209   2 C  s         
   148    -10.323846   9 C  py                2     -9.761973   1 H  s         


 center of mass
 --------------
 x =   0.02051604 y =  -0.04257811 z =  -0.02968679

 moments of inertia (a.u.)
 ------------------
        6355.583744537053           0.000000000002           0.000000000001
           0.000000000002         865.873343203436          -0.000000000000
           0.000000000001          -0.000000000000        6692.735691052089

  Mulliken analysis of the total density
  --------------------------------------

    Atom       Charge   Shell Charges
 -----------   ------   -------------------------------------------------------
    1 H    1     0.82   0.76  0.08  0.01  0.03 -0.07
    2 C    6     6.64   2.01  0.66  0.33  0.39  2.06  1.04 -0.04  0.06  0.12
    3 H    1     0.95   0.76  0.20  0.01  0.03 -0.06
    4 H    1     0.80   0.76  0.06  0.01  0.03 -0.06
    5 C    6     4.90   2.01  0.68  0.11 -0.22  1.89  0.31 -0.13  0.24  0.02
    6 O    8     8.72   2.01  0.82  0.99  0.15  2.79  1.82  0.15  0.01 -0.02
    7 N    7     7.60   2.01  0.72  0.85 -0.08  2.46  1.45  0.09  0.05  0.05
    8 H    1     1.01   0.75  0.23 -0.01  0.06 -0.03
    9 C    6     6.45   2.01  0.66  0.22  0.03  2.00  1.43 -0.17  0.14  0.14
   10 H    1     1.09   0.78  0.29  0.00  0.03 -0.01
   11 C    6     5.56   2.01  0.66  0.15  0.18  2.04  0.47 -0.01  0.07 -0.01
   12 H    1     0.90   0.78  0.16  0.01  0.03 -0.07
   13 H    1     1.01   0.76  0.27  0.00  0.03 -0.06
   14 H    1     0.89   0.77  0.16 -0.00  0.03 -0.07
   15 C    6     4.74   2.01  0.68 -0.02  0.11  1.89  0.06  0.06  0.23 -0.28
   16 O    8     8.80   2.01  0.82  1.02  0.17  2.79  1.85  0.14  0.01 -0.01
   17 N    7     7.52   2.01  0.72  0.92 -0.19  2.45  1.44  0.07  0.05  0.06
   18 H    1     1.04   0.75  0.26  0.00  0.06 -0.02
   19 C    6     6.28   2.01  0.66  0.63  0.13  2.02  0.49  0.06  0.11  0.16
   20 H    1     0.82   0.77  0.07 -0.01  0.03 -0.04
   21 H    1     0.83   0.77  0.08 -0.01  0.03 -0.04
   22 C    6     4.71   2.01  0.68  0.10  0.03  1.89 -0.01 -0.08  0.24 -0.13
   23 O    8     8.74   2.01  0.82  1.00  0.15  2.79  1.83  0.14  0.01 -0.01
   24 N    7     7.26   2.01  0.72  0.83 -0.12  2.47  1.26  0.09  0.04 -0.03
   25 H    1     0.96   0.75  0.19 -0.00  0.06 -0.03
   26 H    1     0.97   0.76  0.21 -0.01  0.05 -0.04

       Multipole analysis of the density wrt the origin
       ------------------------------------------------

     L   x y z        total         open         nuclear
     -   - - -        -----         ----         -------
     0   0 0 0     -0.000000      0.000000    100.000000

     1   1 0 0     -1.479446      0.000000     -0.000000
     1   0 1 0     -1.773328      0.000000     -0.000000
     1   0 0 1      0.419431      0.000000     -0.000000

     2   2 0 0    -65.799038      0.000000    336.915102
     2   1 1 0      1.267819      0.000000     -1.028305
     2   1 0 1      4.184478      0.000000     14.323723
     2   0 2 0    -43.018864      0.000000   3328.817756
     2   0 1 1      4.128450      0.000000      5.466566
     2   0 0 2    -58.614394      0.000000    161.778399


 Task  times  cpu:     1879.4s     wall:     2247.0s


                                NWChem Input Module
                                -------------------


 Summary of allocated global arrays
-----------------------------------
  No active global arrays


MA_summarize_allocated_blocks: starting scan ...
MA_summarize_allocated_blocks: scan completed: 0 heap blocks, 0 stack blocks
MA usage statistics:

	allocation statistics:
					      heap	     stack
					      ----	     -----
	current number of blocks	         0	         0
	maximum number of blocks	        16	        14
	current total bytes		         0	         0
	maximum total bytes		     92816	  22971464
	maximum total K-bytes		        93	     22972
	maximum total M-bytes		         1	        23


                                     CITATION
                                     --------
                Please cite the following reference when publishing
                           results obtained with NWChem:

          E. Apra, E. J. Bylaska, W. A. de Jong, N. Govind, K. Kowalski,
       T. P. Straatsma, M. Valiev, H. J. J. van Dam, Y. Alexeev, J. Anchell,
       V. Anisimov, F. W. Aquino, R. Atta-Fynn, J. Autschbach, N. P. Bauman,
     J. C. Becca, D. E. Bernholdt, K. Bhaskaran-Nair, S. Bogatko, P. Borowski,
         J. Boschen, J. Brabec, A. Bruner, E. Cauet, Y. Chen, G. N. Chuev,
      C. J. Cramer, J. Daily, M. J. O. Deegan, T. H. Dunning Jr., M. Dupuis,
   K. G. Dyall, G. I. Fann, S. A. Fischer, A. Fonari, H. Fruchtl, L. Gagliardi,
      J. Garza, N. Gawande, S. Ghosh, K. Glaesemann, A. W. Gotz, J. Hammond,
       V. Helms, E. D. Hermes, K. Hirao, S. Hirata, M. Jacquelin, L. Jensen,
   B. G. Johnson, H. Jonsson, R. A. Kendall, M. Klemm, R. Kobayashi, V. Konkov,
      S. Krishnamoorthy, M. Krishnan, Z. Lin, R. D. Lins, R. J. Littlefield,
      A. J. Logsdail, K. Lopata, W. Ma, A. V. Marenich, J. Martin del Campo,
   D. Mejia-Rodriguez, J. E. Moore, J. M. Mullin, T. Nakajima, D. R. Nascimento,
    J. A. Nichols, P. J. Nichols, J. Nieplocha, A. Otero-de-la-Roza, B. Palmer,
    A. Panyala, T. Pirojsirikul, B. Peng, R. Peverati, J. Pittner, L. Pollack,
   R. M. Richard, P. Sadayappan, G. C. Schatz, W. A. Shelton, D. W. Silverstein,
   D. M. A. Smith, T. A. Soares, D. Song, M. Swart, H. L. Taylor, G. S. Thomas,
            V. Tipparaju, D. G. Truhlar, K. Tsemekhman, T. Van Voorhis,
      A. Vazquez-Mayagoitia, P. Verma, O. Villa, A. Vishnu, K. D. Vogiatzis,
        D. Wang, J. H. Weare, M. J. Williamson, T. L. Windus, K. Wolinski,
        A. T. Wong, Q. Wu, C. Yang, Q. Yu, M. Zacharias, Z. Zhang, Y. Zhao,
                                and R. J. Harrison
                        "NWChem: Past, present, and future
                         J. Chem. Phys. 152, 184102 (2020)
                               doi:10.1063/5.0004997

                                      AUTHORS
                                      -------
  E. Apra, E. J. Bylaska, N. Govind, K. Kowalski, M. Valiev, D. Mejia-Rodriguez,
       A. Kunitsa, N. P. Bauman, A. Panyala, W. A. de Jong, T. P. Straatsma,
   H. J. J. van Dam, D. Wang, T. L. Windus, J. Hammond, J. Autschbach, A. Woods,
    K. Bhaskaran-Nair, J. Brabec, K. Lopata, S. A. Fischer, S. Krishnamoorthy,
     M. Jacquelin, W. Ma, M. Klemm, O. Villa, Y. Chen, V. Anisimov, F. Aquino,
     S. Hirata, M. T. Hackler, E. Hermes, L. Jensen, J. E. Moore, J. C. Becca,
      V. Konjkov, T. Risthaus, M. Malagoli, A. Marenich, A. Otero-de-la-Roza,
        J. Mullin, P. Nichols, R. Peverati, J. Pittner, Y. Zhao, P.-D. Fan,
        A. Fonari, M. J. Williamson, R. J. Harrison, J. R. Rehr, M. Dupuis,
     D. Silverstein, D. M. A. Smith, J. Nieplocha, V. Tipparaju, M. Krishnan,
     B. E. Van Kuiken, A. Vazquez-Mayagoitia, M. Swart, Q. Wu, T. Van Voorhis,
     A. A. Auer, M. Nooijen, L. D. Crosby, E. Brown, G. Cisneros, G. I. Fann,
   H. Fruchtl, J. Garza, K. Hirao, R. A. Kendall, J. A. Nichols, K. Tsemekhman,
    K. Wolinski, J. Anchell, D. E. Bernholdt, P. Borowski, T. Clark, D. Clerc,
   H. Dachsel, M. J. O. Deegan, K. Dyall, D. Elwood, E. Glendening, M. Gutowski,
   A. C. Hess, J. Jaffe, B. G. Johnson, J. Ju, R. Kobayashi, R. Kutteh, Z. Lin,
   R. Littlefield, X. Long, B. Meng, T. Nakajima, S. Niu, L. Pollack, M. Rosing,
   K. Glaesemann, G. Sandrone, M. Stave, H. Taylor, G. Thomas, J. H. van Lenthe,
                               A. T. Wong, Z. Zhang.

 Total times  cpu:     1879.4s     wall:     2247.4s
