export TMOUT=5400
export TMPDIR=/tmp
export PTMPDIR=/tmp/ptmp
 argument  1 = ALA_ILE_4.nw
                                         
                                         


             Northwest Computational Chemistry Package (NWChem) 7.2.0
             --------------------------------------------------------


                    Environmental Molecular Sciences Laboratory
                       Pacific Northwest National Laboratory
                                Richland, WA 99352

                              Copyright (c) 1994-2022
                       Pacific Northwest National Laboratory
                            Battelle Memorial Institute

             NWChem is an open-source computational chemistry package
                        distributed under the terms of the
                      Educational Community License (ECL) 2.0
             A copy of the license is included with this distribution
                              in the LICENSE.TXT file

                                  ACKNOWLEDGMENT
                                  --------------

            This software and its documentation were developed at the
            EMSL at Pacific Northwest National Laboratory, a multiprogram
            national laboratory, operated for the U.S. Department of Energy
            by Battelle under Contract Number DE-AC05-76RL01830. Support
            for this work was provided by the Department of Energy Office
            of Biological and Environmental Research, Office of Basic
            Energy Sciences, and the Office of Advanced Scientific Computing.


           Job information
           ---------------

    hostname        = nova18-33
    program         = /opt/rit/el9/20230413/app/linux-rhel9-x86_64_v3/gcc-11.2.1/nwchem-7.2.0-oxtctbuhfuzyfaoziquq6bki22grib3g/bin/nwchem
    date            = Fri Jun 27 15:24:26 2025

    compiled        = Wed_May_17_23:46:39_2023
    source          = /tmp/root/spack-stage/spack-stage-nwchem-7.2.0-oxtctbuhfuzyfaoziquq6bki22grib3g/spack-src
    nwchem branch   = 7.2.0
    nwchem revision = d0d141fd
    ga revision     = 5.8.0
    use scalapack   = T
    input           = ALA_ILE_4.nw
    prefix          = ALA_ILE_4.
    data base       = ./ALA_ILE_4.db
    status          = startup
    nproc           =        8
    time left       =     -1s



           Memory information
           ------------------

    heap     =   26214400 doubles =    200.0 Mbytes
    stack    =   26214397 doubles =    200.0 Mbytes
    global   =   52428800 doubles =    400.0 Mbytes (distinct from heap & stack)
    total    =  104857597 doubles =    800.0 Mbytes
    verify   = yes
    hardfail = no 


           Directory information
           ---------------------

  0 permanent = .
  0 scratch   = .




                                NWChem Input Module
                                -------------------



 Scaling coordinates for geometry "geometry" by  1.889725989
 (inverse scale =  0.529177249)

 C1  symmetry detected

          ------
          auto-z
          ------
  no constraints, skipping    0.0000000000000000     
  no constraints, skipping    0.0000000000000000     


                             Geometry "geometry" -> ""
                             -------------------------

 Output coordinates in angstroms (scale by  1.889725989 to convert to a.u.)

  No.       Tag          Charge          X              Y              Z
 ---- ---------------- ---------- -------------- -------------- --------------
    1 H                    1.0000    -1.17875089     6.07483666     0.00237231
    2 C                    6.0000    -0.97554898     5.20530787     0.62585662
    3 H                    1.0000    -1.91347488     4.78324011     0.98168636
    4 H                    1.0000    -0.35521003     5.49798357     1.47051603
    5 C                    6.0000    -0.24242936     4.17264379    -0.19879999
    6 O                    8.0000     0.02355562     4.39867412    -1.37117718
    7 N                    7.0000     0.07605253     3.03745593     0.41861949
    8 H                    1.0000    -0.21083689     2.90965993     1.37735440
    9 C                    6.0000     0.76281423     1.91026275    -0.21305994
   10 H                    1.0000     0.46773685     1.85964160    -1.26231531
   11 C                    6.0000     2.27894322     2.14731545    -0.14444581
   12 H                    1.0000     2.60115827     2.20426730     0.89600791
   13 H                    1.0000     2.80619118     1.33070734    -0.63951529
   14 H                    1.0000     2.52852301     3.08149360    -0.65037080
   15 C                    6.0000     0.36916474     0.58006452     0.45444793
   16 O                    8.0000    -0.11846821     0.56626225     1.58496312
   17 N                    7.0000     0.59638333    -0.53959431    -0.23917792
   18 H                    1.0000     1.04656049    -0.46083471    -1.14089930
   19 C                    6.0000     0.31667759    -1.90503046     0.23371723
   20 H                    1.0000     0.19914935    -1.89034269     1.31823435
   21 C                    6.0000    -1.00131202    -2.44824658    -0.38436095
   22 H                    1.0000    -0.91360742    -2.39225975    -1.47125533
   23 C                    6.0000    -1.22864867    -3.92710083    -0.00847515
   24 H                    1.0000    -0.40978014    -4.54807883    -0.36898125
   25 H                    1.0000    -1.32234002    -4.03115164     1.07322183
   26 H                    1.0000    -2.13348245    -4.30511560    -0.48238406
   27 C                    6.0000    -2.21339934    -1.58654999     0.04929943
   28 H                    1.0000    -2.30666008    -1.61319695     1.13505326
   29 H                    1.0000    -2.03995595    -0.55245363    -0.24741610
   30 C                    6.0000    -3.55620141    -1.99450645    -0.57196711
   31 H                    1.0000    -3.89350797    -2.94845589    -0.16657624
   32 H                    1.0000    -4.30440557    -1.23844417    -0.33531892
   33 H                    1.0000    -3.45868767    -2.06842523    -1.65615717
   34 C                    6.0000     1.52896469    -2.78772035    -0.09126822
   35 O                    8.0000     2.10550287    -2.68882799    -1.16868412
   36 N                    7.0000     1.93808725    -3.66010822     0.81978783
   37 H                    1.0000     2.73697272    -4.23341518     0.60192516
   38 H                    1.0000     1.46187582    -3.73143507     1.70373362

      Atomic Mass 
      ----------- 

      H                  1.007825
      C                 12.000000
      O                 15.994910
      N                 14.003070


 Effective nuclear repulsion energy (a.u.)    1280.1335295833

            Nuclear Dipole moment (a.u.) 
            ----------------------------
        X                 Y               Z
 ---------------- ---------------- ----------------
     0.0000000000    -0.0000000000     0.0000000000



                                Z-matrix (autoz)
                                -------- 

 Units are Angstrom for bonds and degrees for angles

      Type          Name      I     J     K     L     M      Value
      ----------- --------  ----- ----- ----- ----- ----- ----------
    1 Stretch                  1     2                       1.08908
    2 Stretch                  2     3                       1.08833
    3 Stretch                  2     4                       1.08809
    4 Stretch                  2     5                       1.51126
    5 Stretch                  5     6                       1.22324
    6 Stretch                  5     7                       1.33090
    7 Stretch                  7     8                       1.00887
    8 Stretch                  7     9                       1.46329
    9 Stretch                  9    10                       1.09113
   10 Stretch                  9    11                       1.53608
   11 Stretch                  9    15                       1.53947
   12 Stretch                 11    12                       1.09069
   13 Stretch                 11    13                       1.09084
   14 Stretch                 11    14                       1.09130
   15 Stretch                 15    16                       1.23128
   16 Stretch                 15    17                       1.33656
   17 Stretch                 17    18                       1.01092
   18 Stretch                 17    19                       1.47183
   19 Stretch                 19    20                       1.09097
   20 Stretch                 19    21                       1.55377
   21 Stretch                 19    34                       1.53440
   22 Stretch                 21    22                       1.09186
   23 Stretch                 21    23                       1.54272
   24 Stretch                 21    27                       1.54911
   25 Stretch                 23    24                       1.08909
   26 Stretch                 23    25                       1.09072
   27 Stretch                 23    26                       1.08913
   28 Stretch                 27    28                       1.09008
   29 Stretch                 27    29                       1.08971
   30 Stretch                 27    30                       1.53477
   31 Stretch                 30    31                       1.09002
   32 Stretch                 30    32                       1.08970
   33 Stretch                 30    33                       1.09107
   34 Stretch                 34    35                       1.22597
   35 Stretch                 34    36                       1.32607
   36 Stretch                 36    37                       1.00716
   37 Stretch                 36    38                       1.00659
   38 Bend                     1     2     3               109.63393
   39 Bend                     1     2     4               109.63493
   40 Bend                     1     2     5               108.88560
   41 Bend                     2     5     6               120.14605
   42 Bend                     2     5     7               116.47262
   43 Bend                     3     2     4               109.98906
   44 Bend                     3     2     5               109.35835
   45 Bend                     4     2     5               109.31900
   46 Bend                     5     7     8               118.74137
   47 Bend                     5     7     9               124.68634
   48 Bend                     6     5     7               123.38062
   49 Bend                     7     9    10               108.90089
   50 Bend                     7     9    11               108.96984
   51 Bend                     7     9    15               111.00285
   52 Bend                     8     7     9               116.49482
   53 Bend                     9    11    12               110.01426
   54 Bend                     9    11    13               109.95386
   55 Bend                     9    11    14               109.70176
   56 Bend                     9    15    16               120.60184
   57 Bend                     9    15    17               117.08756
   58 Bend                    10     9    11               108.48358
   59 Bend                    10     9    15               107.92177
   60 Bend                    11     9    15               111.49135
   61 Bend                    12    11    13               109.22248
   62 Bend                    12    11    14               109.26773
   63 Bend                    13    11    14               108.65579
   64 Bend                    15    17    18               118.25165
   65 Bend                    15    17    19               125.31803
   66 Bend                    16    15    17               122.30547
   67 Bend                    17    19    20               109.10991
   68 Bend                    17    19    21               110.96093
   69 Bend                    17    19    34               108.39019
   70 Bend                    18    17    19               116.32707
   71 Bend                    19    21    22               108.05435
   72 Bend                    19    21    23               111.29779
   73 Bend                    19    21    27               110.96987
   74 Bend                    19    34    35               120.74903
   75 Bend                    19    34    36               118.46966
   76 Bend                    20    19    21               107.98494
   77 Bend                    20    19    34               107.66224
   78 Bend                    21    19    34               112.63179
   79 Bend                    21    23    24               110.80109
   80 Bend                    21    23    25               110.22703
   81 Bend                    21    23    26               110.43331
   82 Bend                    21    27    28               109.40085
   83 Bend                    21    27    29               109.09292
   84 Bend                    21    27    30               115.04932
   85 Bend                    22    21    23               107.66994
   86 Bend                    22    21    27               108.23983
   87 Bend                    23    21    27               110.46994
   88 Bend                    24    23    25               109.78361
   89 Bend                    24    23    26               106.42266
   90 Bend                    25    23    26               109.08994
   91 Bend                    27    30    31               110.66021
   92 Bend                    27    30    32               109.17170
   93 Bend                    27    30    33               110.00206
   94 Bend                    28    27    29               107.94006
   95 Bend                    28    27    30               108.77412
   96 Bend                    29    27    30               106.33651
   97 Bend                    31    30    32               108.29894
   98 Bend                    31    30    33               109.75090
   99 Bend                    32    30    33               108.91530
  100 Bend                    34    36    37               118.07268
  101 Bend                    34    36    38               120.26376
  102 Bend                    35    34    36               120.78130
  103 Bend                    37    36    38               121.66049
  104 Torsion                  1     2     5     6           0.06371
  105 Torsion                  1     2     5     7        -179.64009
  106 Torsion                  2     5     7     8           2.17067
  107 Torsion                  2     5     7     9         178.85114
  108 Torsion                  3     2     5     6         119.83896
  109 Torsion                  3     2     5     7         -59.86483
  110 Torsion                  4     2     5     6        -119.68936
  111 Torsion                  4     2     5     7          60.60685
  112 Torsion                  5     7     9    10         -32.57059
  113 Torsion                  5     7     9    11          85.59622
  114 Torsion                  5     7     9    15        -151.24653
  115 Torsion                  6     5     7     8        -177.52259
  116 Torsion                  6     5     7     9          -0.84212
  117 Torsion                  7     9    11    12          61.45324
  118 Torsion                  7     9    11    13        -178.21394
  119 Torsion                  7     9    11    14         -58.77613
  120 Torsion                  7     9    15    16         -19.79695
  121 Torsion                  7     9    15    17         161.00816
  122 Torsion                  8     7     9    10         144.17737
  123 Torsion                  8     7     9    11         -97.65582
  124 Torsion                  8     7     9    15          25.50143
  125 Torsion                  9    15    17    18           2.53940
  126 Torsion                  9    15    17    19         178.69848
  127 Torsion                 10     9    11    12         179.88228
  128 Torsion                 10     9    11    13         -59.78489
  129 Torsion                 10     9    11    14          59.65291
  130 Torsion                 10     9    15    16        -139.06161
  131 Torsion                 10     9    15    17          41.74350
  132 Torsion                 11     9    15    16         101.89731
  133 Torsion                 11     9    15    17         -77.29758
  134 Torsion                 12    11     9    15         -61.41166
  135 Torsion                 13    11     9    15          58.92116
  136 Torsion                 14    11     9    15         178.35897
  137 Torsion                 15    17    19    20         -17.63603
  138 Torsion                 15    17    19    21         101.22324
  139 Torsion                 15    17    19    34        -134.60915
  140 Torsion                 16    15    17    18        -176.64070
  141 Torsion                 16    15    17    19          -0.48163
  142 Torsion                 17    19    21    22          56.22848
  143 Torsion                 17    19    21    23         174.24519
  144 Torsion                 17    19    21    27         -62.29282
  145 Torsion                 17    19    34    35         -41.80880
  146 Torsion                 17    19    34    36         138.21871
  147 Torsion                 18    17    19    20         158.58913
  148 Torsion                 18    17    19    21         -82.55160
  149 Torsion                 18    17    19    34          41.61601
  150 Torsion                 19    21    23    24         -59.97968
  151 Torsion                 19    21    23    25          61.74508
  152 Torsion                 19    21    23    26        -177.64272
  153 Torsion                 19    21    27    28         -60.47952
  154 Torsion                 19    21    27    29          57.39114
  155 Torsion                 19    21    27    30         176.75321
  156 Torsion                 19    34    36    37        -179.71924
  157 Torsion                 19    34    36    38          -0.34620
  158 Torsion                 20    19    21    22         175.76320
  159 Torsion                 20    19    21    23         -66.22009
  160 Torsion                 20    19    21    27          57.24190
  161 Torsion                 20    19    34    35        -159.70879
  162 Torsion                 20    19    34    36          20.31872
  163 Torsion                 21    19    34    35          81.35560
  164 Torsion                 21    19    34    36         -98.61689
  165 Torsion                 21    27    30    31          69.99741
  166 Torsion                 21    27    30    32        -170.90095
  167 Torsion                 21    27    30    33         -51.44226
  168 Torsion                 22    21    19    34         -65.48959
  169 Torsion                 22    21    23    24          58.26872
  170 Torsion                 22    21    23    25         179.99348
  171 Torsion                 22    21    23    26         -59.39432
  172 Torsion                 22    21    27    28        -178.88869
  173 Torsion                 22    21    27    29         -61.01803
  174 Torsion                 22    21    27    30          58.34404
  175 Torsion                 23    21    19    34          52.52712
  176 Torsion                 23    21    27    28          63.45611
  177 Torsion                 23    21    27    29        -178.67324
  178 Torsion                 23    21    27    30         -59.31117
  179 Torsion                 24    23    21    27         176.27375
  180 Torsion                 25    23    21    27         -62.00149
  181 Torsion                 26    23    21    27          58.61071
  182 Torsion                 27    21    19    34         175.98911
  183 Torsion                 28    27    30    31         -53.10465
  184 Torsion                 28    27    30    32          65.99699
  185 Torsion                 28    27    30    33        -174.54432
  186 Torsion                 29    27    30    31        -169.12272
  187 Torsion                 29    27    30    32         -50.02108
  188 Torsion                 29    27    30    33          69.43761
  189 Torsion                 35    34    36    37           0.30828
  190 Torsion                 35    34    36    38         179.68132


            XYZ format geometry
            -------------------
    38
 geometry
 H                    -1.17875089     6.07483666     0.00237231
 C                    -0.97554898     5.20530787     0.62585662
 H                    -1.91347488     4.78324011     0.98168636
 H                    -0.35521003     5.49798357     1.47051603
 C                    -0.24242936     4.17264379    -0.19879999
 O                     0.02355562     4.39867412    -1.37117718
 N                     0.07605253     3.03745593     0.41861949
 H                    -0.21083689     2.90965993     1.37735440
 C                     0.76281423     1.91026275    -0.21305994
 H                     0.46773685     1.85964160    -1.26231531
 C                     2.27894322     2.14731545    -0.14444581
 H                     2.60115827     2.20426730     0.89600791
 H                     2.80619118     1.33070734    -0.63951529
 H                     2.52852301     3.08149360    -0.65037080
 C                     0.36916474     0.58006452     0.45444793
 O                    -0.11846821     0.56626225     1.58496312
 N                     0.59638333    -0.53959431    -0.23917792
 H                     1.04656049    -0.46083471    -1.14089930
 C                     0.31667759    -1.90503046     0.23371723
 H                     0.19914935    -1.89034269     1.31823435
 C                    -1.00131202    -2.44824658    -0.38436095
 H                    -0.91360742    -2.39225975    -1.47125533
 C                    -1.22864867    -3.92710083    -0.00847515
 H                    -0.40978014    -4.54807883    -0.36898125
 H                    -1.32234002    -4.03115164     1.07322183
 H                    -2.13348245    -4.30511560    -0.48238406
 C                    -2.21339934    -1.58654999     0.04929943
 H                    -2.30666008    -1.61319695     1.13505326
 H                    -2.03995595    -0.55245363    -0.24741610
 C                    -3.55620141    -1.99450645    -0.57196711
 H                    -3.89350797    -2.94845589    -0.16657624
 H                    -4.30440557    -1.23844417    -0.33531892
 H                    -3.45868767    -2.06842523    -1.65615717
 C                     1.52896469    -2.78772035    -0.09126822
 O                     2.10550287    -2.68882799    -1.16868412
 N                     1.93808725    -3.66010822     0.81978783
 H                     2.73697272    -4.23341518     0.60192516
 H                     1.46187582    -3.73143507     1.70373362

 ==============================================================================
                                internuclear distances
 ------------------------------------------------------------------------------
       center one      |      center two      | atomic units |  angstroms
 ------------------------------------------------------------------------------
    2 C                |   1 H                |     2.05807  |     1.08908
    3 H                |   2 C                |     2.05664  |     1.08833
    4 H                |   2 C                |     2.05618  |     1.08809
    5 C                |   2 C                |     2.85587  |     1.51126
    6 O                |   5 C                |     2.31158  |     1.22324
    7 N                |   5 C                |     2.51503  |     1.33090
    8 H                |   7 N                |     1.90648  |     1.00887
    9 C                |   7 N                |     2.76522  |     1.46329
   10 H                |   9 C                |     2.06194  |     1.09113
   11 C                |   9 C                |     2.90277  |     1.53608
   12 H                |  11 C                |     2.06111  |     1.09069
   13 H                |  11 C                |     2.06139  |     1.09084
   14 H                |  11 C                |     2.06226  |     1.09130
   15 C                |   9 C                |     2.90917  |     1.53947
   16 O                |  15 C                |     2.32677  |     1.23128
   17 N                |  15 C                |     2.52572  |     1.33656
   18 H                |  17 N                |     1.91037  |     1.01092
   19 C                |  17 N                |     2.78135  |     1.47183
   20 H                |  19 C                |     2.06163  |     1.09097
   21 C                |  19 C                |     2.93620  |     1.55377
   22 H                |  21 C                |     2.06332  |     1.09186
   23 C                |  21 C                |     2.91532  |     1.54272
   24 H                |  23 C                |     2.05809  |     1.08909
   25 H                |  23 C                |     2.06116  |     1.09072
   26 H                |  23 C                |     2.05816  |     1.08913
   27 C                |  21 C                |     2.92739  |     1.54911
   28 H                |  27 C                |     2.05995  |     1.09008
   29 H                |  27 C                |     2.05926  |     1.08971
   30 C                |  27 C                |     2.90029  |     1.53477
   31 H                |  30 C                |     2.05983  |     1.09002
   32 H                |  30 C                |     2.05923  |     1.08970
   33 H                |  30 C                |     2.06183  |     1.09107
   34 C                |  19 C                |     2.89960  |     1.53440
   35 O                |  34 C                |     2.31675  |     1.22597
   36 N                |  34 C                |     2.50591  |     1.32607
   37 H                |  36 N                |     1.90325  |     1.00716
   38 H                |  36 N                |     1.90218  |     1.00659
 ------------------------------------------------------------------------------
                         number of included internuclear distances:         37
 ==============================================================================



 ==============================================================================
                                 internuclear angles
 ------------------------------------------------------------------------------
        center 1       |       center 2       |       center 3       |  degrees
 ------------------------------------------------------------------------------
    1 H                |   2 C                |   3 H                |   109.63
    1 H                |   2 C                |   4 H                |   109.63
    1 H                |   2 C                |   5 C                |   108.89
    3 H                |   2 C                |   4 H                |   109.99
    3 H                |   2 C                |   5 C                |   109.36
    4 H                |   2 C                |   5 C                |   109.32
    2 C                |   5 C                |   6 O                |   120.15
    2 C                |   5 C                |   7 N                |   116.47
    6 O                |   5 C                |   7 N                |   123.38
    5 C                |   7 N                |   8 H                |   118.74
    5 C                |   7 N                |   9 C                |   124.69
    8 H                |   7 N                |   9 C                |   116.49
    7 N                |   9 C                |  10 H                |   108.90
    7 N                |   9 C                |  11 C                |   108.97
    7 N                |   9 C                |  15 C                |   111.00
   10 H                |   9 C                |  11 C                |   108.48
   10 H                |   9 C                |  15 C                |   107.92
   11 C                |   9 C                |  15 C                |   111.49
    9 C                |  11 C                |  12 H                |   110.01
    9 C                |  11 C                |  13 H                |   109.95
    9 C                |  11 C                |  14 H                |   109.70
   12 H                |  11 C                |  13 H                |   109.22
   12 H                |  11 C                |  14 H                |   109.27
   13 H                |  11 C                |  14 H                |   108.66
    9 C                |  15 C                |  16 O                |   120.60
    9 C                |  15 C                |  17 N                |   117.09
   16 O                |  15 C                |  17 N                |   122.31
   15 C                |  17 N                |  18 H                |   118.25
   15 C                |  17 N                |  19 C                |   125.32
   18 H                |  17 N                |  19 C                |   116.33
   17 N                |  19 C                |  20 H                |   109.11
   17 N                |  19 C                |  21 C                |   110.96
   17 N                |  19 C                |  34 C                |   108.39
   20 H                |  19 C                |  21 C                |   107.98
   20 H                |  19 C                |  34 C                |   107.66
   21 C                |  19 C                |  34 C                |   112.63
   19 C                |  21 C                |  22 H                |   108.05
   19 C                |  21 C                |  23 C                |   111.30
   19 C                |  21 C                |  27 C                |   110.97
   22 H                |  21 C                |  23 C                |   107.67
   22 H                |  21 C                |  27 C                |   108.24
   23 C                |  21 C                |  27 C                |   110.47
   21 C                |  23 C                |  24 H                |   110.80
   21 C                |  23 C                |  25 H                |   110.23
   21 C                |  23 C                |  26 H                |   110.43
   24 H                |  23 C                |  25 H                |   109.78
   24 H                |  23 C                |  26 H                |   106.42
   25 H                |  23 C                |  26 H                |   109.09
   21 C                |  27 C                |  28 H                |   109.40
   21 C                |  27 C                |  29 H                |   109.09
   21 C                |  27 C                |  30 C                |   115.05
   28 H                |  27 C                |  29 H                |   107.94
   28 H                |  27 C                |  30 C                |   108.77
   29 H                |  27 C                |  30 C                |   106.34
   27 C                |  30 C                |  31 H                |   110.66
   27 C                |  30 C                |  32 H                |   109.17
   27 C                |  30 C                |  33 H                |   110.00
   31 H                |  30 C                |  32 H                |   108.30
   31 H                |  30 C                |  33 H                |   109.75
   32 H                |  30 C                |  33 H                |   108.92
   19 C                |  34 C                |  35 O                |   120.75
   19 C                |  34 C                |  36 N                |   118.47
   35 O                |  34 C                |  36 N                |   120.78
   34 C                |  36 N                |  37 H                |   118.07
   34 C                |  36 N                |  38 H                |   120.26
   37 H                |  36 N                |  38 H                |   121.66
 ------------------------------------------------------------------------------
                            number of included internuclear angles:         66
 ==============================================================================



  library name resolved from: environment
  library file name is: </opt/rit/el9/20230413/app/linux-rhel9-x86_64_v3/gcc-11.2.1/nwchem-7.2.0-oxtctbuhfuzyfaoziquq6bki22grib3g/share/nwchem/libraries/>
  


 Summary of "ao basis" -> "" (cartesian)
 ------------------------------------------------------------------------------
       Tag                 Description            Shells   Functions and Types
 ---------------- ------------------------------  ------  ---------------------
 *                        aug-cc-pvdz                 on all atoms 


                      Basis "ao basis" -> "ao basis" (cartesian)
                      -----
  H (Hydrogen)
  ------------
            Exponent  Coefficients 
       -------------- ---------------------------------------------------------
  1 S  1.30100000E+01  0.019685
  1 S  1.96200000E+00  0.137977
  1 S  4.44600000E-01  0.478148

  2 S  1.22000000E-01  1.000000

  3 S  2.97400000E-02  1.000000

  4 P  7.27000000E-01  1.000000

  5 P  1.41000000E-01  1.000000

  C (Carbon)
  ----------
            Exponent  Coefficients 
       -------------- ---------------------------------------------------------
  1 S  6.66500000E+03  0.000692
  1 S  1.00000000E+03  0.005329
  1 S  2.28000000E+02  0.027077
  1 S  6.47100000E+01  0.101718
  1 S  2.10600000E+01  0.274740
  1 S  7.49500000E+00  0.448564
  1 S  2.79700000E+00  0.285074
  1 S  5.21500000E-01  0.015204

  2 S  6.66500000E+03 -0.000146
  2 S  1.00000000E+03 -0.001154
  2 S  2.28000000E+02 -0.005725
  2 S  6.47100000E+01 -0.023312
  2 S  2.10600000E+01 -0.063955
  2 S  7.49500000E+00 -0.149981
  2 S  2.79700000E+00 -0.127262
  2 S  5.21500000E-01  0.544529

  3 S  1.59600000E-01  1.000000

  4 S  4.69000000E-02  1.000000

  5 P  9.43900000E+00  0.038109
  5 P  2.00200000E+00  0.209480
  5 P  5.45600000E-01  0.508557

  6 P  1.51700000E-01  1.000000

  7 P  4.04100000E-02  1.000000

  8 D  5.50000000E-01  1.000000

  9 D  1.51000000E-01  1.000000

  O (Oxygen)
  ----------
            Exponent  Coefficients 
       -------------- ---------------------------------------------------------
  1 S  1.17200000E+04  0.000710
  1 S  1.75900000E+03  0.005470
  1 S  4.00800000E+02  0.027837
  1 S  1.13700000E+02  0.104800
  1 S  3.70300000E+01  0.283062
  1 S  1.32700000E+01  0.448719
  1 S  5.02500000E+00  0.270952
  1 S  1.01300000E+00  0.015458

  2 S  1.17200000E+04 -0.000160
  2 S  1.75900000E+03 -0.001263
  2 S  4.00800000E+02 -0.006267
  2 S  1.13700000E+02 -0.025716
  2 S  3.70300000E+01 -0.070924
  2 S  1.32700000E+01 -0.165411
  2 S  5.02500000E+00 -0.116955
  2 S  1.01300000E+00  0.557368

  3 S  3.02300000E-01  1.000000

  4 S  7.89600000E-02  1.000000

  5 P  1.77000000E+01  0.043018
  5 P  3.85400000E+00  0.228913
  5 P  1.04600000E+00  0.508728

  6 P  2.75300000E-01  1.000000

  7 P  6.85600000E-02  1.000000

  8 D  1.18500000E+00  1.000000

  9 D  3.32000000E-01  1.000000

  N (Nitrogen)
  ------------
            Exponent  Coefficients 
       -------------- ---------------------------------------------------------
  1 S  9.04600000E+03  0.000700
  1 S  1.35700000E+03  0.005389
  1 S  3.09300000E+02  0.027406
  1 S  8.77300000E+01  0.103207
  1 S  2.85600000E+01  0.278723
  1 S  1.02100000E+01  0.448540
  1 S  3.83800000E+00  0.278238
  1 S  7.46600000E-01  0.015440

  2 S  9.04600000E+03 -0.000153
  2 S  1.35700000E+03 -0.001208
  2 S  3.09300000E+02 -0.005992
  2 S  8.77300000E+01 -0.024544
  2 S  2.85600000E+01 -0.067459
  2 S  1.02100000E+01 -0.158078
  2 S  3.83800000E+00 -0.121831
  2 S  7.46600000E-01  0.549003

  3 S  2.24800000E-01  1.000000

  4 S  6.12400000E-02  1.000000

  5 P  1.35500000E+01  0.039919
  5 P  2.91700000E+00  0.217169
  5 P  7.97300000E-01  0.510319

  6 P  2.18500000E-01  1.000000

  7 P  5.61100000E-02  1.000000

  8 D  8.17000000E-01  1.000000

  9 D  2.30000000E-01  1.000000



 Summary of "ao basis" -> "ao basis" (cartesian)
 ------------------------------------------------------------------------------
       Tag                 Description            Shells   Functions and Types
 ---------------- ------------------------------  ------  ---------------------
 H                        aug-cc-pvdz                5        9   3s2p
 C                        aug-cc-pvdz                9       25   4s3p2d
 O                        aug-cc-pvdz                9       25   4s3p2d
 N                        aug-cc-pvdz                9       25   4s3p2d


                                 NWChem SCF Module
                                 -----------------



  ao basis        = "ao basis"
  functions       =   614
  atoms           =    38
  closed shells   =    66
  open shells     =     0
  charge          =   0.00
  wavefunction    = RHF 
  input vectors   = atomic
  output vectors  = ./ALA_ILE_4.movecs
  use symmetry    = F
  symmetry adapt  = F


 Summary of "ao basis" -> "ao basis" (cartesian)
 ------------------------------------------------------------------------------
       Tag                 Description            Shells   Functions and Types
 ---------------- ------------------------------  ------  ---------------------
 H                        aug-cc-pvdz                5        9   3s2p
 C                        aug-cc-pvdz                9       25   4s3p2d
 O                        aug-cc-pvdz                9       25   4s3p2d
 N                        aug-cc-pvdz                9       25   4s3p2d



 Forming initial guess at       1.2s


 !! The overlap matrix has   7 vectors deemed linearly dependent with
    eigenvalues:
 1.96D-06 2.56D-06 4.91D-06 7.43D-06 7.56D-06 9.59D-06 9.67D-06


      Superposition of Atomic Density Guess
      -------------------------------------

 Sum of atomic energies:        -812.03184720

      Non-variational initial energy
      ------------------------------

 Total energy =    -823.418206
 1-e energy   =   -3644.149235
 2-e energy   =    1540.597500
 HOMO         =      -0.309079
 LUMO         =       0.009846


 Starting SCF solution at     242.9s



 ----------------------------------------------
         Quadratically convergent ROHF

 Convergence threshold     :          1.000E-04
 Maximum no. of iterations :           30
 Final Fock-matrix accuracy:          1.000E-10
 ----------------------------------------------


              iter       energy          gnorm     gmax       time
             ----- ------------------- --------- --------- --------
                 1     -816.5054611959  2.45D+00  1.15D-01    508.2
                 2     -816.8308792822  8.49D-01  5.45D-02   1060.9
                 3     -816.8936723247  6.26D-02  5.17D-03   1842.3
                 4     -816.8942692687  3.57D-03  3.58D-04   2912.7
                 5     -816.8942717628  7.02D-06  4.38D-07   4727.6


       Final RHF  results 
       ------------------ 

         Total SCF energy =   -816.894271762844
      One-electron energy =  -3657.416416229171
      Two-electron energy =   1560.388614883039
 Nuclear repulsion energy =   1280.133529583288

        Time for solution =   4493.2s


             Final eigenvalues
             -----------------

              1      
    1  -20.5397
    2  -20.5371
    3  -20.5155
    4  -15.6142
    5  -15.6094
    6  -15.5904
    7  -11.3726
    8  -11.3695
    9  -11.3477
   10  -11.3059
   11  -11.2977
   12  -11.2550
   13  -11.2367
   14  -11.2356
   15  -11.2350
   16  -11.2309
   17  -11.2251
   18   -1.4039
   19   -1.3944
   20   -1.3773
   21   -1.2523
   22   -1.2407
   23   -1.2390
   24   -1.1071
   25   -1.0588
   26   -1.0153
   27   -0.9879
   28   -0.9688
   29   -0.8939
   30   -0.8864
   31   -0.8283
   32   -0.8029
   33   -0.7894
   34   -0.7843
   35   -0.7613
   36   -0.7210
   37   -0.6879
   38   -0.6737
   39   -0.6559
   40   -0.6532
   41   -0.6510
   42   -0.6307
   43   -0.6212
   44   -0.6081
   45   -0.6011
   46   -0.5901
   47   -0.5801
   48   -0.5778
   49   -0.5667
   50   -0.5618
   51   -0.5519
   52   -0.5425
   53   -0.5395
   54   -0.5272
   55   -0.5229
   56   -0.5132
   57   -0.4967
   58   -0.4866
   59   -0.4766
   60   -0.4690
   61   -0.4392
   62   -0.4334
   63   -0.4271
   64   -0.4136
   65   -0.4024
   66   -0.3878
   67    0.0247
   68    0.0351
   69    0.0385
   70    0.0435
   71    0.0483
   72    0.0495
   73    0.0560
   74    0.0579
   75    0.0619
   76    0.0672

                       ROHF Final Molecular Orbital Analysis
                       -------------------------------------

 Vector   18  Occ=2.000000D+00  E=-1.403899D+00
              MO Center=  1.6D+00, -2.2D+00, -3.4D-01, r^2= 3.4D+00
   Bfn.  Coefficient  Atom+Function         Bfn.  Coefficient  Atom+Function  
  ----- ------------  ---------------      ----- ------------  ---------------
   549      0.340574  35 O  s               548      0.312102  35 O  s         
   523      0.225242  34 C  s               309     -0.164141  19 C  s         

 Vector   19  Occ=2.000000D+00  E=-1.394420D+00
              MO Center=  4.4D-01,  3.3D-02,  6.8D-01, r^2= 4.3D+00
   Bfn.  Coefficient  Atom+Function         Bfn.  Coefficient  Atom+Function  
  ----- ------------  ---------------      ----- ------------  ---------------
   250      0.331685  16 O  s               249      0.310387  16 O  s         
   224      0.215857  15 C  s               549     -0.174689  35 O  s         
   548     -0.155741  35 O  s         

 Vector   20  Occ=2.000000D+00  E=-1.377284D+00
              MO Center= -3.9D-02,  4.0D+00, -7.4D-01, r^2= 1.8D+00
   Bfn.  Coefficient  Atom+Function         Bfn.  Coefficient  Atom+Function  
  ----- ------------  ---------------      ----- ------------  ---------------
    79      0.342414   6 O  s                80      0.343995   6 O  s         
    54      0.241251   5 C  s                12      0.158676   2 C  s         

 Vector   21  Occ=2.000000D+00  E=-1.252339D+00
              MO Center=  5.1D-01, -5.6D-01,  6.2D-02, r^2= 2.0D+00
   Bfn.  Coefficient  Atom+Function         Bfn.  Coefficient  Atom+Function  
  ----- ------------  ---------------      ----- ------------  ---------------
   275      0.424135  17 N  s               274      0.338026  17 N  s         
   250     -0.220446  16 O  s               249     -0.180230  16 O  s         
   229     -0.154210  15 C  pz              298      0.151391  18 H  s         

 Vector   22  Occ=2.000000D+00  E=-1.240664D+00
              MO Center=  1.8D+00, -3.1D+00,  4.6D-01, r^2= 3.1D+00
   Bfn.  Coefficient  Atom+Function         Bfn.  Coefficient  Atom+Function  
  ----- ------------  ---------------      ----- ------------  ---------------
   574      0.377183  36 N  s               573      0.359948  36 N  s         
   549     -0.202841  35 O  s               528      0.184670  34 C  pz        
   548     -0.175574  35 O  s               606      0.166381  38 H  s         
   597      0.152307  37 H  s         

 Vector   23  Occ=2.000000D+00  E=-1.238952D+00
              MO Center=  1.8D-01,  2.9D+00,  1.0D-01, r^2= 3.3D+00
   Bfn.  Coefficient  Atom+Function         Bfn.  Coefficient  Atom+Function  
  ----- ------------  ---------------      ----- ------------  ---------------
   105      0.429741   7 N  s               104      0.337391   7 N  s         
    80     -0.210708   6 O  s                79     -0.182756   6 O  s         
    59      0.154658   5 C  pz              128      0.150499   8 H  s         

 Vector   24  Occ=2.000000D+00  E=-1.107149D+00
              MO Center= -9.5D-01, -2.0D+00, -1.1D-01, r^2= 4.0D+00
   Bfn.  Coefficient  Atom+Function         Bfn.  Coefficient  Atom+Function  
  ----- ------------  ---------------      ----- ------------  ---------------
   342      0.243892  21 C  s               309      0.238795  19 C  s         
   429      0.214319  27 C  s               428      0.175776  27 C  s         
   308      0.152008  19 C  s               376      0.152203  23 C  s         

 Vector   25  Occ=2.000000D+00  E=-1.058752D+00
              MO Center=  4.5D-01,  1.9D+00, -1.5D-02, r^2= 7.0D+00
   Bfn.  Coefficient  Atom+Function         Bfn.  Coefficient  Atom+Function  
  ----- ------------  ---------------      ----- ------------  ---------------
   138      0.233141   9 C  s               172      0.194727  11 C  s         
    12     -0.160680   2 C  s         

 Vector   26  Occ=2.000000D+00  E=-1.015339D+00
              MO Center= -1.4D+00, -1.2D+00, -8.5D-02, r^2= 8.8D+00
   Bfn.  Coefficient  Atom+Function         Bfn.  Coefficient  Atom+Function  
  ----- ------------  ---------------      ----- ------------  ---------------
   471     -0.224219  30 C  s               434      0.220286  27 C  px        
   348      0.209616  21 C  px              428     -0.187545  27 C  s         
   308      0.184033  19 C  s         

 Vector   27  Occ=2.000000D+00  E=-9.879154D-01
              MO Center= -4.9D-01,  3.6D+00,  3.2D-01, r^2= 9.7D+00
   Bfn.  Coefficient  Atom+Function         Bfn.  Coefficient  Atom+Function  
  ----- ------------  ---------------      ----- ------------  ---------------
    11      0.305965   2 C  s                56     -0.174588   5 C  s         
    55      0.150477   5 C  s         

 Vector   28  Occ=2.000000D+00  E=-9.688248D-01
              MO Center= -4.3D-01, -2.0D+00, -3.9D-03, r^2= 9.0D+00
   Bfn.  Coefficient  Atom+Function         Bfn.  Coefficient  Atom+Function  
  ----- ------------  ---------------      ----- ------------  ---------------
   349      0.290193  21 C  py              343      0.274182  21 C  s         
   376     -0.258910  23 C  s               314      0.255540  19 C  px        
   377     -0.184255  23 C  s               434     -0.180155  27 C  px        
   225      0.173996  15 C  s               308      0.171669  19 C  s         

 Vector   29  Occ=2.000000D+00  E=-8.938842D-01
              MO Center=  9.8D-01,  1.4D+00,  2.4D-05, r^2= 7.5D+00
   Bfn.  Coefficient  Atom+Function         Bfn.  Coefficient  Atom+Function  
  ----- ------------  ---------------      ----- ------------  ---------------
   144      0.240776   9 C  px              172      0.241579  11 C  s         
   309     -0.198423  19 C  s               145      0.171796   9 C  py        
   138     -0.168851   9 C  s               178      0.163956  11 C  px        

 Vector   30  Occ=2.000000D+00  E=-8.864175D-01
              MO Center= -1.4D+00, -2.4D+00, -1.7D-01, r^2= 6.5D+00
   Bfn.  Coefficient  Atom+Function         Bfn.  Coefficient  Atom+Function  
  ----- ------------  ---------------      ----- ------------  ---------------
   314      0.229885  19 C  px              343      0.215539  21 C  s         
   471      0.209584  30 C  s               309      0.178634  19 C  s         
   376      0.153041  23 C  s               342     -0.152046  21 C  s         

 Vector   31  Occ=2.000000D+00  E=-8.282512D-01
              MO Center=  7.6D-01, -1.3D+00,  2.6D-01, r^2= 1.0D+01
   Bfn.  Coefficient  Atom+Function         Bfn.  Coefficient  Atom+Function  
  ----- ------------  ---------------      ----- ------------  ---------------
   309      0.267457  19 C  s               429      0.182526  27 C  s         
   577      0.181449  36 N  py              578     -0.178747  36 N  pz        
   278      0.175951  17 N  py              523      0.175365  34 C  s         
   472     -0.165290  30 C  s               597     -0.153099  37 H  s         
   225      0.150459  15 C  s         

 Vector   32  Occ=2.000000D+00  E=-8.028699D-01
              MO Center=  3.3D-01, -8.5D-01,  1.2D-01, r^2= 7.7D+00
   Bfn.  Coefficient  Atom+Function         Bfn.  Coefficient  Atom+Function  
  ----- ------------  ---------------      ----- ------------  ---------------
   343     -0.260009  21 C  s               275      0.256182  17 N  s         
   333     -0.245155  20 H  s               298      0.237081  18 H  s         
   279     -0.227076  17 N  pz              225     -0.210934  15 C  s         
   429      0.210418  27 C  s               139     -0.162630   9 C  s         
   525     -0.159820  34 C  s               430      0.158085  27 C  s         

 Vector   33  Occ=2.000000D+00  E=-7.893811D-01
              MO Center= -5.8D-01, -5.9D-01, -2.3D-02, r^2= 1.0D+01
   Bfn.  Coefficient  Atom+Function         Bfn.  Coefficient  Atom+Function  
  ----- ------------  ---------------      ----- ------------  ---------------
   429      0.337304  27 C  s               343     -0.244415  21 C  s         
   472     -0.219044  30 C  s               377      0.212527  23 C  s         
   314      0.169302  19 C  px              366     -0.163681  22 H  s         
   342     -0.159507  21 C  s               524     -0.154355  34 C  s         
   105      0.150755   7 N  s         

 Vector   34  Occ=2.000000D+00  E=-7.843430D-01
              MO Center= -2.0D-01,  8.8D-01,  8.0D-02, r^2= 1.0D+01
   Bfn.  Coefficient  Atom+Function         Bfn.  Coefficient  Atom+Function  
  ----- ------------  ---------------      ----- ------------  ---------------
   343      0.307200  21 C  s               109      0.250502   7 N  pz        
   128      0.242945   8 H  s               429     -0.220860  27 C  s         
   105      0.209752   7 N  s               377     -0.202790  23 C  s         
    55     -0.191506   5 C  s               225      0.170898  15 C  s         
   309     -0.169454  19 C  s               163     -0.158505  10 H  s         

 Vector   35  Occ=2.000000D+00  E=-7.613401D-01
              MO Center=  1.3D+00, -2.0D+00,  4.7D-01, r^2= 7.9D+00
   Bfn.  Coefficient  Atom+Function         Bfn.  Coefficient  Atom+Function  
  ----- ------------  ---------------      ----- ------------  ---------------
   606      0.275345  38 H  s               578      0.262691  36 N  pz        
   576     -0.208969  36 N  px              597     -0.192450  37 H  s         

 Vector   36  Occ=2.000000D+00  E=-7.210421D-01
              MO Center=  7.0D-01, -1.4D-02,  3.5D-01, r^2= 1.3D+01
   Bfn.  Coefficient  Atom+Function         Bfn.  Coefficient  Atom+Function  
  ----- ------------  ---------------      ----- ------------  ---------------
   597      0.223714  37 H  s               145     -0.207051   9 C  py        
   576      0.206543  36 N  px              228      0.199584  15 C  py        
   142     -0.196994   9 C  py              225     -0.156581  15 C  s         

 Vector   37  Occ=2.000000D+00  E=-6.878952D-01
              MO Center=  4.9D-01, -1.2D+00,  9.4D-02, r^2= 7.4D+00
   Bfn.  Coefficient  Atom+Function         Bfn.  Coefficient  Atom+Function  
  ----- ------------  ---------------      ----- ------------  ---------------
   225      0.226059  15 C  s               524      0.196042  34 C  s         
   309     -0.181400  19 C  s               254     -0.172234  16 O  pz        
   332     -0.161587  20 H  s               551     -0.161295  35 O  px        
   250     -0.156672  16 O  s               311      0.153458  19 C  px        
   549     -0.151939  35 O  s         

 Vector   38  Occ=2.000000D+00  E=-6.736762D-01
              MO Center=  4.5D-01,  9.7D-01, -1.9D-01, r^2= 1.3D+01
   Bfn.  Coefficient  Atom+Function         Bfn.  Coefficient  Atom+Function  
  ----- ------------  ---------------      ----- ------------  ---------------
    84      0.207893   6 O  pz               80     -0.185491   6 O  s         
    12      0.166104   2 C  s               278     -0.163746  17 N  py        
   312      0.152534  19 C  py        

 Vector   39  Occ=2.000000D+00  E=-6.558725D-01
              MO Center= -2.5D-01,  2.1D-01, -3.6D-02, r^2= 1.0D+01
   Bfn.  Coefficient  Atom+Function         Bfn.  Coefficient  Atom+Function  
  ----- ------------  ---------------      ----- ------------  ---------------
   524      0.225426  34 C  s               315      0.178177  19 C  py        
   143     -0.162150   9 C  pz              277     -0.160235  17 N  px        
   162      0.157321  10 H  s               314     -0.153185  19 C  px        

 Vector   40  Occ=2.000000D+00  E=-6.531512D-01
              MO Center= -9.8D-02, -2.1D-01,  1.6D-01, r^2= 1.1D+01
   Bfn.  Coefficient  Atom+Function         Bfn.  Coefficient  Atom+Function  
  ----- ------------  ---------------      ----- ------------  ---------------
   343      0.237829  21 C  s               254      0.202384  16 O  pz        
   314      0.195656  19 C  px              309     -0.165204  19 C  s         
   333      0.157781  20 H  s         

 Vector   41  Occ=2.000000D+00  E=-6.510199D-01
              MO Center= -4.8D-02,  7.4D-01, -1.6D-01, r^2= 1.3D+01
   Bfn.  Coefficient  Atom+Function         Bfn.  Coefficient  Atom+Function  
  ----- ------------  ---------------      ----- ------------  ---------------
    84      0.202385   6 O  pz               80     -0.163721   6 O  s         
    58      0.157189   5 C  py              278      0.152532  17 N  py        

 Vector   42  Occ=2.000000D+00  E=-6.307215D-01
              MO Center= -2.5D-01,  9.8D-02, -5.8D-02, r^2= 1.3D+01
   Bfn.  Coefficient  Atom+Function         Bfn.  Coefficient  Atom+Function  
  ----- ------------  ---------------      ----- ------------  ---------------
   173      0.244033  11 C  s               343     -0.207828  21 C  s         
   430      0.176301  27 C  s               553      0.152977  35 O  pz        

 Vector   43  Occ=2.000000D+00  E=-6.211608D-01
              MO Center= -2.3D-02,  1.6D+00,  2.1D-02, r^2= 1.4D+01
   Bfn.  Coefficient  Atom+Function         Bfn.  Coefficient  Atom+Function  
  ----- ------------  ---------------      ----- ------------  ---------------
   139      0.399564   9 C  s               173     -0.280777  11 C  s         
   343     -0.232115  21 C  s               377      0.207402  23 C  s         
    14      0.194823   2 C  px              225     -0.181424  15 C  s         
   314     -0.163527  19 C  px               59      0.152747   5 C  pz        

 Vector   44  Occ=2.000000D+00  E=-6.081430D-01
              MO Center=  4.8D-01, -5.0D-01, -3.1D-02, r^2= 1.1D+01
   Bfn.  Coefficient  Atom+Function         Bfn.  Coefficient  Atom+Function  
  ----- ------------  ---------------      ----- ------------  ---------------
   553      0.250339  35 O  pz              254      0.189899  16 O  pz        
   526      0.155310  34 C  px              528     -0.150714  34 C  pz        

 Vector   45  Occ=2.000000D+00  E=-6.010923D-01
              MO Center= -3.5D-01,  3.1D-01,  8.4D-02, r^2= 1.4D+01
   Bfn.  Coefficient  Atom+Function         Bfn.  Coefficient  Atom+Function  
  ----- ------------  ---------------      ----- ------------  ---------------
   524     -0.162045  34 C  s               314      0.150343  19 C  px        

 Vector   46  Occ=2.000000D+00  E=-5.901002D-01
              MO Center= -7.1D-01,  2.8D-01,  1.6D-01, r^2= 1.4D+01
   Bfn.  Coefficient  Atom+Function         Bfn.  Coefficient  Atom+Function  
  ----- ------------  ---------------      ----- ------------  ---------------
   229      0.182970  15 C  pz              419     -0.164514  26 H  s         
   252      0.160701  16 O  px        

 Vector   47  Occ=2.000000D+00  E=-5.801192D-01
              MO Center= -3.4D-01, -9.4D-01, -2.6D-01, r^2= 1.5D+01
   Bfn.  Coefficient  Atom+Function         Bfn.  Coefficient  Atom+Function  
  ----- ------------  ---------------      ----- ------------  ---------------
   504      0.184726  32 H  s               526      0.177989  34 C  px        
   553      0.160601  35 O  pz        

 Vector   48  Occ=2.000000D+00  E=-5.777818D-01
              MO Center=  6.4D-01,  5.9D-01, -1.3D-01, r^2= 1.4D+01
   Bfn.  Coefficient  Atom+Function         Bfn.  Coefficient  Atom+Function  
  ----- ------------  ---------------      ----- ------------  ---------------
   205      0.171813  13 H  s                84      0.165321   6 O  pz        
   176     -0.159256  11 C  py               59     -0.158011   5 C  pz        
   206      0.153806  13 H  s         

 Vector   49  Occ=2.000000D+00  E=-5.667147D-01
              MO Center=  2.6D-02, -2.3D+00,  1.3D-01, r^2= 8.0D+00
   Bfn.  Coefficient  Atom+Function         Bfn.  Coefficient  Atom+Function  
  ----- ------------  ---------------      ----- ------------  ---------------
   381      0.250677  23 C  pz              409      0.232782  25 H  s         
   332     -0.223896  20 H  s               313     -0.220639  19 C  pz        
   333     -0.193165  20 H  s               410      0.179412  25 H  s         
   530      0.150654  34 C  py              553     -0.151174  35 O  pz        

 Vector   50  Occ=2.000000D+00  E=-5.618265D-01
              MO Center= -2.2D-01,  4.1D+00,  2.6D-04, r^2= 6.6D+00
   Bfn.  Coefficient  Atom+Function         Bfn.  Coefficient  Atom+Function  
  ----- ------------  ---------------      ----- ------------  ---------------
     2      0.264917   1 H  s                 1      0.234705   1 H  s         
    84     -0.231076   6 O  pz               16     -0.227420   2 C  pz        
    35     -0.216457   3 H  s                59      0.175631   5 C  pz        
    15      0.174451   2 C  py        

 Vector   51  Occ=2.000000D+00  E=-5.519171D-01
              MO Center= -5.1D-01,  1.5D+00,  1.6D-01, r^2= 1.7D+01
   Bfn.  Coefficient  Atom+Function         Bfn.  Coefficient  Atom+Function  
  ----- ------------  ---------------      ----- ------------  ---------------
     1      0.196640   1 H  s                13     -0.195774   2 C  s         
   141      0.179193   9 C  px               14     -0.177690   2 C  px        
    44     -0.171029   4 H  s               419      0.165833  26 H  s         
   418      0.160129  26 H  s                 2      0.155127   1 H  s         

 Vector   52  Occ=2.000000D+00  E=-5.424510D-01
              MO Center=  9.0D-01,  1.9D+00,  1.5D-01, r^2= 8.7D+00
   Bfn.  Coefficient  Atom+Function         Bfn.  Coefficient  Atom+Function  
  ----- ------------  ---------------      ----- ------------  ---------------
   215      0.273086  14 H  s               214      0.267491  14 H  s         
   176      0.265167  11 C  py              253      0.204774  16 O  py        
   309     -0.186731  19 C  s               163     -0.174176  10 H  s         
   256      0.159417  16 O  py              206     -0.153225  13 H  s         

 Vector   53  Occ=2.000000D+00  E=-5.394819D-01
              MO Center= -1.8D+00, -2.9D+00, -3.1D-01, r^2= 6.8D+00
   Bfn.  Coefficient  Atom+Function         Bfn.  Coefficient  Atom+Function  
  ----- ------------  ---------------      ----- ------------  ---------------
   430     -0.297316  27 C  s               379      0.292420  23 C  px        
   401      0.286006  24 H  s               419     -0.273059  26 H  s         
   400      0.253974  24 H  s               505     -0.252731  32 H  s         
   504     -0.238015  32 H  s               475     -0.223949  30 C  py        
   418     -0.196404  26 H  s               315      0.187843  19 C  py        

 Vector   54  Occ=2.000000D+00  E=-5.271584D-01
              MO Center=  1.0D-01,  7.6D-01,  4.7D-02, r^2= 1.2D+01
   Bfn.  Coefficient  Atom+Function         Bfn.  Coefficient  Atom+Function  
  ----- ------------  ---------------      ----- ------------  ---------------
   177      0.214495  11 C  pz              197      0.212736  12 H  s         
   430      0.211145  27 C  s               196      0.179400  12 H  s         
   346     -0.161779  21 C  py              234      0.151591  15 C  py        

 Vector   55  Occ=2.000000D+00  E=-5.228913D-01
              MO Center=  2.6D-01,  1.3D+00,  9.7D-02, r^2= 1.0D+01
   Bfn.  Coefficient  Atom+Function         Bfn.  Coefficient  Atom+Function  
  ----- ------------  ---------------      ----- ------------  ---------------
   163      0.294638  10 H  s               197      0.208303  12 H  s         
   206     -0.193920  13 H  s               252      0.186241  16 O  px        
   205     -0.184692  13 H  s               177      0.170100  11 C  pz        
   196      0.167928  12 H  s         

 Vector   56  Occ=2.000000D+00  E=-5.131603D-01
              MO Center= -2.0D+00, -2.2D+00, -2.5D-01, r^2= 5.8D+00
   Bfn.  Coefficient  Atom+Function         Bfn.  Coefficient  Atom+Function  
  ----- ------------  ---------------      ----- ------------  ---------------
   476      0.255284  30 C  pz              513     -0.223881  33 H  s         
   473     -0.201475  30 C  s               381      0.189268  23 C  pz        
   347     -0.184570  21 C  pz              409      0.184102  25 H  s         
   433     -0.179748  27 C  pz              333      0.177103  20 H  s         
   514     -0.175638  33 H  s               366      0.169222  22 H  s         

 Vector   57  Occ=2.000000D+00  E=-4.966779D-01
              MO Center=  7.9D-02,  2.8D+00, -2.9D-01, r^2= 8.2D+00
   Bfn.  Coefficient  Atom+Function         Bfn.  Coefficient  Atom+Function  
  ----- ------------  ---------------      ----- ------------  ---------------
    82      0.264837   6 O  px               85      0.192839   6 O  px        
   141     -0.192512   9 C  px              175      0.188663  11 C  px        
    57      0.167351   5 C  px              162      0.151452  10 H  s         

 Vector   58  Occ=2.000000D+00  E=-4.865651D-01
              MO Center= -1.1D+00, -1.7D+00, -3.4D-02, r^2= 7.3D+00
   Bfn.  Coefficient  Atom+Function         Bfn.  Coefficient  Atom+Function  
  ----- ------------  ---------------      ----- ------------  ---------------
   343      0.333996  21 C  s               472     -0.270485  30 C  s         
   431      0.242627  27 C  px              474     -0.242220  30 C  px        
   314      0.237155  19 C  px              477     -0.230444  30 C  px        
   345     -0.217521  21 C  px              462      0.179408  29 H  s         
   252     -0.174280  16 O  px              315      0.166663  19 C  py        

 Vector   59  Occ=2.000000D+00  E=-4.766380D-01
              MO Center= -1.8D+00, -2.1D+00, -1.5D-01, r^2= 3.8D+00
   Bfn.  Coefficient  Atom+Function         Bfn.  Coefficient  Atom+Function  
  ----- ------------  ---------------      ----- ------------  ---------------
   462     -0.310455  29 H  s               453      0.298284  28 H  s         
   452      0.268804  28 H  s               367      0.264085  22 H  s         
   433      0.255691  27 C  pz              366      0.249788  22 H  s         
   347     -0.244260  21 C  pz              514      0.206013  33 H  s         
   383     -0.181639  23 C  py              496     -0.172490  31 H  s         

 Vector   60  Occ=2.000000D+00  E=-4.689506D-01
              MO Center= -1.6D+00, -2.1D+00, -2.9D-01, r^2= 5.1D+00
   Bfn.  Coefficient  Atom+Function         Bfn.  Coefficient  Atom+Function  
  ----- ------------  ---------------      ----- ------------  ---------------
   462      0.314775  29 H  s               432      0.297495  27 C  py        
   461      0.256873  29 H  s               346     -0.232142  21 C  py        
   430     -0.211622  27 C  s               505     -0.211945  32 H  s         
   380      0.206650  23 C  py              314      0.203338  19 C  px        
   309     -0.192183  19 C  s               348      0.190575  21 C  px        

 Vector   61  Occ=2.000000D+00  E=-4.392004D-01
              MO Center=  1.1D+00, -2.0D+00, -3.7D-01, r^2= 5.5D+00
   Bfn.  Coefficient  Atom+Function         Bfn.  Coefficient  Atom+Function  
  ----- ------------  ---------------      ----- ------------  ---------------
   551      0.348514  35 O  px              554      0.272142  35 O  px        
   552     -0.255617  35 O  py              524      0.248924  34 C  s         
   529     -0.233221  34 C  px              530      0.220398  34 C  py        
   555     -0.208734  35 O  py              314     -0.201491  19 C  px        
   378      0.193804  23 C  s               309     -0.176905  19 C  s         

 Vector   62  Occ=2.000000D+00  E=-4.334417D-01
              MO Center=  5.2D-01,  5.0D-02,  7.3D-01, r^2= 6.1D+00
   Bfn.  Coefficient  Atom+Function         Bfn.  Coefficient  Atom+Function  
  ----- ------------  ---------------      ----- ------------  ---------------
   253      0.457341  16 O  py              256      0.371863  16 O  py        
   551     -0.163775  35 O  px              142      0.152552   9 C  py        
   275      0.150351  17 N  s         

 Vector   63  Occ=2.000000D+00  E=-4.271364D-01
              MO Center=  1.5D+00, -2.6D+00, -1.6D-02, r^2= 5.3D+00
   Bfn.  Coefficient  Atom+Function         Bfn.  Coefficient  Atom+Function  
  ----- ------------  ---------------      ----- ------------  ---------------
   552      0.351731  35 O  py              430      0.322738  27 C  s         
   555      0.282649  35 O  py              577     -0.238423  36 N  py        
   576     -0.235527  36 N  px              351      0.223369  21 C  px        
   579     -0.215366  36 N  px              309      0.204635  19 C  s         
   580     -0.201085  36 N  py              253      0.185872  16 O  py        

 Vector   64  Occ=2.000000D+00  E=-4.136050D-01
              MO Center= -1.2D-01,  4.3D+00, -8.3D-01, r^2= 2.4D+00
   Bfn.  Coefficient  Atom+Function         Bfn.  Coefficient  Atom+Function  
  ----- ------------  ---------------      ----- ------------  ---------------
    83      0.475835   6 O  py               86      0.379489   6 O  py        
    13      0.290451   2 C  s                82     -0.265591   6 O  px        
   105      0.238059   7 N  s                85     -0.208868   6 O  px        
    64     -0.178347   5 C  py              234     -0.176205  15 C  py        
    19      0.174688   2 C  pz               16      0.168451   2 C  pz        

 Vector   65  Occ=2.000000D+00  E=-4.023937D-01
              MO Center=  3.0D-01, -1.7D-01,  1.6D-01, r^2= 6.1D+00
   Bfn.  Coefficient  Atom+Function         Bfn.  Coefficient  Atom+Function  
  ----- ------------  ---------------      ----- ------------  ---------------
   277      0.335774  17 N  px              280      0.303606  17 N  px        
   252     -0.261619  16 O  px              255     -0.208476  16 O  px        
   279      0.164862  17 N  pz              311     -0.162333  19 C  px        
   282      0.155319  17 N  pz        

 Vector   66  Occ=2.000000D+00  E=-3.877807D-01
              MO Center=  2.6D-01,  2.7D+00, -1.6D-01, r^2= 4.9D+00
   Bfn.  Coefficient  Atom+Function         Bfn.  Coefficient  Atom+Function  
  ----- ------------  ---------------      ----- ------------  ---------------
   107      0.367869   7 N  px              110      0.343098   7 N  px        
    82     -0.280561   6 O  px               85     -0.217397   6 O  px        
   174      0.187315  11 C  s               139      0.181228   9 C  s         
   277      0.159773  17 N  px              108      0.153432   7 N  py        
   280      0.152787  17 N  px        

 Vector   67  Occ=0.000000D+00  E= 2.469384D-02
              MO Center=  1.5D+00, -4.8D+00,  2.2D+00, r^2= 1.8D+01
   Bfn.  Coefficient  Atom+Function         Bfn.  Coefficient  Atom+Function  
  ----- ------------  ---------------      ----- ------------  ---------------
   575      3.710110  36 N  s               525     -2.447248  34 C  s         
   533      2.075025  34 C  py              318      2.039876  19 C  py        
   608      1.908700  38 H  s               599      1.680356  37 H  s         
   473     -1.609988  30 C  s               310     -1.367059  19 C  s         
   377     -1.288409  23 C  s               317     -1.238837  19 C  px        

 Vector   68  Occ=0.000000D+00  E= 3.507171D-02
              MO Center= -3.2D+00,  5.9D-01,  4.6D-01, r^2= 3.6D+01
   Bfn.  Coefficient  Atom+Function         Bfn.  Coefficient  Atom+Function  
  ----- ------------  ---------------      ----- ------------  ---------------
   506      2.538120  32 H  s               463     -2.323555  29 H  s         
   351      2.282847  21 C  px              148     -1.915367   9 C  py        
   437      1.853231  27 C  px               37      1.761534   3 H  s         
    12     -1.752445   2 C  s                64     -1.603103   5 C  py        
   378     -1.562587  23 C  s               430      1.547638  27 C  s         

 Vector   69  Occ=0.000000D+00  E= 3.845701D-02
              MO Center= -6.7D-01,  4.8D-01,  9.6D-01, r^2= 4.9D+01
   Bfn.  Coefficient  Atom+Function         Bfn.  Coefficient  Atom+Function  
  ----- ------------  ---------------      ----- ------------  ---------------
   148      3.599023   9 C  py              106     -2.681132   7 N  s         
   234      2.226216  15 C  py              318      2.226152  19 C  py        
    64      2.194536   5 C  py              174      2.033349  11 C  s         
   319      1.865520  19 C  pz               46     -1.761973   4 H  s         
   420      1.716051  26 H  s               317      1.564678  19 C  px        

 Vector   70  Occ=0.000000D+00  E= 4.349077D-02
              MO Center= -2.0D-01, -2.9D+00, -1.2D-01, r^2= 3.3D+01
   Bfn.  Coefficient  Atom+Function         Bfn.  Coefficient  Atom+Function  
  ----- ------------  ---------------      ----- ------------  ---------------
   411      2.527366  25 H  s               515     -1.911035  33 H  s         
   402     -1.794584  24 H  s               599     -1.765798  37 H  s         
   148     -1.621224   9 C  py               13      1.452958   2 C  s         
   420     -1.318622  26 H  s               174      1.301282  11 C  s         
   387     -1.268858  23 C  pz              575     -1.191252  36 N  s         

 Vector   71  Occ=0.000000D+00  E= 4.832159D-02
              MO Center= -1.3D+00, -8.4D-01,  4.9D-01, r^2= 4.9D+01
   Bfn.  Coefficient  Atom+Function         Bfn.  Coefficient  Atom+Function  
  ----- ------------  ---------------      ----- ------------  ---------------
   420      3.058011  26 H  s               352      2.917257  21 C  py        
   430     -2.756661  27 C  s               506     -2.591047  32 H  s         
    46      2.152415   4 H  s               353     -2.082288  21 C  pz        
   351     -1.888279  21 C  px              368     -1.849008  22 H  s         
   377     -1.843963  23 C  s               386      1.793720  23 C  py        

 Vector   72  Occ=0.000000D+00  E= 4.946648D-02
              MO Center=  1.0D+00,  1.7D+00,  4.0D-01, r^2= 4.4D+01
   Bfn.  Coefficient  Atom+Function         Bfn.  Coefficient  Atom+Function  
  ----- ------------  ---------------      ----- ------------  ---------------
    64      3.253756   5 C  py              147     -2.900270   9 C  px        
    12      2.136752   2 C  s                56     -2.053595   5 C  s         
   402     -2.035214  24 H  s               173     -1.939123  11 C  s         
   148      1.908919   9 C  py               63     -1.858996   5 C  px        
   533     -1.822760  34 C  py              207      1.722055  13 H  s         

 Vector   73  Occ=0.000000D+00  E= 5.598909D-02
              MO Center= -6.6D-01, -1.4D+00, -2.4D-01, r^2= 4.3D+01
   Bfn.  Coefficient  Atom+Function         Bfn.  Coefficient  Atom+Function  
  ----- ------------  ---------------      ----- ------------  ---------------
   147      2.332686   9 C  px              497     -2.329656  31 H  s         
   164      2.294231  10 H  s               599     -2.297745  37 H  s         
   174     -2.284444  11 C  s               608      2.191752  38 H  s         
   515      1.983440  33 H  s               506     -1.909251  32 H  s         
     3      1.848547   1 H  s               411      1.558750  25 H  s         

 Vector   74  Occ=0.000000D+00  E= 5.794068D-02
              MO Center=  3.2D-01,  1.2D+00, -1.6D-01, r^2= 4.5D+01
   Bfn.  Coefficient  Atom+Function         Bfn.  Coefficient  Atom+Function  
  ----- ------------  ---------------      ----- ------------  ---------------
   411      3.242344  25 H  s               334     -3.005881  20 H  s         
   515     -2.973641  33 H  s               216      2.806618  14 H  s         
   352      2.633416  21 C  py                3      2.422849   1 H  s         
   130     -2.138331   8 H  s               319      2.015996  19 C  pz        
   198     -1.980582  12 H  s               207      1.908982  13 H  s         

 Vector   75  Occ=0.000000D+00  E= 6.187077D-02
              MO Center= -1.8D+00, -3.4D-01,  1.5D-02, r^2= 4.6D+01
   Bfn.  Coefficient  Atom+Function         Bfn.  Coefficient  Atom+Function  
  ----- ------------  ---------------      ----- ------------  ---------------
   454      3.230666  28 H  s               402      2.663965  24 H  s         
     3     -2.533187   1 H  s               497     -2.412021  31 H  s         
   437     -2.211887  27 C  px               64      2.035337   5 C  py        
    56     -2.023763   5 C  s                37      2.000575   3 H  s         
   439     -1.936062  27 C  pz              130      1.810966   8 H  s         

 Vector   76  Occ=0.000000D+00  E= 6.724550D-02
              MO Center= -1.2D-01,  1.4D+00,  9.4D-01, r^2= 4.7D+01
   Bfn.  Coefficient  Atom+Function         Bfn.  Coefficient  Atom+Function  
  ----- ------------  ---------------      ----- ------------  ---------------
   420     -3.936196  26 H  s                46      3.813425   4 H  s         
    56     -3.707152   5 C  s               174      3.145190  11 C  s         
   411      2.407775  25 H  s                37     -2.291192   3 H  s         
     3     -2.156010   1 H  s               198     -2.090007  12 H  s         
   368      1.944923  22 H  s               114      1.754133   7 N  py        

 Vector   77  Occ=0.000000D+00  E= 6.925614D-02
              MO Center= -9.0D-01, -6.9D-01,  3.7D-01, r^2= 4.7D+01
   Bfn.  Coefficient  Atom+Function         Bfn.  Coefficient  Atom+Function  
  ----- ------------  ---------------      ----- ------------  ---------------
   334      4.893125  20 H  s               368      3.385969  22 H  s         
   378      3.241859  23 C  s               463     -3.160522  29 H  s         
   402     -2.836245  24 H  s               473     -2.849668  30 C  s         
   506     -2.718978  32 H  s                56      2.513859   5 C  s         
   234      2.488128  15 C  py              216     -2.334417  14 H  s         

 Vector   78  Occ=0.000000D+00  E= 7.528453D-02
              MO Center= -1.3D+00,  8.4D-01,  7.2D-01, r^2= 5.0D+01
   Bfn.  Coefficient  Atom+Function         Bfn.  Coefficient  Atom+Function  
  ----- ------------  ---------------      ----- ------------  ---------------
    13      5.106246   2 C  s               454      4.311338  28 H  s         
     3      4.171240   1 H  s               402      3.750217  24 H  s         
    64     -3.120821   5 C  py              439     -3.117060  27 C  pz        
   207     -3.073420  13 H  s               473     -2.741255  30 C  s         
   525     -2.713818  34 C  s                37     -2.670733   3 H  s         

 Vector   79  Occ=0.000000D+00  E= 7.711400D-02
              MO Center=  5.4D-01,  4.0D-01,  2.5D-02, r^2= 4.3D+01
   Bfn.  Coefficient  Atom+Function         Bfn.  Coefficient  Atom+Function  
  ----- ------------  ---------------      ----- ------------  ---------------
   463      5.107311  29 H  s               216     -5.047378  14 H  s         
   454     -4.955691  28 H  s                13      4.845496   2 C  s         
   234     -4.579793  15 C  py              198      4.555699  12 H  s         
   411      4.571168  25 H  s               430     -4.466104  27 C  s         
   318     -4.397069  19 C  py              378     -4.052515  23 C  s         

 Vector   80  Occ=0.000000D+00  E= 8.114053D-02
              MO Center= -2.1D-01,  1.0D-01, -5.5D-01, r^2= 4.5D+01
   Bfn.  Coefficient  Atom+Function         Bfn.  Coefficient  Atom+Function  
  ----- ------------  ---------------      ----- ------------  ---------------
   411      5.237449  25 H  s               164     -4.502602  10 H  s         
   420     -4.121781  26 H  s               351      4.069568  21 C  px        
   207      3.744531  13 H  s                56      3.456336   5 C  s         
   368      3.268267  22 H  s               149     -3.005425   9 C  pz        
   216     -2.770373  14 H  s               353      2.782547  21 C  pz        

 Vector   81  Occ=0.000000D+00  E= 8.380299D-02
              MO Center= -1.1D+00, -1.7D+00, -6.3D-01, r^2= 4.2D+01
   Bfn.  Coefficient  Atom+Function         Bfn.  Coefficient  Atom+Function  
  ----- ------------  ---------------      ----- ------------  ---------------
   515      5.318335  33 H  s               411      3.504158  25 H  s         
   506     -3.505806  32 H  s               402     -3.132123  24 H  s         
   463      3.092893  29 H  s               497     -2.985853  31 H  s         
   608     -2.863799  38 H  s               368     -2.837984  22 H  s         
   216      2.486603  14 H  s               599      2.438280  37 H  s         

 Vector   82  Occ=0.000000D+00  E= 8.820260D-02
              MO Center=  2.4D-01, -3.4D-01,  1.7D-01, r^2= 4.3D+01
   Bfn.  Coefficient  Atom+Function         Bfn.  Coefficient  Atom+Function  
  ----- ------------  ---------------      ----- ------------  ---------------
   334      7.785745  20 H  s               368     -6.072184  22 H  s         
   207      4.197599  13 H  s               463      3.820998  29 H  s         
   198     -3.766307  12 H  s               454     -3.472444  28 H  s         
   608     -3.115344  38 H  s                37     -2.984398   3 H  s         
   353     -2.710182  21 C  pz              497     -2.506831  31 H  s         

 Vector   83  Occ=0.000000D+00  E= 9.384155D-02
              MO Center= -1.9D+00, -7.1D-01,  1.4D-01, r^2= 4.3D+01
   Bfn.  Coefficient  Atom+Function         Bfn.  Coefficient  Atom+Function  
  ----- ------------  ---------------      ----- ------------  ---------------
   420      8.074139  26 H  s               463      6.736248  29 H  s         
   402     -5.530067  24 H  s               334     -4.151477  20 H  s         
   497     -4.066689  31 H  s               438     -3.778781  27 C  py        
   130     -3.474565   8 H  s               515     -3.250300  33 H  s         
    46      3.217210   4 H  s               454      3.182860  28 H  s         

 Vector   84  Occ=0.000000D+00  E= 9.834384D-02
              MO Center=  2.3D-01,  5.4D-01,  1.4D+00, r^2= 4.1D+01
   Bfn.  Coefficient  Atom+Function         Bfn.  Coefficient  Atom+Function  
  ----- ------------  ---------------      ----- ------------  ---------------
   334     10.796641  20 H  s               454     -5.883494  28 H  s         
   608     -4.667139  38 H  s               234      4.304322  15 C  py        
   130     -4.014803   8 H  s               207     -3.950676  13 H  s         
   216      3.544020  14 H  s               351     -3.389986  21 C  px        
   319     -3.239377  19 C  pz                3     -3.152473   1 H  s         

 Vector   85  Occ=0.000000D+00  E= 1.027041D-01
              MO Center= -8.8D-01,  5.9D-02,  1.9D-01, r^2= 4.3D+01
   Bfn.  Coefficient  Atom+Function         Bfn.  Coefficient  Atom+Function  
  ----- ------------  ---------------      ----- ------------  ---------------
   454     -6.893433  28 H  s                13      6.374368   2 C  s         
   368      6.340717  22 H  s               402     -5.737495  24 H  s         
   411      5.069427  25 H  s                56     -4.474377   5 C  s         
   130      4.336048   8 H  s               164     -4.137370  10 H  s         
[...]
   317     -8.590982  19 C  px               12     -7.215744   2 C  s         
   106     -7.236106   7 N  s                13     -7.131177   2 C  s         
   319      6.815901  19 C  pz              351      6.402772  21 C  px        

 Vector  175  Occ=0.000000D+00  E= 4.489583D-01
              MO Center= -3.8D-01,  2.0D+00,  2.4D-01, r^2= 2.8D+01
   Bfn.  Coefficient  Atom+Function         Bfn.  Coefficient  Atom+Function  
  ----- ------------  ---------------      ----- ------------  ---------------
   173      7.337159  11 C  s               215     -5.817983  14 H  s         
   473      5.718541  30 C  s               197     -5.479606  12 H  s         
   174      5.271491  11 C  s               148      5.020966   9 C  py        
    13      4.407446   2 C  s                45      4.343326   4 H  s         
    36     -4.261145   3 H  s               206     -3.996647  13 H  s         

 Vector  176  Occ=0.000000D+00  E= 4.495422D-01
              MO Center= -8.7D-01, -6.7D-01, -2.9D-01, r^2= 2.3D+01
   Bfn.  Coefficient  Atom+Function         Bfn.  Coefficient  Atom+Function  
  ----- ------------  ---------------      ----- ------------  ---------------
   353      8.349398  21 C  pz              367      7.489352  22 H  s         
   368      7.493517  22 H  s                56      6.856264   5 C  s         
    13     -6.803262   2 C  s               343     -6.606207  21 C  s         
   174     -6.180119  11 C  s               462     -5.901921  29 H  s         
   453     -5.394343  28 H  s               234      4.550711  15 C  py        

 Vector  177  Occ=0.000000D+00  E= 4.530136D-01
              MO Center= -1.5D-01, -3.1D-02, -3.1D-01, r^2= 2.6D+01
   Bfn.  Coefficient  Atom+Function         Bfn.  Coefficient  Atom+Function  
  ----- ------------  ---------------      ----- ------------  ---------------
   430     18.534977  27 C  s               525    -14.453501  34 C  s         
   473     -9.247214  30 C  s               317      7.131860  19 C  px        
   148     -7.003402   9 C  py              149      6.988390   9 C  pz        
    13      6.567746   2 C  s               284     -6.535801  17 N  py        
   173      6.345307  11 C  s               234      5.965850  15 C  py        

 Vector  178  Occ=0.000000D+00  E= 4.571166D-01
              MO Center= -4.9D-01,  8.3D-01, -1.6D-01, r^2= 2.2D+01
   Bfn.  Coefficient  Atom+Function         Bfn.  Coefficient  Atom+Function  
  ----- ------------  ---------------      ----- ------------  ---------------
   148     13.753604   9 C  py              106     -8.742868   7 N  s         
   284      8.589698  17 N  py               13     -8.134317   2 C  s         
   378     -7.890118  23 C  s               437      7.820426  27 C  px        
   473      7.694332  30 C  s               317      7.583816  19 C  px        
   525      5.035841  34 C  s               472      4.880925  30 C  s         

 Vector  179  Occ=0.000000D+00  E= 4.645515D-01
              MO Center= -1.5D-01, -8.3D-01, -3.9D-02, r^2= 2.6D+01
   Bfn.  Coefficient  Atom+Function         Bfn.  Coefficient  Atom+Function  
  ----- ------------  ---------------      ----- ------------  ---------------
   318     13.889245  19 C  py               56     12.278646   5 C  s         
   234     12.095600  15 C  py               13    -10.261672   2 C  s         
    12    -10.185486   2 C  s               378      9.076110  23 C  s         
   174     -8.231648  11 C  s               473      8.258203  30 C  s         
   284     -7.653574  17 N  py              276     -7.596721  17 N  s         

 Vector  180  Occ=0.000000D+00  E= 4.658946D-01
              MO Center= -2.5D-01, -2.1D-02, -1.6D-01, r^2= 2.5D+01
   Bfn.  Coefficient  Atom+Function         Bfn.  Coefficient  Atom+Function  
  ----- ------------  ---------------      ----- ------------  ---------------
   148     14.682037   9 C  py              430     12.725353  27 C  s         
   378     12.404602  23 C  s               473     -8.650932  30 C  s         
    56     -8.556850   5 C  s               575      8.328215  36 N  s         
   525     -7.904201  34 C  s               318      7.115307  19 C  py        
   174      6.895497  11 C  s               377      6.707684  23 C  s         

 Vector  181  Occ=0.000000D+00  E= 4.701313D-01
              MO Center=  3.2D-01,  2.8D-01,  6.3D-02, r^2= 2.3D+01
   Bfn.  Coefficient  Atom+Function         Bfn.  Coefficient  Atom+Function  
  ----- ------------  ---------------      ----- ------------  ---------------
   473    -11.376157  30 C  s               430     10.841710  27 C  s         
   525    -10.213327  34 C  s               575      8.169402  36 N  s         
   284      7.019769  17 N  py              550      6.068850  35 O  s         
   351      6.012240  21 C  px              234     -5.845866  15 C  py        
   378      5.589316  23 C  s               437     -5.464982  27 C  px        

 Vector  182  Occ=0.000000D+00  E= 4.718182D-01
              MO Center= -1.4D-01,  4.3D-02,  2.3D-01, r^2= 2.5D+01
   Bfn.  Coefficient  Atom+Function         Bfn.  Coefficient  Atom+Function  
  ----- ------------  ---------------      ----- ------------  ---------------
    13     16.835567   2 C  s               318    -13.036762  19 C  py        
   473    -12.457049  30 C  s               148      8.657607   9 C  py        
    56     -8.385852   5 C  s                64     -8.079282   5 C  py        
   276      7.872773  17 N  s               437     -7.858367  27 C  px        
   114     -7.494400   7 N  py              319     -7.364444  19 C  pz        

 Vector  183  Occ=0.000000D+00  E= 4.745452D-01
              MO Center= -5.8D-01, -5.2D-01, -1.9D-01, r^2= 2.4D+01
   Bfn.  Coefficient  Atom+Function         Bfn.  Coefficient  Atom+Function  
  ----- ------------  ---------------      ----- ------------  ---------------
    56     15.339734   5 C  s               174    -14.159486  11 C  s         
   234     13.182088  15 C  py              319     11.504063  19 C  pz        
   430     11.176343  27 C  s               473    -11.103188  30 C  s         
   318     10.139900  19 C  py              575      9.910753  36 N  s         
    13     -8.650341   2 C  s               525     -8.119947  34 C  s         

 Vector  184  Occ=0.000000D+00  E= 4.754722D-01
              MO Center= -2.6D-01,  4.8D-01, -1.3D-02, r^2= 2.5D+01
   Bfn.  Coefficient  Atom+Function         Bfn.  Coefficient  Atom+Function  
  ----- ------------  ---------------      ----- ------------  ---------------
    13     11.625376   2 C  s               235      9.910354  15 C  pz        
    56     -9.380887   5 C  s               148      7.973392   9 C  py        
    64     -7.404658   5 C  py              234     -6.832110  15 C  py        
   285     -6.577355  17 N  pz              276      6.370577  17 N  s         
   378     -6.043934  23 C  s               283      5.698623  17 N  px        

 Vector  185  Occ=0.000000D+00  E= 4.811679D-01
              MO Center=  4.6D-01,  8.8D-02, -8.5D-02, r^2= 2.1D+01
   Bfn.  Coefficient  Atom+Function         Bfn.  Coefficient  Atom+Function  
  ----- ------------  ---------------      ----- ------------  ---------------
   106      9.006424   7 N  s               114     -6.555841   7 N  py        
   174     -6.529261  11 C  s               575     -6.424102  36 N  s         
   207      4.784710  13 H  s               351      4.807222  21 C  px        
   234     -4.662523  15 C  py              453     -4.584598  28 H  s         
   197     -4.349648  12 H  s               430      4.237700  27 C  s         

 Vector  186  Occ=0.000000D+00  E= 4.832611D-01
              MO Center= -9.9D-01, -1.5D+00,  5.6D-02, r^2= 2.1D+01
   Bfn.  Coefficient  Atom+Function         Bfn.  Coefficient  Atom+Function  
  ----- ------------  ---------------      ----- ------------  ---------------
   318     11.679093  19 C  py              525     -7.243020  34 C  s         
   234     -6.499450  15 C  py              148      6.416999   9 C  py        
   174      6.372211  11 C  s               505      5.572872  32 H  s         
   317     -4.542886  19 C  px              550      4.496445  35 O  s         
    56     -4.203794   5 C  s               352     -3.772871  21 C  py        

 Vector  187  Occ=0.000000D+00  E= 4.883997D-01
              MO Center= -4.0D-01, -8.2D-01, -9.9D-02, r^2= 2.1D+01
   Bfn.  Coefficient  Atom+Function         Bfn.  Coefficient  Atom+Function  
  ----- ------------  ---------------      ----- ------------  ---------------
   174     14.318235  11 C  s               473     13.899184  30 C  s         
   114     10.813763   7 N  py              276    -10.437653  17 N  s         
   148     -7.944644   9 C  py              439      7.509089  27 C  pz        
   149      7.092231   9 C  pz              401      6.967924  24 H  s         
   206     -6.662770  13 H  s               378     -6.648945  23 C  s         

 Vector  188  Occ=0.000000D+00  E= 4.949877D-01
              MO Center= -1.4D+00, -5.2D-01, -1.1D-01, r^2= 2.2D+01
   Bfn.  Coefficient  Atom+Function         Bfn.  Coefficient  Atom+Function  
  ----- ------------  ---------------      ----- ------------  ---------------
   430     19.401359  27 C  s                13    -14.253458   2 C  s         
   234     13.198974  15 C  py              318      9.971262  19 C  py        
   174     -9.758057  11 C  s               351      9.681075  21 C  px        
   525     -9.262436  34 C  s               148      7.998856   9 C  py        
    56      7.501327   5 C  s               344      6.936855  21 C  s         

 Vector  189  Occ=0.000000D+00  E= 4.973330D-01
              MO Center=  2.1D-01, -2.9D-01,  7.7D-02, r^2= 2.3D+01
   Bfn.  Coefficient  Atom+Function         Bfn.  Coefficient  Atom+Function  
  ----- ------------  ---------------      ----- ------------  ---------------
   430    -12.992074  27 C  s               378     12.373260  23 C  s         
   317    -10.485324  19 C  px              429      7.147480  27 C  s         
   463     -7.077920  29 H  s               226      6.961148  15 C  s         
   309     -6.964205  19 C  s               318      6.510852  19 C  py        
   148      6.406373   9 C  py              197     -6.069017  12 H  s         

 Vector  190  Occ=0.000000D+00  E= 4.999314D-01
              MO Center=  1.1D-01,  4.6D-01,  3.2D-01, r^2= 2.4D+01
   Bfn.  Coefficient  Atom+Function         Bfn.  Coefficient  Atom+Function  
  ----- ------------  ---------------      ----- ------------  ---------------
   430     23.396972  27 C  s               525    -15.761771  34 C  s         
   318     14.600929  19 C  py              351     12.647066  21 C  px        
   148     12.094277   9 C  py              473    -10.486794  30 C  s         
   319     10.215723  19 C  pz              378     10.095993  23 C  s         
   575      9.151564  36 N  s               174     -8.766151  11 C  s         

 Vector  191  Occ=0.000000D+00  E= 5.064001D-01
              MO Center= -2.0D-01, -5.1D-01,  2.9D-01, r^2= 2.3D+01
   Bfn.  Coefficient  Atom+Function         Bfn.  Coefficient  Atom+Function  
  ----- ------------  ---------------      ----- ------------  ---------------
   473     17.448159  30 C  s               234     -8.785055  15 C  py        
   318      8.325644  19 C  py              163      7.563781  10 H  s         
   352     -7.263626  21 C  py              197      6.972383  12 H  s         
   173     -6.240474  11 C  s               430     -5.976881  27 C  s         
   276     -5.876574  17 N  s               437      5.819350  27 C  px        


 center of mass
 --------------
 x =   0.08165939 y =   0.04824252 z =  -0.01643108

 moments of inertia (a.u.)
 ------------------
        7986.200324552834           0.000000000000           0.000000000001
           0.000000000000        2585.969151095526           0.000000000000
           0.000000000001           0.000000000000        9555.640149800918

  Mulliken analysis of the total density
  --------------------------------------

    Atom       Charge   Shell Charges
 -----------   ------   -------------------------------------------------------
    1 H    1     1.02   0.76  0.26  0.01  0.03 -0.05
    2 C    6     6.22   2.01  0.66  0.19  0.13  2.06  1.04 -0.01  0.06  0.08
    3 H    1     0.87   0.76  0.13  0.00  0.03 -0.06
    4 H    1     0.88   0.76  0.14 -0.00  0.03 -0.06
    5 C    6     5.16   2.01  0.68  0.11 -0.07  1.90  0.31 -0.03  0.24  0.02
    6 O    8     8.70   2.01  0.82  0.99  0.15  2.79  1.82  0.13  0.01 -0.02
    7 N    7     7.56   2.01  0.72  0.85 -0.07  2.46  1.45  0.04  0.05  0.05
    8 H    1     1.00   0.75  0.22 -0.00  0.06 -0.02
    9 C    6     6.44   2.01  0.66  0.19  0.01  2.00  1.36 -0.08  0.14  0.15
   10 H    1     1.16   0.78  0.36 -0.00  0.03 -0.01
   11 C    6     5.50   2.01  0.67  0.13  0.16  2.04  0.45 -0.00  0.07 -0.02
   12 H    1     0.91   0.77  0.18  0.00  0.03 -0.08
   13 H    1     0.91   0.77  0.15  0.02  0.03 -0.07
   14 H    1     1.01   0.77  0.28 -0.00  0.03 -0.06
   15 C    6     4.57   2.01  0.68  0.06  0.03  1.88  0.03 -0.03  0.23 -0.32
   16 O    8     8.87   2.01  0.82  1.03  0.17  2.79  1.88  0.16  0.01  0.00
   17 N    7     7.69   2.01  0.72  0.90 -0.04  2.45  1.47  0.09  0.05  0.05
   18 H    1     0.99   0.76  0.23 -0.01  0.05 -0.04
   19 C    6     5.98   2.01  0.66  0.11  0.02  2.00  1.12  0.04  0.14 -0.10
   20 H    1     1.28   0.79  0.46 -0.00  0.03  0.01
   21 C    6     6.60   2.01  0.66  0.07  0.08  2.00  1.34 -0.06  0.12  0.38
   22 H    1     1.10   0.79  0.30  0.02  0.03 -0.04
   23 C    6     5.44   2.01  0.66  0.26  0.07  2.04  0.47 -0.05  0.07 -0.10
   24 H    1     0.93   0.78  0.18  0.01  0.03 -0.07
   25 H    1     0.94   0.78  0.18  0.02  0.03 -0.07
   26 H    1     1.01   0.78  0.29 -0.00  0.03 -0.08
   27 C    6     6.27   2.01  0.66  0.57 -0.06  2.03  0.83 -0.05  0.10  0.19
   28 H    1     0.95   0.79  0.24 -0.02  0.03 -0.08
   29 H    1     0.91   0.79  0.23 -0.02  0.03 -0.12
   30 C    6     5.65   2.01  0.66  0.20  0.22  2.04  0.57 -0.02  0.07 -0.09
   31 H    1     0.97   0.78  0.23  0.01  0.03 -0.08
   32 H    1     1.05   0.78  0.31  0.02  0.03 -0.08
   33 H    1     0.93   0.78  0.20  0.01  0.03 -0.08
   34 C    6     4.49   2.01  0.68  0.06  0.07  1.89 -0.27  0.01  0.23 -0.19
   35 O    8     8.84   2.01  0.82  1.04  0.17  2.79  1.86  0.14  0.01  0.00
   36 N    7     7.25   2.01  0.72  0.83 -0.13  2.46  1.26  0.08  0.04 -0.02
   37 H    1     0.97   0.75  0.19 -0.01  0.05 -0.02
   38 H    1     0.96   0.76  0.21 -0.02  0.05 -0.05

       Multipole analysis of the density wrt the origin
       ------------------------------------------------

     L   x y z        total         open         nuclear
     -   - - -        -----         ----         -------
     0   0 0 0     -0.000000      0.000000    132.000000

     1   1 0 0     -0.214322      0.000000      0.000000
     1   0 1 0     -1.523317      0.000000     -0.000000
     1   0 0 1      1.535853      0.000000      0.000000

     2   2 0 0    -77.102609      0.000000   1216.256344
     2   1 1 0     -1.825625      0.000000     51.358222
     2   1 0 1      5.123716      0.000000      9.770691
     2   0 2 0    -74.498392      0.000000   4150.897547
     2   0 1 1      2.121138      0.000000     14.579046
     2   0 0 2    -83.809351      0.000000    294.026091


 Task  times  cpu:     4735.8s     wall:     4902.0s


                                NWChem Input Module
                                -------------------


 Summary of allocated global arrays
-----------------------------------
  No active global arrays


MA_summarize_allocated_blocks: starting scan ...
MA_summarize_allocated_blocks: scan completed: 0 heap blocks, 0 stack blocks
MA usage statistics:

	allocation statistics:
					      heap	     stack
					      ----	     -----
	current number of blocks	         0	         0
	maximum number of blocks	        16	        14
	current total bytes		         0	         0
	maximum total bytes		    131208	  28332232
	maximum total K-bytes		       132	     28333
	maximum total M-bytes		         1	        29


                                     CITATION
                                     --------
                Please cite the following reference when publishing
                           results obtained with NWChem:

          E. Apra, E. J. Bylaska, W. A. de Jong, N. Govind, K. Kowalski,
       T. P. Straatsma, M. Valiev, H. J. J. van Dam, Y. Alexeev, J. Anchell,
       V. Anisimov, F. W. Aquino, R. Atta-Fynn, J. Autschbach, N. P. Bauman,
     J. C. Becca, D. E. Bernholdt, K. Bhaskaran-Nair, S. Bogatko, P. Borowski,
         J. Boschen, J. Brabec, A. Bruner, E. Cauet, Y. Chen, G. N. Chuev,
      C. J. Cramer, J. Daily, M. J. O. Deegan, T. H. Dunning Jr., M. Dupuis,
   K. G. Dyall, G. I. Fann, S. A. Fischer, A. Fonari, H. Fruchtl, L. Gagliardi,
      J. Garza, N. Gawande, S. Ghosh, K. Glaesemann, A. W. Gotz, J. Hammond,
       V. Helms, E. D. Hermes, K. Hirao, S. Hirata, M. Jacquelin, L. Jensen,
   B. G. Johnson, H. Jonsson, R. A. Kendall, M. Klemm, R. Kobayashi, V. Konkov,
      S. Krishnamoorthy, M. Krishnan, Z. Lin, R. D. Lins, R. J. Littlefield,
      A. J. Logsdail, K. Lopata, W. Ma, A. V. Marenich, J. Martin del Campo,
   D. Mejia-Rodriguez, J. E. Moore, J. M. Mullin, T. Nakajima, D. R. Nascimento,
    J. A. Nichols, P. J. Nichols, J. Nieplocha, A. Otero-de-la-Roza, B. Palmer,
    A. Panyala, T. Pirojsirikul, B. Peng, R. Peverati, J. Pittner, L. Pollack,
   R. M. Richard, P. Sadayappan, G. C. Schatz, W. A. Shelton, D. W. Silverstein,
   D. M. A. Smith, T. A. Soares, D. Song, M. Swart, H. L. Taylor, G. S. Thomas,
            V. Tipparaju, D. G. Truhlar, K. Tsemekhman, T. Van Voorhis,
      A. Vazquez-Mayagoitia, P. Verma, O. Villa, A. Vishnu, K. D. Vogiatzis,
        D. Wang, J. H. Weare, M. J. Williamson, T. L. Windus, K. Wolinski,
        A. T. Wong, Q. Wu, C. Yang, Q. Yu, M. Zacharias, Z. Zhang, Y. Zhao,
                                and R. J. Harrison
                        "NWChem: Past, present, and future
                         J. Chem. Phys. 152, 184102 (2020)
                               doi:10.1063/5.0004997

                                      AUTHORS
                                      -------
  E. Apra, E. J. Bylaska, N. Govind, K. Kowalski, M. Valiev, D. Mejia-Rodriguez,
       A. Kunitsa, N. P. Bauman, A. Panyala, W. A. de Jong, T. P. Straatsma,
   H. J. J. van Dam, D. Wang, T. L. Windus, J. Hammond, J. Autschbach, A. Woods,
    K. Bhaskaran-Nair, J. Brabec, K. Lopata, S. A. Fischer, S. Krishnamoorthy,
     M. Jacquelin, W. Ma, M. Klemm, O. Villa, Y. Chen, V. Anisimov, F. Aquino,
     S. Hirata, M. T. Hackler, E. Hermes, L. Jensen, J. E. Moore, J. C. Becca,
      V. Konjkov, T. Risthaus, M. Malagoli, A. Marenich, A. Otero-de-la-Roza,
        J. Mullin, P. Nichols, R. Peverati, J. Pittner, Y. Zhao, P.-D. Fan,
        A. Fonari, M. J. Williamson, R. J. Harrison, J. R. Rehr, M. Dupuis,
     D. Silverstein, D. M. A. Smith, J. Nieplocha, V. Tipparaju, M. Krishnan,
     B. E. Van Kuiken, A. Vazquez-Mayagoitia, M. Swart, Q. Wu, T. Van Voorhis,
     A. A. Auer, M. Nooijen, L. D. Crosby, E. Brown, G. Cisneros, G. I. Fann,
   H. Fruchtl, J. Garza, K. Hirao, R. A. Kendall, J. A. Nichols, K. Tsemekhman,
    K. Wolinski, J. Anchell, D. E. Bernholdt, P. Borowski, T. Clark, D. Clerc,
   H. Dachsel, M. J. O. Deegan, K. Dyall, D. Elwood, E. Glendening, M. Gutowski,
   A. C. Hess, J. Jaffe, B. G. Johnson, J. Ju, R. Kobayashi, R. Kutteh, Z. Lin,
   R. Littlefield, X. Long, B. Meng, T. Nakajima, S. Niu, L. Pollack, M. Rosing,
   K. Glaesemann, G. Sandrone, M. Stave, H. Taylor, G. Thomas, J. H. van Lenthe,
                               A. T. Wong, Z. Zhang.

 Total times  cpu:     4735.9s     wall:     4902.4s
