export TMOUT=5400
export TMPDIR=/tmp
export PTMPDIR=/tmp/ptmp
 argument  1 = ALA_SER_3.nw
                                         
                                         


             Northwest Computational Chemistry Package (NWChem) 7.2.0
             --------------------------------------------------------


                    Environmental Molecular Sciences Laboratory
                       Pacific Northwest National Laboratory
                                Richland, WA 99352

                              Copyright (c) 1994-2022
                       Pacific Northwest National Laboratory
                            Battelle Memorial Institute

             NWChem is an open-source computational chemistry package
                        distributed under the terms of the
                      Educational Community License (ECL) 2.0
             A copy of the license is included with this distribution
                              in the LICENSE.TXT file

                                  ACKNOWLEDGMENT
                                  --------------

            This software and its documentation were developed at the
            EMSL at Pacific Northwest National Laboratory, a multiprogram
            national laboratory, operated for the U.S. Department of Energy
            by Battelle under Contract Number DE-AC05-76RL01830. Support
            for this work was provided by the Department of Energy Office
            of Biological and Environmental Research, Office of Basic
            Energy Sciences, and the Office of Advanced Scientific Computing.


           Job information
           ---------------

    hostname        = nova18-41
    program         = /opt/rit/el9/20230413/app/linux-rhel9-x86_64_v3/gcc-11.2.1/nwchem-7.2.0-oxtctbuhfuzyfaoziquq6bki22grib3g/bin/nwchem
    date            = Mon Jun 30 12:16:54 2025

    compiled        = Wed_May_17_23:46:39_2023
    source          = /tmp/root/spack-stage/spack-stage-nwchem-7.2.0-oxtctbuhfuzyfaoziquq6bki22grib3g/spack-src
    nwchem branch   = 7.2.0
    nwchem revision = d0d141fd
    ga revision     = 5.8.0
    use scalapack   = T
    input           = ALA_SER_3.nw
    prefix          = ALA_SER_3.
    data base       = ./ALA_SER_3.db
    status          = startup
    nproc           =        8
    time left       =     -1s



           Memory information
           ------------------

    heap     =   26214396 doubles =    200.0 Mbytes
    stack    =   26214401 doubles =    200.0 Mbytes
    global   =   52428800 doubles =    400.0 Mbytes (distinct from heap & stack)
    total    =  104857597 doubles =    800.0 Mbytes
    verify   = yes
    hardfail = no 


           Directory information
           ---------------------

  0 permanent = .
  0 scratch   = .




                                NWChem Input Module
                                -------------------



 Scaling coordinates for geometry "geometry" by  1.889725989
 (inverse scale =  0.529177249)

 C1  symmetry detected

          ------
          auto-z
          ------
  no constraints, skipping    0.0000000000000000     
  no constraints, skipping    0.0000000000000000     


                             Geometry "geometry" -> ""
                             -------------------------

 Output coordinates in angstroms (scale by  1.889725989 to convert to a.u.)

  No.       Tag          Charge          X              Y              Z
 ---- ---------------- ---------- -------------- -------------- --------------
    1 H                    1.0000     1.56162841     3.52260358    -1.57679772
    2 C                    6.0000     1.64812200     3.62960814    -0.49672417
    3 H                    1.0000     1.26920568     4.60270676    -0.18756482
    4 H                    1.0000     2.69464022     3.53871341    -0.20655223
    5 C                    6.0000     0.85302973     2.53993470     0.17968848
    6 O                    8.0000     1.42106273     1.72602293     0.90256615
    7 N                    7.0000    -0.45842319     2.51837848    -0.06798181
    8 H                    1.0000    -0.82276657     3.21862439    -0.69306066
    9 C                    6.0000    -1.41868302     1.54437586     0.46809931
   10 H                    1.0000    -1.26646693     1.47412301     1.54700607
   11 C                    6.0000    -2.83414181     2.08997395     0.23085863
   12 H                    1.0000    -3.02590364     2.18706687    -0.83917425
   13 H                    1.0000    -3.56658224     1.40278306     0.65754434
   14 H                    1.0000    -2.94541364     3.06409255     0.70925861
   15 C                    6.0000    -1.20736980     0.12715928    -0.11454027
   16 O                    8.0000    -2.00013817    -0.37558927    -0.90887158
   17 N                    7.0000    -0.09278076    -0.49664655     0.26581556
   18 H                    1.0000     0.49987468     0.01990022     0.90351217
   19 C                    6.0000     0.50295387    -1.68976939    -0.35293734
   20 H                    1.0000     0.37830195    -1.60601522    -1.43323366
   21 C                    6.0000     2.01373163    -1.70087856    -0.06986111
   22 H                    1.0000     2.18761156    -1.83656292     0.99877940
   23 H                    1.0000     2.47329888    -2.53133970    -0.60868320
   24 O                    8.0000     2.60988871    -0.48621413    -0.49867116
   25 H                    1.0000     2.34721245     0.23256002     0.09715928
   26 C                    6.0000    -0.16893047    -3.01034986     0.06337581
   27 O                    8.0000     0.48675415    -3.96757314     0.45604142
   28 N                    7.0000    -1.49158795    -3.08109517     0.02803049
   29 H                    1.0000    -1.93812831    -3.93912779     0.30647567
   30 H                    1.0000    -2.01978120    -2.28808150    -0.31199335

      Atomic Mass 
      ----------- 

      H                  1.007825
      C                 12.000000
      O                 15.994910
      N                 14.003070


 Effective nuclear repulsion energy (a.u.)    1092.0994074142

            Nuclear Dipole moment (a.u.) 
            ----------------------------
        X                 Y               Z
 ---------------- ---------------- ----------------
     0.0000000000     0.0000000000    -0.0000000000



                                Z-matrix (autoz)
                                -------- 

 Units are Angstrom for bonds and degrees for angles

      Type          Name      I     J     K     L     M      Value
      ----------- --------  ----- ----- ----- ----- ----- ----------
    1 Stretch                  1     2                       1.08880
    2 Stretch                  2     3                       1.08907
    3 Stretch                  2     4                       1.08980
    4 Stretch                  2     5                       1.50900
    5 Stretch                  5     6                       1.22787
    6 Stretch                  5     7                       1.33481
    7 Stretch                  7     8                       1.00688
    8 Stretch                  7     9                       1.46907
    9 Stretch                  9    10                       1.09185
   10 Stretch                  9    11                       1.53541
   11 Stretch                  9    15                       1.54681
   12 Stretch                 11    12                       1.09141
   13 Stretch                 11    13                       1.09122
   14 Stretch                 11    14                       1.09094
   15 Stretch                 15    16                       1.22972
   16 Stretch                 15    17                       1.33271
   17 Stretch                 17    18                       1.01228
   18 Stretch                 17    19                       1.47014
   19 Stretch                 19    20                       1.09068
   20 Stretch                 19    21                       1.53711
   21 Stretch                 19    26                       1.53905
   22 Stretch                 21    22                       1.09116
   23 Stretch                 21    23                       1.09142
   24 Stretch                 21    24                       1.41940
   25 Stretch                 24    25                       0.96987
   26 Stretch                 26    27                       1.22490
   27 Stretch                 26    28                       1.32502
   28 Stretch                 28    29                       1.00655
   29 Stretch                 28    30                       1.01167
   30 Bend                     1     2     3               109.98483
   31 Bend                     1     2     4               109.40326
   32 Bend                     1     2     5               109.38011
   33 Bend                     2     5     6               119.92119
   34 Bend                     2     5     7               116.49816
   35 Bend                     3     2     4               109.45380
   36 Bend                     3     2     5               109.55119
   37 Bend                     4     2     5               109.04999
   38 Bend                     5     7     8               117.35349
   39 Bend                     5     7     9               125.81807
   40 Bend                     6     5     7               123.57674
   41 Bend                     7     9    10               108.18696
   42 Bend                     7     9    11               108.09586
   43 Bend                     7     9    15               112.37768
   44 Bend                     8     7     9               116.81478
   45 Bend                     9    11    12               110.18630
   46 Bend                     9    11    13               109.54712
   47 Bend                     9    11    14               110.09406
   48 Bend                     9    15    16               121.99327
   49 Bend                     9    15    17               115.82403
   50 Bend                    10     9    11               107.70186
   51 Bend                    10     9    15               107.11003
   52 Bend                    11     9    15               113.16069
   53 Bend                    12    11    13               108.75059
   54 Bend                    12    11    14               109.42522
   55 Bend                    13    11    14               108.80688
   56 Bend                    15    17    18               115.50472
   57 Bend                    15    17    19               126.77392
   58 Bend                    16    15    17               122.15111
   59 Bend                    17    19    20               107.95318
   60 Bend                    17    19    21               109.06484
   61 Bend                    17    19    26               113.92982
   62 Bend                    18    17    19               116.23300
   63 Bend                    19    21    22               109.74788
   64 Bend                    19    21    23               109.17414
   65 Bend                    19    21    24               110.54792
   66 Bend                    19    26    27               121.57170
   67 Bend                    19    26    28               118.31876
   68 Bend                    20    19    21               107.17507
   69 Bend                    20    19    26               106.49432
   70 Bend                    21    19    26               111.90459
   71 Bend                    21    24    25               109.56384
   72 Bend                    22    21    23               108.77080
   73 Bend                    22    21    24               109.59408
   74 Bend                    23    21    24               108.97450
   75 Bend                    26    28    29               118.74920
   76 Bend                    26    28    30               119.22782
   77 Bend                    27    26    28               120.07733
   78 Bend                    29    28    30               121.97569
   79 Torsion                  1     2     5     6         118.49703
   80 Torsion                  1     2     5     7         -60.80933
   81 Torsion                  2     5     7     8           0.70545
   82 Torsion                  2     5     7     9         179.31252
   83 Torsion                  3     2     5     6        -120.87991
   84 Torsion                  3     2     5     7          59.81373
   85 Torsion                  4     2     5     6          -1.10942
   86 Torsion                  4     2     5     7         179.58422
   87 Torsion                  5     7     9    10          49.34136
   88 Torsion                  5     7     9    11         165.70465
   89 Torsion                  5     7     9    15         -68.70325
   90 Torsion                  6     5     7     8        -178.57297
   91 Torsion                  6     5     7     9           0.03411
   92 Torsion                  7     9    11    12          62.70741
   93 Torsion                  7     9    11    13        -177.69096
   94 Torsion                  7     9    11    14         -58.07695
   95 Torsion                  7     9    15    16        -108.97736
   96 Torsion                  7     9    15    17          69.01904
   97 Torsion                  8     7     9    10        -132.04488
   98 Torsion                  8     7     9    11         -15.68159
   99 Torsion                  8     7     9    15         109.91051
  100 Torsion                  9    15    17    18           0.38589
  101 Torsion                  9    15    17    19        -165.07554
  102 Torsion                 10     9    11    12         179.38551
  103 Torsion                 10     9    11    13         -61.01287
  104 Torsion                 10     9    11    14          58.60115
  105 Torsion                 10     9    15    16         132.34334
  106 Torsion                 10     9    15    17         -49.66026
  107 Torsion                 11     9    15    16          13.80675
  108 Torsion                 11     9    15    17        -168.19685
  109 Torsion                 12    11     9    15         -62.42155
  110 Torsion                 13    11     9    15          57.18008
  111 Torsion                 14    11     9    15         176.79409
  112 Torsion                 15    17    19    20          38.21041
  113 Torsion                 15    17    19    21         154.33972
  114 Torsion                 15    17    19    26         -79.84368
  115 Torsion                 16    15    17    18         178.37883
  116 Torsion                 16    15    17    19          12.91740
  117 Torsion                 17    19    21    22          66.33449
  118 Torsion                 17    19    21    23        -174.53476
  119 Torsion                 17    19    21    24         -54.66854
  120 Torsion                 17    19    26    27        -130.31519
  121 Torsion                 17    19    26    28          47.62123
  122 Torsion                 18    17    19    20        -127.15914
  123 Torsion                 18    17    19    21         -11.02983
  124 Torsion                 18    17    19    26         114.78676
  125 Torsion                 19    21    24    25          71.77489
  126 Torsion                 19    26    28    29        -179.48393
  127 Torsion                 19    26    28    30           2.96713
  128 Torsion                 20    19    21    22        -177.03955
  129 Torsion                 20    19    21    23         -57.90880
  130 Torsion                 20    19    21    24          61.95742
  131 Torsion                 20    19    26    27         110.79673
  132 Torsion                 20    19    26    28         -71.26685
  133 Torsion                 21    19    26    27          -6.01049
  134 Torsion                 21    19    26    28         171.92592
  135 Torsion                 22    21    19    26         -60.64363
  136 Torsion                 22    21    24    25         -49.31947
  137 Torsion                 23    21    19    26          58.48712
  138 Torsion                 23    21    24    25        -168.23897
  139 Torsion                 24    21    19    26         178.35334
  140 Torsion                 27    26    28    29          -1.51563
  141 Torsion                 27    26    28    30        -179.06457


            XYZ format geometry
            -------------------
    30
 geometry
 H                     1.56162841     3.52260358    -1.57679772
 C                     1.64812200     3.62960814    -0.49672417
 H                     1.26920568     4.60270676    -0.18756482
 H                     2.69464022     3.53871341    -0.20655223
 C                     0.85302973     2.53993470     0.17968848
 O                     1.42106273     1.72602293     0.90256615
 N                    -0.45842319     2.51837848    -0.06798181
 H                    -0.82276657     3.21862439    -0.69306066
 C                    -1.41868302     1.54437586     0.46809931
 H                    -1.26646693     1.47412301     1.54700607
 C                    -2.83414181     2.08997395     0.23085863
 H                    -3.02590364     2.18706687    -0.83917425
 H                    -3.56658224     1.40278306     0.65754434
 H                    -2.94541364     3.06409255     0.70925861
 C                    -1.20736980     0.12715928    -0.11454027
 O                    -2.00013817    -0.37558927    -0.90887158
 N                    -0.09278076    -0.49664655     0.26581556
 H                     0.49987468     0.01990022     0.90351217
 C                     0.50295387    -1.68976939    -0.35293734
 H                     0.37830195    -1.60601522    -1.43323366
 C                     2.01373163    -1.70087856    -0.06986111
 H                     2.18761156    -1.83656292     0.99877940
 H                     2.47329888    -2.53133970    -0.60868320
 O                     2.60988871    -0.48621413    -0.49867116
 H                     2.34721245     0.23256002     0.09715928
 C                    -0.16893047    -3.01034986     0.06337581
 O                     0.48675415    -3.96757314     0.45604142
 N                    -1.49158795    -3.08109517     0.02803049
 H                    -1.93812831    -3.93912779     0.30647567
 H                    -2.01978120    -2.28808150    -0.31199335

 ==============================================================================
                                internuclear distances
 ------------------------------------------------------------------------------
       center one      |      center two      | atomic units |  angstroms
 ------------------------------------------------------------------------------
    2 C                |   1 H                |     2.05754  |     1.08880
    3 H                |   2 C                |     2.05805  |     1.08907
    4 H                |   2 C                |     2.05942  |     1.08980
    5 C                |   2 C                |     2.85160  |     1.50900
    6 O                |   5 C                |     2.32034  |     1.22787
    7 N                |   5 C                |     2.52242  |     1.33481
    8 H                |   7 N                |     1.90273  |     1.00688
    9 C                |   7 N                |     2.77614  |     1.46907
   10 H                |   9 C                |     2.06330  |     1.09185
   11 C                |   9 C                |     2.90150  |     1.53541
   12 H                |  11 C                |     2.06246  |     1.09141
   13 H                |  11 C                |     2.06211  |     1.09122
   14 H                |  11 C                |     2.06158  |     1.09094
   15 C                |   9 C                |     2.92305  |     1.54681
   16 O                |  15 C                |     2.32383  |     1.22972
   17 N                |  15 C                |     2.51845  |     1.33271
   18 H                |  17 N                |     1.91294  |     1.01228
   19 C                |  17 N                |     2.77815  |     1.47014
   20 H                |  19 C                |     2.06110  |     1.09068
   21 C                |  19 C                |     2.90472  |     1.53711
   22 H                |  21 C                |     2.06200  |     1.09116
   23 H                |  21 C                |     2.06248  |     1.09142
   24 O                |  21 C                |     2.68227  |     1.41940
   25 H                |  24 O                |     1.83279  |     0.96987
   26 C                |  19 C                |     2.90838  |     1.53905
   27 O                |  26 C                |     2.31473  |     1.22490
   28 N                |  26 C                |     2.50392  |     1.32502
   29 H                |  28 N                |     1.90211  |     1.00655
   30 H                |  28 N                |     1.91178  |     1.01167
 ------------------------------------------------------------------------------
                         number of included internuclear distances:         29
 ==============================================================================



 ==============================================================================
                                 internuclear angles
 ------------------------------------------------------------------------------
        center 1       |       center 2       |       center 3       |  degrees
 ------------------------------------------------------------------------------
    1 H                |   2 C                |   3 H                |   109.98
    1 H                |   2 C                |   4 H                |   109.40
    1 H                |   2 C                |   5 C                |   109.38
    3 H                |   2 C                |   4 H                |   109.45
    3 H                |   2 C                |   5 C                |   109.55
    4 H                |   2 C                |   5 C                |   109.05
    2 C                |   5 C                |   6 O                |   119.92
    2 C                |   5 C                |   7 N                |   116.50
    6 O                |   5 C                |   7 N                |   123.58
    5 C                |   7 N                |   8 H                |   117.35
    5 C                |   7 N                |   9 C                |   125.82
    8 H                |   7 N                |   9 C                |   116.81
    7 N                |   9 C                |  10 H                |   108.19
    7 N                |   9 C                |  11 C                |   108.10
    7 N                |   9 C                |  15 C                |   112.38
   10 H                |   9 C                |  11 C                |   107.70
   10 H                |   9 C                |  15 C                |   107.11
   11 C                |   9 C                |  15 C                |   113.16
    9 C                |  11 C                |  12 H                |   110.19
    9 C                |  11 C                |  13 H                |   109.55
    9 C                |  11 C                |  14 H                |   110.09
   12 H                |  11 C                |  13 H                |   108.75
   12 H                |  11 C                |  14 H                |   109.43
   13 H                |  11 C                |  14 H                |   108.81
    9 C                |  15 C                |  16 O                |   121.99
    9 C                |  15 C                |  17 N                |   115.82
   16 O                |  15 C                |  17 N                |   122.15
   15 C                |  17 N                |  18 H                |   115.50
   15 C                |  17 N                |  19 C                |   126.77
   18 H                |  17 N                |  19 C                |   116.23
   17 N                |  19 C                |  20 H                |   107.95
   17 N                |  19 C                |  21 C                |   109.06
   17 N                |  19 C                |  26 C                |   113.93
   20 H                |  19 C                |  21 C                |   107.18
   20 H                |  19 C                |  26 C                |   106.49
   21 C                |  19 C                |  26 C                |   111.90
   19 C                |  21 C                |  22 H                |   109.75
   19 C                |  21 C                |  23 H                |   109.17
   19 C                |  21 C                |  24 O                |   110.55
   22 H                |  21 C                |  23 H                |   108.77
   22 H                |  21 C                |  24 O                |   109.59
   23 H                |  21 C                |  24 O                |   108.97
   21 C                |  24 O                |  25 H                |   109.56
   19 C                |  26 C                |  27 O                |   121.57
   19 C                |  26 C                |  28 N                |   118.32
   27 O                |  26 C                |  28 N                |   120.08
   26 C                |  28 N                |  29 H                |   118.75
   26 C                |  28 N                |  30 H                |   119.23
   29 H                |  28 N                |  30 H                |   121.98
 ------------------------------------------------------------------------------
                            number of included internuclear angles:         49
 ==============================================================================



  library name resolved from: environment
  library file name is: </opt/rit/el9/20230413/app/linux-rhel9-x86_64_v3/gcc-11.2.1/nwchem-7.2.0-oxtctbuhfuzyfaoziquq6bki22grib3g/share/nwchem/libraries/>
  


 Summary of "ao basis" -> "" (cartesian)
 ------------------------------------------------------------------------------
       Tag                 Description            Shells   Functions and Types
 ---------------- ------------------------------  ------  ---------------------
 *                        aug-cc-pvdz                 on all atoms 


                      Basis "ao basis" -> "ao basis" (cartesian)
                      -----
  H (Hydrogen)
  ------------
            Exponent  Coefficients 
       -------------- ---------------------------------------------------------
  1 S  1.30100000E+01  0.019685
  1 S  1.96200000E+00  0.137977
  1 S  4.44600000E-01  0.478148

  2 S  1.22000000E-01  1.000000

  3 S  2.97400000E-02  1.000000

  4 P  7.27000000E-01  1.000000

  5 P  1.41000000E-01  1.000000

  C (Carbon)
  ----------
            Exponent  Coefficients 
       -------------- ---------------------------------------------------------
  1 S  6.66500000E+03  0.000692
  1 S  1.00000000E+03  0.005329
  1 S  2.28000000E+02  0.027077
  1 S  6.47100000E+01  0.101718
  1 S  2.10600000E+01  0.274740
  1 S  7.49500000E+00  0.448564
  1 S  2.79700000E+00  0.285074
  1 S  5.21500000E-01  0.015204

  2 S  6.66500000E+03 -0.000146
  2 S  1.00000000E+03 -0.001154
  2 S  2.28000000E+02 -0.005725
  2 S  6.47100000E+01 -0.023312
  2 S  2.10600000E+01 -0.063955
  2 S  7.49500000E+00 -0.149981
  2 S  2.79700000E+00 -0.127262
  2 S  5.21500000E-01  0.544529

  3 S  1.59600000E-01  1.000000

  4 S  4.69000000E-02  1.000000

  5 P  9.43900000E+00  0.038109
  5 P  2.00200000E+00  0.209480
  5 P  5.45600000E-01  0.508557

  6 P  1.51700000E-01  1.000000

  7 P  4.04100000E-02  1.000000

  8 D  5.50000000E-01  1.000000

  9 D  1.51000000E-01  1.000000

  O (Oxygen)
  ----------
            Exponent  Coefficients 
       -------------- ---------------------------------------------------------
  1 S  1.17200000E+04  0.000710
  1 S  1.75900000E+03  0.005470
  1 S  4.00800000E+02  0.027837
  1 S  1.13700000E+02  0.104800
  1 S  3.70300000E+01  0.283062
  1 S  1.32700000E+01  0.448719
  1 S  5.02500000E+00  0.270952
  1 S  1.01300000E+00  0.015458

  2 S  1.17200000E+04 -0.000160
  2 S  1.75900000E+03 -0.001263
  2 S  4.00800000E+02 -0.006267
  2 S  1.13700000E+02 -0.025716
  2 S  3.70300000E+01 -0.070924
  2 S  1.32700000E+01 -0.165411
  2 S  5.02500000E+00 -0.116955
  2 S  1.01300000E+00  0.557368

  3 S  3.02300000E-01  1.000000

  4 S  7.89600000E-02  1.000000

  5 P  1.77000000E+01  0.043018
  5 P  3.85400000E+00  0.228913
  5 P  1.04600000E+00  0.508728

  6 P  2.75300000E-01  1.000000

  7 P  6.85600000E-02  1.000000

  8 D  1.18500000E+00  1.000000

  9 D  3.32000000E-01  1.000000

  N (Nitrogen)
  ------------
            Exponent  Coefficients 
       -------------- ---------------------------------------------------------
  1 S  9.04600000E+03  0.000700
  1 S  1.35700000E+03  0.005389
  1 S  3.09300000E+02  0.027406
  1 S  8.77300000E+01  0.103207
  1 S  2.85600000E+01  0.278723
  1 S  1.02100000E+01  0.448540
  1 S  3.83800000E+00  0.278238
  1 S  7.46600000E-01  0.015440

  2 S  9.04600000E+03 -0.000153
  2 S  1.35700000E+03 -0.001208
  2 S  3.09300000E+02 -0.005992
  2 S  8.77300000E+01 -0.024544
  2 S  2.85600000E+01 -0.067459
  2 S  1.02100000E+01 -0.158078
  2 S  3.83800000E+00 -0.121831
  2 S  7.46600000E-01  0.549003

  3 S  2.24800000E-01  1.000000

  4 S  6.12400000E-02  1.000000

  5 P  1.35500000E+01  0.039919
  5 P  2.91700000E+00  0.217169
  5 P  7.97300000E-01  0.510319

  6 P  2.18500000E-01  1.000000

  7 P  5.61100000E-02  1.000000

  8 D  8.17000000E-01  1.000000

  9 D  2.30000000E-01  1.000000



 Summary of "ao basis" -> "ao basis" (cartesian)
 ------------------------------------------------------------------------------
       Tag                 Description            Shells   Functions and Types
 ---------------- ------------------------------  ------  ---------------------
 H                        aug-cc-pvdz                5        9   3s2p
 C                        aug-cc-pvdz                9       25   4s3p2d
 O                        aug-cc-pvdz                9       25   4s3p2d
 N                        aug-cc-pvdz                9       25   4s3p2d


                                 NWChem SCF Module
                                 -----------------



  ao basis        = "ao basis"
  functions       =   510
  atoms           =    30
  closed shells   =    58
  open shells     =     0
  charge          =   0.00
  wavefunction    = RHF 
  input vectors   = atomic
  output vectors  = ./ALA_SER_3.movecs
  use symmetry    = F
  symmetry adapt  = F


 Summary of "ao basis" -> "ao basis" (cartesian)
 ------------------------------------------------------------------------------
       Tag                 Description            Shells   Functions and Types
 ---------------- ------------------------------  ------  ---------------------
 H                        aug-cc-pvdz                5        9   3s2p
 C                        aug-cc-pvdz                9       25   4s3p2d
 O                        aug-cc-pvdz                9       25   4s3p2d
 N                        aug-cc-pvdz                9       25   4s3p2d



 Forming initial guess at       1.3s


 !! The overlap matrix has   3 vectors deemed linearly dependent with
    eigenvalues:
 3.61D-06 6.01D-06 9.37D-06


      Superposition of Atomic Density Guess
      -------------------------------------

 Sum of atomic energies:        -770.80158829

      Non-variational initial energy
      ------------------------------

 Total energy =    -780.166753
 1-e energy   =   -3218.857473
 2-e energy   =    1346.591312
 HOMO         =      -0.304855
 LUMO         =       0.006077


 Starting SCF solution at     189.5s



 ----------------------------------------------
         Quadratically convergent ROHF

 Convergence threshold     :          1.000E-04
 Maximum no. of iterations :           30
 Final Fock-matrix accuracy:          1.000E-10
 ----------------------------------------------


              iter       energy          gnorm     gmax       time
             ----- ------------------- --------- --------- --------
                 1     -774.2930041713  2.41D+00  1.79D-01    376.2
                 2     -774.5956942684  7.88D-01  4.06D-02    718.2
                 3     -774.6498300325  6.25D-02  6.51D-03   1273.6
                 4     -774.6504189596  1.78D-03  1.37D-04   2165.6
                 5     -774.6504193559  4.49D-06  4.14D-07   3354.1


       Final RHF  results 
       ------------------ 

         Total SCF energy =   -774.650419355941
      One-electron energy =  -3229.177884503851
      Two-electron energy =   1362.428057733730
 Nuclear repulsion energy =   1092.099407414179

        Time for solution =   3170.8s


             Final eigenvalues
             -----------------

              1      
    1  -20.5632
    2  -20.5529
    3  -20.5476
    4  -20.5144
    5  -15.6347
    6  -15.6035
    7  -15.5752
    8  -11.3931
    9  -11.3757
   10  -11.3475
   11  -11.3225
   12  -11.2911
   13  -11.2825
   14  -11.2666
   15  -11.2584
   16   -1.4277
   17   -1.4057
   18   -1.3765
   19   -1.3532
   20   -1.2814
   21   -1.2507
   22   -1.2050
   23   -1.0865
   24   -1.0315
   25   -1.0166
   26   -0.9161
   27   -0.8779
   28   -0.8445
   29   -0.8128
   30   -0.7812
   31   -0.7473
   32   -0.7344
   33   -0.7173
   34   -0.6995
   35   -0.6894
   36   -0.6772
   37   -0.6574
   38   -0.6392
   39   -0.6221
   40   -0.6144
   41   -0.6038
   42   -0.5965
   43   -0.5832
   44   -0.5761
   45   -0.5728
   46   -0.5585
   47   -0.5557
   48   -0.5479
   49   -0.5359
   50   -0.5284
   51   -0.4951
   52   -0.4687
   53   -0.4597
   54   -0.4433
   55   -0.4328
   56   -0.4215
   57   -0.3971
   58   -0.3896
   59    0.0189
   60    0.0334
   61    0.0385
   62    0.0416
   63    0.0523
   64    0.0543
   65    0.0601
   66    0.0617
   67    0.0678
   68    0.0700

                       ROHF Final Molecular Orbital Analysis
                       -------------------------------------

 Vector   16  Occ=2.000000D+00  E=-1.427694D+00
              MO Center=  9.4D-01,  1.9D+00,  5.4D-01, r^2= 1.5D+00
   Bfn.  Coefficient  Atom+Function         Bfn.  Coefficient  Atom+Function  
  ----- ------------  ---------------      ----- ------------  ---------------
    80      0.352321   6 O  s                79      0.344265   6 O  s         
    54      0.235680   5 C  s                12      0.189947   2 C  s         

 Vector   17  Occ=2.000000D+00  E=-1.405743D+00
              MO Center= -1.4D+00, -1.9D-01, -4.9D-01, r^2= 1.8D+00
   Bfn.  Coefficient  Atom+Function         Bfn.  Coefficient  Atom+Function  
  ----- ------------  ---------------      ----- ------------  ---------------
   250      0.363143  16 O  s               249      0.342917  16 O  s         
   224      0.234057  15 C  s         

 Vector   18  Occ=2.000000D+00  E=-1.376529D+00
              MO Center=  1.0D-01, -3.5D+00,  2.6D-01, r^2= 1.4D+00
   Bfn.  Coefficient  Atom+Function         Bfn.  Coefficient  Atom+Function  
  ----- ------------  ---------------      ----- ------------  ---------------
   445      0.368831  27 O  s               444      0.346943  27 O  s         
   419      0.241947  26 C  s         

 Vector   19  Occ=2.000000D+00  E=-1.353179D+00
              MO Center=  2.4D+00, -6.4D-01, -3.4D-01, r^2= 1.2D+00
   Bfn.  Coefficient  Atom+Function         Bfn.  Coefficient  Atom+Function  
  ----- ------------  ---------------      ----- ------------  ---------------
   386      0.425509  24 O  s               385      0.397850  24 O  s         
   409      0.189373  25 H  s               314      0.165441  19 C  px        

 Vector   20  Occ=2.000000D+00  E=-1.281390D+00
              MO Center= -2.5D-01,  2.3D+00,  8.4D-02, r^2= 1.8D+00
   Bfn.  Coefficient  Atom+Function         Bfn.  Coefficient  Atom+Function  
  ----- ------------  ---------------      ----- ------------  ---------------
   105      0.419685   7 N  s               104      0.343336   7 N  s         
    80     -0.215262   6 O  s                79     -0.176107   6 O  s         
    57     -0.163462   5 C  px              128      0.157804   8 H  s         

 Vector   21  Occ=2.000000D+00  E=-1.250745D+00
              MO Center= -2.7D-01, -4.9D-01,  4.4D-02, r^2= 2.2D+00
   Bfn.  Coefficient  Atom+Function         Bfn.  Coefficient  Atom+Function  
  ----- ------------  ---------------      ----- ------------  ---------------
   275      0.392213  17 N  s               274      0.341191  17 N  s         
   250     -0.203494  16 O  s               227      0.165379  15 C  px        
   249     -0.164951  16 O  s               298      0.152666  18 H  s         

 Vector   22  Occ=2.000000D+00  E=-1.204986D+00
              MO Center= -1.1D+00, -3.0D+00,  7.2D-02, r^2= 1.6D+00
   Bfn.  Coefficient  Atom+Function         Bfn.  Coefficient  Atom+Function  
  ----- ------------  ---------------      ----- ------------  ---------------
   470      0.387215  28 N  s               469      0.367874  28 N  s         
   445     -0.212897  27 O  s               422     -0.198628  26 C  px        
   444     -0.176287  27 O  s               502      0.163998  30 H  s         
   493      0.156882  29 H  s         

 Vector   23  Occ=2.000000D+00  E=-1.086475D+00
              MO Center= -8.1D-01,  1.8D+00,  1.3D-01, r^2= 4.9D+00
   Bfn.  Coefficient  Atom+Function         Bfn.  Coefficient  Atom+Function  
  ----- ------------  ---------------      ----- ------------  ---------------
   138      0.244254   9 C  s               144     -0.211924   9 C  px        
   172      0.190457  11 C  s               225      0.157315  15 C  s         

 Vector   24  Occ=2.000000D+00  E=-1.031492D+00
              MO Center=  5.9D-01, -8.2D-01, -1.7D-01, r^2= 5.7D+00
   Bfn.  Coefficient  Atom+Function         Bfn.  Coefficient  Atom+Function  
  ----- ------------  ---------------      ----- ------------  ---------------
   308      0.267796  19 C  s               342      0.177200  21 C  s         

 Vector   25  Occ=2.000000D+00  E=-1.016600D+00
              MO Center=  3.1D-01,  2.8D+00, -1.8D-01, r^2= 6.0D+00
   Bfn.  Coefficient  Atom+Function         Bfn.  Coefficient  Atom+Function  
  ----- ------------  ---------------      ----- ------------  ---------------
    11      0.296835   2 C  s               144     -0.185274   9 C  px        
   172      0.185841  11 C  s               174      0.157656  11 C  s         

 Vector   26  Occ=2.000000D+00  E=-9.160762D-01
              MO Center= -1.1D+00,  1.0D+00,  1.4D-01, r^2= 7.1D+00
   Bfn.  Coefficient  Atom+Function         Bfn.  Coefficient  Atom+Function  
  ----- ------------  ---------------      ----- ------------  ---------------
   139      0.307553   9 C  s               145     -0.242597   9 C  py        
   172     -0.233693  11 C  s               225     -0.226491  15 C  s         
   138      0.169202   9 C  s               173     -0.155161  11 C  s         
   342      0.155260  21 C  s         

 Vector   27  Occ=2.000000D+00  E=-8.778530D-01
              MO Center=  6.2D-01, -1.3D+00, -4.5D-02, r^2= 6.8D+00
   Bfn.  Coefficient  Atom+Function         Bfn.  Coefficient  Atom+Function  
  ----- ------------  ---------------      ----- ------------  ---------------
   309      0.272974  19 C  s               342     -0.245087  21 C  s         
   314     -0.183985  19 C  px              420     -0.157617  26 C  s         
   389      0.156791  24 O  py        

 Vector   28  Occ=2.000000D+00  E=-8.444536D-01
              MO Center= -1.7D-01,  1.7D+00,  3.2D-02, r^2= 5.7D+00
   Bfn.  Coefficient  Atom+Function         Bfn.  Coefficient  Atom+Function  
  ----- ------------  ---------------      ----- ------------  ---------------
   107      0.293747   7 N  px              139      0.211137   9 C  s         
    54      0.205461   5 C  s               128     -0.201063   8 H  s         
   309      0.169312  19 C  s                80     -0.161595   6 O  s         
   105     -0.161465   7 N  s                60     -0.152542   5 C  px        

 Vector   29  Occ=2.000000D+00  E=-8.127874D-01
              MO Center= -3.5D-01,  4.0D-01,  6.3D-02, r^2= 5.3D+00
   Bfn.  Coefficient  Atom+Function         Bfn.  Coefficient  Atom+Function  
  ----- ------------  ---------------      ----- ------------  ---------------
   277      0.253615  17 N  px              309     -0.221190  19 C  s         
   128     -0.206356   8 H  s               225     -0.184077  15 C  s         
   226      0.177807  15 C  s               298      0.172746  18 H  s         
    55      0.164776   5 C  s               224     -0.164307  15 C  s         
   275      0.162969  17 N  s               250      0.157515  16 O  s         

 Vector   30  Occ=2.000000D+00  E=-7.811910D-01
              MO Center= -4.4D-01, -1.9D+00,  5.5D-02, r^2= 4.7D+00
   Bfn.  Coefficient  Atom+Function         Bfn.  Coefficient  Atom+Function  
  ----- ------------  ---------------      ----- ------------  ---------------
   472      0.288833  28 N  px              343      0.222440  21 C  s         
   315     -0.205845  19 C  py              344      0.203875  21 C  s         
   419      0.195448  26 C  s               298      0.193626  18 H  s         
   425     -0.189093  26 C  px              225     -0.179643  15 C  s         
   279      0.170270  17 N  pz              445     -0.169271  27 O  s         

 Vector   31  Occ=2.000000D+00  E=-7.473338D-01
              MO Center= -6.0D-01,  4.7D-01, -2.8D-02, r^2= 6.5D+00
   Bfn.  Coefficient  Atom+Function         Bfn.  Coefficient  Atom+Function  
  ----- ------------  ---------------      ----- ------------  ---------------
   145      0.347889   9 C  py              139     -0.254420   9 C  s         
   225      0.224907  15 C  s               142      0.200730   9 C  py        
   228     -0.187402  15 C  py              109      0.171671   7 N  pz        
   253     -0.163714  16 O  py              163      0.156350  10 H  s         

 Vector   32  Occ=2.000000D+00  E=-7.344428D-01
              MO Center= -5.5D-01, -1.8D+00,  4.1D-02, r^2= 6.0D+00
   Bfn.  Coefficient  Atom+Function         Bfn.  Coefficient  Atom+Function  
  ----- ------------  ---------------      ----- ------------  ---------------
   502      0.268778  30 H  s               473      0.260806  28 N  py        
   315     -0.224514  19 C  py              309      0.207795  19 C  s         
   421      0.194604  26 C  s               420     -0.166704  26 C  s         
   472     -0.156934  28 N  px              503      0.156290  30 H  s         
   312     -0.153683  19 C  py        

 Vector   33  Occ=2.000000D+00  E=-7.173440D-01
              MO Center=  5.2D-01,  1.8D+00,  6.6D-02, r^2= 6.5D+00
   Bfn.  Coefficient  Atom+Function         Bfn.  Coefficient  Atom+Function  
  ----- ------------  ---------------      ----- ------------  ---------------
    57      0.229223   5 C  px               83      0.223562   6 O  py        
    18     -0.160461   2 C  py               15     -0.158558   2 C  py        
    80     -0.151092   6 O  s         

 Vector   34  Occ=2.000000D+00  E=-6.994601D-01
              MO Center= -6.2D-01,  1.4D+00,  4.0D-01, r^2= 5.6D+00
   Bfn.  Coefficient  Atom+Function         Bfn.  Coefficient  Atom+Function  
  ----- ------------  ---------------      ----- ------------  ---------------
   143      0.250770   9 C  pz              108      0.221036   7 N  py        
   162      0.217086  10 H  s                84      0.168714   6 O  pz        
   146      0.165066   9 C  pz               80      0.155647   6 O  s         

 Vector   35  Occ=2.000000D+00  E=-6.893556D-01
              MO Center=  1.0D+00, -9.8D-01, -1.7D-01, r^2= 5.1D+00
   Bfn.  Coefficient  Atom+Function         Bfn.  Coefficient  Atom+Function  
  ----- ------------  ---------------      ----- ------------  ---------------
   347      0.229094  21 C  pz              343      0.205338  21 C  s         
   389      0.202933  24 O  py              409      0.197825  25 H  s         
   366      0.196563  22 H  s               390      0.194252  24 O  pz        
   225      0.180803  15 C  s               313      0.171520  19 C  pz        

 Vector   36  Occ=2.000000D+00  E=-6.771793D-01
              MO Center= -2.6D-01, -1.3D+00, -5.8D-02, r^2= 7.3D+00
   Bfn.  Coefficient  Atom+Function         Bfn.  Coefficient  Atom+Function  
  ----- ------------  ---------------      ----- ------------  ---------------
   315      0.233414  19 C  py              278     -0.189346  17 N  py        
   473      0.183470  28 N  py              493     -0.176000  29 H  s         
   309     -0.168970  19 C  s               422     -0.167850  26 C  px        
   312      0.165259  19 C  py              250     -0.163892  16 O  s         
   139      0.157826   9 C  s               227     -0.155815  15 C  px        

 Vector   37  Occ=2.000000D+00  E=-6.573610D-01
              MO Center=  4.7D-01, -3.1D-01, -5.0D-02, r^2= 9.4D+00
   Bfn.  Coefficient  Atom+Function         Bfn.  Coefficient  Atom+Function  
  ----- ------------  ---------------      ----- ------------  ---------------
   139      0.245502   9 C  s               422     -0.187525  26 C  px        
    59     -0.159956   5 C  pz              386     -0.153918  24 O  s         
   448     -0.154256  27 O  py        

 Vector   38  Occ=2.000000D+00  E=-6.391597D-01
              MO Center=  8.8D-01,  1.6D+00, -2.5D-01, r^2= 8.5D+00
   Bfn.  Coefficient  Atom+Function         Bfn.  Coefficient  Atom+Function  
  ----- ------------  ---------------      ----- ------------  ---------------
    16     -0.241317   2 C  pz              139      0.233784   9 C  s         
     1      0.220039   1 H  s                35     -0.167808   3 H  s         
   226      0.166939  15 C  s         

 Vector   39  Occ=2.000000D+00  E=-6.221405D-01
              MO Center= -9.6D-01,  2.8D-01, -2.3D-01, r^2= 6.7D+00
   Bfn.  Coefficient  Atom+Function         Bfn.  Coefficient  Atom+Function  
  ----- ------------  ---------------      ----- ------------  ---------------
   254      0.227974  16 O  pz              252      0.226052  16 O  px        
   250     -0.181802  16 O  s               145      0.168988   9 C  py        
   243     -0.158285  15 C  dxy             215      0.157347  14 H  s         
   230     -0.153104  15 C  px              227     -0.151574  15 C  px        

 Vector   40  Occ=2.000000D+00  E=-6.144167D-01
              MO Center=  4.8D-01,  1.7D+00,  1.7D-01, r^2= 6.7D+00
   Bfn.  Coefficient  Atom+Function         Bfn.  Coefficient  Atom+Function  
  ----- ------------  ---------------      ----- ------------  ---------------
    82      0.255242   6 O  px               58      0.246152   5 C  py        
    59     -0.186869   5 C  pz              128     -0.170726   8 H  s         
    80      0.162653   6 O  s                85      0.161268   6 O  px        
    15     -0.154908   2 C  py        

 Vector   41  Occ=2.000000D+00  E=-6.038184D-01
              MO Center=  1.0D+00, -2.3D+00, -1.4D-02, r^2= 5.5D+00
   Bfn.  Coefficient  Atom+Function         Bfn.  Coefficient  Atom+Function  
  ----- ------------  ---------------      ----- ------------  ---------------
   448      0.253067  27 O  py              420      0.233621  26 C  s         
   346      0.228718  21 C  py              388     -0.210645  24 O  px        
   445     -0.195881  27 O  s               376     -0.185575  23 H  s         
   375     -0.183194  23 H  s               447     -0.181355  27 O  px        
   423     -0.177378  26 C  py              299     -0.163439  18 H  s         

 Vector   42  Occ=2.000000D+00  E=-5.964725D-01
              MO Center=  7.7D-01,  2.7D+00, -1.5D-01, r^2= 7.5D+00
   Bfn.  Coefficient  Atom+Function         Bfn.  Coefficient  Atom+Function  
  ----- ------------  ---------------      ----- ------------  ---------------
    44      0.304192   4 H  s                14      0.298170   2 C  px        
    45      0.271740   4 H  s               175     -0.166214  11 C  px        
   205      0.165965  13 H  s         

 Vector   43  Occ=2.000000D+00  E=-5.831708D-01
              MO Center=  1.2D-01, -9.0D-01, -6.7D-02, r^2= 8.7D+00
   Bfn.  Coefficient  Atom+Function         Bfn.  Coefficient  Atom+Function  
  ----- ------------  ---------------      ----- ------------  ---------------
   345      0.184544  21 C  px              449     -0.170564  27 O  pz        
   206      0.166470  13 H  s               311     -0.157743  19 C  px        
   388      0.153106  24 O  px        

 Vector   44  Occ=2.000000D+00  E=-5.761302D-01
              MO Center=  6.4D-02, -4.6D-01, -4.6D-03, r^2= 1.1D+01
   Bfn.  Coefficient  Atom+Function         Bfn.  Coefficient  Atom+Function  
  ----- ------------  ---------------      ----- ------------  ---------------
   346      0.223006  21 C  py              176      0.216312  11 C  py        
   376     -0.213706  23 H  s               214      0.209207  14 H  s         
   389     -0.206298  24 O  py              375     -0.198902  23 H  s         
   423      0.162475  26 C  py              215      0.159302  14 H  s         
   226     -0.156034  15 C  s         

 Vector   45  Occ=2.000000D+00  E=-5.728374D-01
              MO Center= -8.9D-01,  7.0D-01, -1.2D-01, r^2= 1.0D+01
   Bfn.  Coefficient  Atom+Function         Bfn.  Coefficient  Atom+Function  
  ----- ------------  ---------------      ----- ------------  ---------------
   177      0.237777  11 C  pz              139      0.197727   9 C  s         
   196     -0.195501  12 H  s               225     -0.168530  15 C  s         
   174     -0.167688  11 C  s               197     -0.150612  12 H  s         

 Vector   46  Occ=2.000000D+00  E=-5.584536D-01
              MO Center= -6.6D-01,  1.3D+00,  1.2D-02, r^2= 9.4D+00
   Bfn.  Coefficient  Atom+Function         Bfn.  Coefficient  Atom+Function  
  ----- ------------  ---------------      ----- ------------  ---------------
   206      0.270509  13 H  s               205      0.220692  13 H  s         
    14     -0.193164   2 C  px               44     -0.170248   4 H  s         
   108     -0.164888   7 N  py               12      0.160390   2 C  s         
   176     -0.157435  11 C  py              254      0.152570  16 O  pz        
   175     -0.150776  11 C  px        

 Vector   47  Occ=2.000000D+00  E=-5.556641D-01
              MO Center=  1.7D-02,  2.2D+00, -3.1D-02, r^2= 7.0D+00
   Bfn.  Coefficient  Atom+Function         Bfn.  Coefficient  Atom+Function  
  ----- ------------  ---------------      ----- ------------  ---------------
     1      0.206516   1 H  s                16     -0.197773   2 C  pz        
    84      0.179724   6 O  pz                2      0.175359   1 H  s         
    83      0.174451   6 O  py              205      0.167062  13 H  s         
   175     -0.160569  11 C  px               36     -0.153347   3 H  s         
    35     -0.150694   3 H  s         

 Vector   48  Occ=2.000000D+00  E=-5.478588D-01
              MO Center= -7.5D-01, -1.4D-01,  9.2D-02, r^2= 9.2D+00
   Bfn.  Coefficient  Atom+Function         Bfn.  Coefficient  Atom+Function  
  ----- ------------  ---------------      ----- ------------  ---------------
   176      0.196241  11 C  py              141      0.193875   9 C  px        
   423     -0.189010  26 C  py              214      0.177960  14 H  s         
   447     -0.172890  27 O  px              175     -0.154229  11 C  px        
   252     -0.154394  16 O  px        

 Vector   49  Occ=2.000000D+00  E=-5.359135D-01
              MO Center= -1.4D+00,  1.1D+00,  1.8D-01, r^2= 6.8D+00
   Bfn.  Coefficient  Atom+Function         Bfn.  Coefficient  Atom+Function  
  ----- ------------  ---------------      ----- ------------  ---------------
   178      0.323458  11 C  px              174     -0.307084  11 C  s         
   173      0.282628  11 C  s               196     -0.246518  12 H  s         
   177      0.236628  11 C  pz              162     -0.232516  10 H  s         
   215      0.226448  14 H  s               143     -0.217209   9 C  pz        
   144      0.196762   9 C  px              147     -0.194938   9 C  px        

 Vector   50  Occ=2.000000D+00  E=-5.283774D-01
              MO Center= -7.3D-02, -1.7D+00, -1.4D-01, r^2= 6.8D+00
   Bfn.  Coefficient  Atom+Function         Bfn.  Coefficient  Atom+Function  
  ----- ------------  ---------------      ----- ------------  ---------------
   332     -0.229378  20 H  s               313      0.226092  19 C  pz        
   449     -0.206608  27 O  pz              343      0.202827  21 C  s         
   424     -0.199094  26 C  pz              474     -0.198797  28 N  pz        
   309     -0.169496  19 C  s               390     -0.158741  24 O  pz        
   477     -0.159362  28 N  pz              173     -0.153146  11 C  s         

 Vector   51  Occ=2.000000D+00  E=-4.950871D-01
              MO Center=  1.4D+00, -8.1D-01, -2.8D-01, r^2= 5.6D+00
   Bfn.  Coefficient  Atom+Function         Bfn.  Coefficient  Atom+Function  
  ----- ------------  ---------------      ----- ------------  ---------------
   388     -0.253217  24 O  px              376      0.250159  23 H  s         
   390      0.250571  24 O  pz              347     -0.219726  21 C  pz        
   375      0.200593  23 H  s               253      0.194694  16 O  py        
   391     -0.188652  24 O  px              386     -0.179157  24 O  s         
   366     -0.175473  22 H  s               387     -0.165482  24 O  s         

 Vector   52  Occ=2.000000D+00  E=-4.687496D-01
              MO Center=  3.0D-01,  5.8D-01, -3.3D-02, r^2= 6.7D+00
   Bfn.  Coefficient  Atom+Function         Bfn.  Coefficient  Atom+Function  
  ----- ------------  ---------------      ----- ------------  ---------------
   253      0.243497  16 O  py               84     -0.230318   6 O  pz        
    82      0.210844   6 O  px              109      0.206636   7 N  pz        
   256      0.200287  16 O  py              252     -0.198396  16 O  px        
    87     -0.181084   6 O  pz              112      0.176299   7 N  pz        
   390     -0.174385  24 O  pz               85      0.172951   6 O  px        

 Vector   53  Occ=2.000000D+00  E=-4.597428D-01
              MO Center=  8.6D-01,  1.5D+00,  3.3D-01, r^2= 4.6D+00
   Bfn.  Coefficient  Atom+Function         Bfn.  Coefficient  Atom+Function  
  ----- ------------  ---------------      ----- ------------  ---------------
    82      0.374294   6 O  px               85      0.308806   6 O  px        
    83      0.282651   6 O  py               86      0.223529   6 O  py        
    13      0.202190   2 C  s               225     -0.192194  15 C  s         
    18      0.175990   2 C  py              226     -0.171412  15 C  s         
    15      0.166213   2 C  py              140     -0.166855   9 C  s         

 Vector   54  Occ=2.000000D+00  E=-4.433433D-01
              MO Center=  1.1D+00, -1.3D+00, -3.4D-02, r^2= 6.3D+00
   Bfn.  Coefficient  Atom+Function         Bfn.  Coefficient  Atom+Function  
  ----- ------------  ---------------      ----- ------------  ---------------
   388      0.269891  24 O  px              447     -0.242002  27 O  px        
   390      0.216195  24 O  pz              391      0.214949  24 O  px        
   450     -0.193066  27 O  px              448     -0.171114  27 O  py        
   393      0.169962  24 O  pz              311      0.153730  19 C  px        
   348     -0.152458  21 C  px              438      0.150882  26 C  dxy       

 Vector   55  Occ=2.000000D+00  E=-4.327652D-01
              MO Center=  5.8D-01, -1.5D+00, -1.0D-01, r^2= 5.5D+00
   Bfn.  Coefficient  Atom+Function         Bfn.  Coefficient  Atom+Function  
  ----- ------------  ---------------      ----- ------------  ---------------
   388      0.269691  24 O  px              447      0.268840  27 O  px        
   391      0.215086  24 O  px              343      0.210503  21 C  s         
   348     -0.210577  21 C  px              279     -0.208443  17 N  pz        
   450      0.198963  27 O  px              390      0.184345  24 O  pz        
   254      0.172299  16 O  pz              282     -0.161408  17 N  pz        

 Vector   56  Occ=2.000000D+00  E=-4.214644D-01
              MO Center= -7.6D-01,  9.8D-01, -9.0D-02, r^2= 4.8D+00
   Bfn.  Coefficient  Atom+Function         Bfn.  Coefficient  Atom+Function  
  ----- ------------  ---------------      ----- ------------  ---------------
   253      0.318120  16 O  py              109     -0.260759   7 N  pz        
   256      0.254791  16 O  py              112     -0.234331   7 N  pz        
   108     -0.220852   7 N  py              111     -0.197724   7 N  py        
    84      0.178384   6 O  pz              145      0.162652   9 C  py        
   228     -0.157237  15 C  py              142      0.151455   9 C  py        

 Vector   57  Occ=2.000000D+00  E=-3.971301D-01
              MO Center= -6.1D-01, -3.3D+00,  1.9D-01, r^2= 2.5D+00
   Bfn.  Coefficient  Atom+Function         Bfn.  Coefficient  Atom+Function  
  ----- ------------  ---------------      ----- ------------  ---------------
   474     -0.412558  28 N  pz              449      0.377091  27 O  pz        
   477     -0.350074  28 N  pz              452      0.291737  27 O  pz        
   226      0.160112  15 C  s         

 Vector   58  Occ=2.000000D+00  E=-3.896231D-01
              MO Center= -1.4D-01, -1.8D+00,  6.5D-02, r^2= 5.0D+00
   Bfn.  Coefficient  Atom+Function         Bfn.  Coefficient  Atom+Function  
  ----- ------------  ---------------      ----- ------------  ---------------
   447      0.266588  27 O  px              448      0.244591  27 O  py        
   279      0.225455  17 N  pz              282      0.215774  17 N  pz        
   450      0.215257  27 O  px              278     -0.200061  17 N  py        
   344     -0.180166  21 C  s               451      0.180087  27 O  py        
   254     -0.177825  16 O  pz              317      0.174577  19 C  px        

 Vector   59  Occ=0.000000D+00  E= 1.886890D-02
              MO Center= -1.1D+00,  4.9D+00, -2.4D-01, r^2= 1.7D+01
   Bfn.  Coefficient  Atom+Function         Bfn.  Coefficient  Atom+Function  
  ----- ------------  ---------------      ----- ------------  ---------------
   234      2.805831  15 C  py              106     -2.345022   7 N  s         
   233     -2.324648  15 C  px              216     -2.201154  14 H  s         
   421      2.012685  26 C  s                37     -1.789395   3 H  s         
   148      1.791533   9 C  py              318      1.697555  19 C  py        
    12      1.663720   2 C  s               344      1.361839  21 C  s         

 Vector   60  Occ=0.000000D+00  E= 3.344866D-02
              MO Center= -2.0D+00,  2.2D+00,  8.6D-01, r^2= 3.0D+01
   Bfn.  Coefficient  Atom+Function         Bfn.  Coefficient  Atom+Function  
  ----- ------------  ---------------      ----- ------------  ---------------
    63      3.079473   5 C  px               64      2.848047   5 C  py        
   421     -2.742880  26 C  s               147      2.566243   9 C  px        
   164      2.140526  10 H  s               207      2.079990  13 H  s         
   226      1.963081  15 C  s               276     -1.881676  17 N  s         
   233      1.746477  15 C  px                3     -1.671900   1 H  s         

 Vector   61  Occ=0.000000D+00  E= 3.849690D-02
              MO Center= -7.9D-01,  3.3D+00, -4.5D-01, r^2= 2.8D+01
   Bfn.  Coefficient  Atom+Function         Bfn.  Coefficient  Atom+Function  
  ----- ------------  ---------------      ----- ------------  ---------------
   147      3.461391   9 C  px              164     -2.865062  10 H  s         
   198      2.741152  12 H  s                37     -2.140192   3 H  s         
    46     -1.925276   4 H  s               421     -1.657462  26 C  s         
   130      1.534781   8 H  s               149      1.451597   9 C  pz        
     3      1.393847   1 H  s                63      1.322883   5 C  px        

 Vector   62  Occ=0.000000D+00  E= 4.158120D-02
              MO Center= -1.0D+00,  7.2D-01, -1.4D-01, r^2= 3.9D+01
   Bfn.  Coefficient  Atom+Function         Bfn.  Coefficient  Atom+Function  
  ----- ------------  ---------------      ----- ------------  ---------------
   216      3.296720  14 H  s               234     -2.326142  15 C  py        
   421      2.304713  26 C  s               317      2.227610  19 C  px        
   428     -2.035673  26 C  px                3     -1.890466   1 H  s         
   471     -1.884342  28 N  s               174      1.797256  11 C  s         
   182     -1.736145  11 C  py              495     -1.652813  29 H  s         

 Vector   63  Occ=0.000000D+00  E= 5.233962D-02
              MO Center= -1.2D+00,  5.4D-03,  3.7D-01, r^2= 4.1D+01
   Bfn.  Coefficient  Atom+Function         Bfn.  Coefficient  Atom+Function  
  ----- ------------  ---------------      ----- ------------  ---------------
    37      3.368612   3 H  s               164     -3.171588  10 H  s         
   471      2.883372  28 N  s               428      2.523300  26 C  px        
     3     -2.442358   1 H  s               495      2.286058  29 H  s         
   174      1.562224  11 C  s               149      1.548875   9 C  pz        
   140      1.254496   9 C  s               478      1.244195  28 N  px        

 Vector   64  Occ=0.000000D+00  E= 5.432486D-02
              MO Center= -6.5D-01,  2.3D+00,  4.3D-01, r^2= 3.8D+01
   Bfn.  Coefficient  Atom+Function         Bfn.  Coefficient  Atom+Function  
  ----- ------------  ---------------      ----- ------------  ---------------
   164      4.071611  10 H  s                46     -3.674644   4 H  s         
   130      3.537335   8 H  s                63      3.380824   5 C  px        
   207     -2.997534  13 H  s               106      2.469683   7 N  s         
    56     -2.400476   5 C  s               233     -2.391574  15 C  px        
   148      2.080042   9 C  py              149     -1.961941   9 C  pz        

 Vector   65  Occ=0.000000D+00  E= 6.010617D-02
              MO Center=  1.2D+00, -6.1D-01, -1.0D+00, r^2= 3.7D+01
   Bfn.  Coefficient  Atom+Function         Bfn.  Coefficient  Atom+Function  
  ----- ------------  ---------------      ----- ------------  ---------------
   226     -4.145191  15 C  s                13      3.985552   2 C  s         
   344     -3.331963  21 C  s               140     -3.241219   9 C  s         
   174      3.249084  11 C  s               216      2.881666  14 H  s         
   207     -2.542615  13 H  s               377      2.348006  23 H  s         
   113     -2.323241   7 N  px               63     -2.260020   5 C  px        

 Vector   66  Occ=0.000000D+00  E= 6.174213D-02
              MO Center=  4.9D-01,  7.0D-01, -2.2D-01, r^2= 3.5D+01
   Bfn.  Coefficient  Atom+Function         Bfn.  Coefficient  Atom+Function  
  ----- ------------  ---------------      ----- ------------  ---------------
   174      4.741265  11 C  s               368     -3.417083  22 H  s         
   334      3.091708  20 H  s               216      3.056111  14 H  s         
   198     -2.986171  12 H  s                 3      2.586375   1 H  s         
    56     -2.246134   5 C  s               317      2.222568  19 C  px        
   147      2.126556   9 C  px              300     -1.945505  18 H  s         

 Vector   67  Occ=0.000000D+00  E= 6.775613D-02
              MO Center= -1.2D+00,  6.7D-01, -6.8D-01, r^2= 4.1D+01
   Bfn.  Coefficient  Atom+Function         Bfn.  Coefficient  Atom+Function  
  ----- ------------  ---------------      ----- ------------  ---------------
   216      4.139197  14 H  s               198     -3.375166  12 H  s         
    37     -3.201832   3 H  s                56      3.154866   5 C  s         
   334     -3.112970  20 H  s               147     -2.881996   9 C  px        
     3      2.426691   1 H  s               164     -2.293885  10 H  s         
   495      2.277590  29 H  s               234     -2.171695  15 C  py        

 Vector   68  Occ=0.000000D+00  E= 6.998963D-02
              MO Center=  9.5D-01, -7.0D-02,  1.2D-01, r^2= 4.3D+01
   Bfn.  Coefficient  Atom+Function         Bfn.  Coefficient  Atom+Function  
  ----- ------------  ---------------      ----- ------------  ---------------
   207      4.555076  13 H  s                13     -3.596314   2 C  s         
   377      3.475723  23 H  s                46     -3.424377   4 H  s         
   140      3.288096   9 C  s               317     -2.998577  19 C  px        
    63      2.968702   5 C  px              234      2.778141  15 C  py        
   113      2.663031   7 N  px              226      2.674283  15 C  s         

 Vector   69  Occ=0.000000D+00  E= 8.159214D-02
              MO Center=  3.7D-01,  1.7D+00, -1.3D-01, r^2= 3.7D+01
   Bfn.  Coefficient  Atom+Function         Bfn.  Coefficient  Atom+Function  
  ----- ------------  ---------------      ----- ------------  ---------------
   421      7.116095  26 C  s               130      5.259835   8 H  s         
   368     -3.950808  22 H  s               140     -3.908933   9 C  s         
   377      3.562263  23 H  s               226     -3.542852  15 C  s         
     3     -3.051661   1 H  s                46      2.950127   4 H  s         
   198     -2.947451  12 H  s               207      2.750108  13 H  s         

 Vector   70  Occ=0.000000D+00  E= 8.433186D-02
              MO Center= -1.2D-02, -6.9D-01, -3.3D-01, r^2= 3.9D+01
   Bfn.  Coefficient  Atom+Function         Bfn.  Coefficient  Atom+Function  
  ----- ------------  ---------------      ----- ------------  ---------------
   377      5.455643  23 H  s               164      4.872331  10 H  s         
   198      4.610737  12 H  s               344      4.594708  21 C  s         
   234     -3.698284  15 C  py              334     -3.275611  20 H  s         
   149     -2.856373   9 C  pz              207     -2.779231  13 H  s         
   352      2.745970  21 C  py              368     -2.626379  22 H  s         

 Vector   71  Occ=0.000000D+00  E= 9.193880D-02
              MO Center= -2.7D-01, -3.5D-01, -3.0D-01, r^2= 3.6D+01
   Bfn.  Coefficient  Atom+Function         Bfn.  Coefficient  Atom+Function  
  ----- ------------  ---------------      ----- ------------  ---------------
   421      6.617104  26 C  s               344     -5.426317  21 C  s         
   174      4.856943  11 C  s               300     -4.598252  18 H  s         
   504      4.493141  30 H  s               334     -4.281021  20 H  s         
   318      3.999120  19 C  py              276     -3.418989  17 N  s         
   147      3.315140   9 C  px              130     -3.098757   8 H  s         

 Vector   72  Occ=0.000000D+00  E= 9.662849D-02
              MO Center= -9.8D-01, -2.4D-02, -4.8D-01, r^2= 3.9D+01
   Bfn.  Coefficient  Atom+Function         Bfn.  Coefficient  Atom+Function  
  ----- ------------  ---------------      ----- ------------  ---------------
   504      7.391437  30 H  s               421     -6.321598  26 C  s         
   344      4.009702  21 C  s               411     -4.015519  25 H  s         
   233      3.552093  15 C  px              495     -3.426338  29 H  s         
   207     -3.330959  13 H  s               147     -3.137841   9 C  px        
    46      2.760140   4 H  s               216      2.728539  14 H  s         

 Vector   73  Occ=0.000000D+00  E= 1.061821D-01
              MO Center=  7.3D-01, -3.4D-01,  1.8D+00, r^2= 2.9D+01
   Bfn.  Coefficient  Atom+Function         Bfn.  Coefficient  Atom+Function  
  ----- ------------  ---------------      ----- ------------  ---------------
   300     13.196332  18 H  s               174    -10.745280  11 C  s         
   368     -7.819215  22 H  s               164     -5.512929  10 H  s         
   147     -5.011863   9 C  px              226      4.867716  15 C  s         
   421      4.739181  26 C  s               344     -3.905200  21 C  s         
   140      3.827013   9 C  s               148      3.789159   9 C  py        

 Vector   74  Occ=0.000000D+00  E= 1.080294D-01
              MO Center=  6.2D-02,  8.3D-01,  6.3D-01, r^2= 3.1D+01
   Bfn.  Coefficient  Atom+Function         Bfn.  Coefficient  Atom+Function  
  ----- ------------  ---------------      ----- ------------  ---------------
   226     11.454899  15 C  s               140      9.884012   9 C  s         
    63      8.586451   5 C  px              148      8.113459   9 C  py        
    13     -7.139982   2 C  s               421     -6.770042  26 C  s         
   344      4.831629  21 C  s               106     -4.736566   7 N  s         
   411     -4.546888  25 H  s               276     -3.834835  17 N  s         

 Vector   75  Occ=0.000000D+00  E= 1.146096D-01
              MO Center=  7.8D-01,  8.2D-01,  5.8D-01, r^2= 3.1D+01
   Bfn.  Coefficient  Atom+Function         Bfn.  Coefficient  Atom+Function  
  ----- ------------  ---------------      ----- ------------  ---------------
   226     11.359452  15 C  s                63      7.471592   5 C  px        
    13     -6.997705   2 C  s               140      6.728734   9 C  s         
   344     -6.034763  21 C  s               233      5.456355  15 C  px        
   300     -5.162820  18 H  s               164      4.759408  10 H  s         
   411      4.434609  25 H  s               276     -4.070513  17 N  s         

 Vector   76  Occ=0.000000D+00  E= 1.281187D-01
              MO Center=  5.3D-01,  3.1D+00, -6.1D-02, r^2= 2.4D+01
   Bfn.  Coefficient  Atom+Function         Bfn.  Coefficient  Atom+Function  
  ----- ------------  ---------------      ----- ------------  ---------------
   226      9.487827  15 C  s               106     -8.144397   7 N  s         
   174     -7.233830  11 C  s               344      6.877263  21 C  s         
    56      6.698146   5 C  s               140      6.477687   9 C  s         
   148      6.428288   9 C  py              317     -4.750363  19 C  px        
   411      3.890678  25 H  s               421     -3.289050  26 C  s         

 Vector   77  Occ=0.000000D+00  E= 1.302340D-01
              MO Center= -1.8D-01, -1.1D+00, -3.8D-01, r^2= 3.7D+01
   Bfn.  Coefficient  Atom+Function         Bfn.  Coefficient  Atom+Function  
  ----- ------------  ---------------      ----- ------------  ---------------
   421     20.173281  26 C  s               174    -15.482359  11 C  s         
   234     10.829693  15 C  py              233     -9.741617  15 C  px        
   318      9.626001  19 C  py              429      7.575954  26 C  py        
   147     -7.473332   9 C  px              344     -6.822977  21 C  s         
   181     -5.193562  11 C  px              148      4.477749   9 C  py        

 Vector   78  Occ=0.000000D+00  E= 1.372829D-01
              MO Center= -1.7D+00,  1.6D+00,  3.5D-02, r^2= 2.7D+01
   Bfn.  Coefficient  Atom+Function         Bfn.  Coefficient  Atom+Function  
  ----- ------------  ---------------      ----- ------------  ---------------
   174     14.776023  11 C  s               147     12.565633   9 C  px        
    56     -9.356963   5 C  s               421     -7.226196  26 C  s         
   181      5.924452  11 C  px               63      5.754122   5 C  px        
   226     -5.013229  15 C  s               471      4.460298  28 N  s         
   216      4.340728  14 H  s               182     -4.154300  11 C  py        

 Vector   79  Occ=0.000000D+00  E= 1.407952D-01
              MO Center= -9.6D-01, -5.2D-01,  3.1D-02, r^2= 2.7D+01
   Bfn.  Coefficient  Atom+Function         Bfn.  Coefficient  Atom+Function  
  ----- ------------  ---------------      ----- ------------  ---------------
   226      9.520628  15 C  s               318     -7.255239  19 C  py        
   344     -7.092900  21 C  s               421     -6.937896  26 C  s         
   234     -5.703438  15 C  py               13     -5.106476   2 C  s         
   317      4.907751  19 C  px               64      4.764168   5 C  py        
   147      4.729246   9 C  px              233      4.552808  15 C  px        

 Vector   80  Occ=0.000000D+00  E= 1.418104D-01
              MO Center= -5.4D-02,  1.1D+00,  7.7D-01, r^2= 2.0D+01
   Bfn.  Coefficient  Atom+Function         Bfn.  Coefficient  Atom+Function  
  ----- ------------  ---------------      ----- ------------  ---------------
   174      8.915196  11 C  s               344     -8.378900  21 C  s         
   421      8.099502  26 C  s               317      7.553367  19 C  px        
   164     -6.589012  10 H  s               148     -5.382770   9 C  py        
    13      5.353608   2 C  s                63     -5.293922   5 C  px        
   140     -5.244825   9 C  s               149      3.877383   9 C  pz        

 Vector   81  Occ=0.000000D+00  E= 1.466968D-01
              MO Center= -5.8D-01,  1.4D+00,  6.2D-01, r^2= 2.6D+01
   Bfn.  Coefficient  Atom+Function         Bfn.  Coefficient  Atom+Function  
  ----- ------------  ---------------      ----- ------------  ---------------
   174      8.846298  11 C  s               147      5.915828   9 C  px        
   344     -5.118509  21 C  s               164     -4.648882  10 H  s         
   226      4.442131  15 C  s               318     -3.834601  19 C  py        
   181      3.526304  11 C  px              234     -3.542291  15 C  py        
   310      3.410240  19 C  s               148      3.359880   9 C  py        

 Vector   82  Occ=0.000000D+00  E= 1.490135D-01
              MO Center= -2.4D-01,  9.7D-01,  3.8D-01, r^2= 2.9D+01
   Bfn.  Coefficient  Atom+Function         Bfn.  Coefficient  Atom+Function  
  ----- ------------  ---------------      ----- ------------  ---------------
   226     11.341707  15 C  s                63      8.316790   5 C  px        
   140      7.985513   9 C  s               471     -4.785749  28 N  s         
    13     -4.340957   2 C  s               428     -4.235762  26 C  px        
   174     -4.034153  11 C  s                12      3.809765   2 C  s         
   310      3.738680  19 C  s               164      3.714288  10 H  s         

 Vector   83  Occ=0.000000D+00  E= 1.521408D-01
              MO Center=  2.4D-01,  1.8D+00,  2.3D-01, r^2= 3.2D+01
   Bfn.  Coefficient  Atom+Function         Bfn.  Coefficient  Atom+Function  
  ----- ------------  ---------------      ----- ------------  ---------------
   174     11.617040  11 C  s               276     -9.942011  17 N  s         
   147      9.821285   9 C  px              344     -7.572903  21 C  s         
   317      5.748293  19 C  px              233      5.327970  15 C  px        
    12      5.067405   2 C  s                64      4.701780   5 C  py        
   181      4.715001  11 C  px              226      4.390265  15 C  s         

 Vector   84  Occ=0.000000D+00  E= 1.539364D-01
              MO Center= -5.6D-01,  1.1D+00, -4.1D-01, r^2= 2.0D+01
   Bfn.  Coefficient  Atom+Function         Bfn.  Coefficient  Atom+Function  
  ----- ------------  ---------------      ----- ------------  ---------------
   234      8.583576  15 C  py              317     -6.308482  19 C  px        
   233     -5.812331  15 C  px              344      5.308607  21 C  s         
   471      5.241897  28 N  s               300      4.849483  18 H  s         
   113      4.656377   7 N  px              421     -4.658299  26 C  s         
    64      4.281734   5 C  py              276      3.861906  17 N  s         

 Vector   85  Occ=0.000000D+00  E= 1.600339D-01
              MO Center= -9.6D-01, -1.2D-04,  1.8D-01, r^2= 3.2D+01
   Bfn.  Coefficient  Atom+Function         Bfn.  Coefficient  Atom+Function  
  ----- ------------  ---------------      ----- ------------  ---------------
   421     13.605534  26 C  s               344    -13.288018  21 C  s         
   317     12.093597  19 C  px              226      9.316518  15 C  s         
   471     -9.339666  28 N  s               234     -8.616071  15 C  py        
   428     -7.216192  26 C  px              233      5.310496  15 C  px        
   276     -3.983315  17 N  s               147     -3.888813   9 C  px        

 Vector   86  Occ=0.000000D+00  E= 1.609367D-01
              MO Center=  2.2D-01,  8.1D-01, -1.2D-01, r^2= 3.0D+01
   Bfn.  Coefficient  Atom+Function         Bfn.  Coefficient  Atom+Function  
  ----- ------------  ---------------      ----- ------------  ---------------
   344      7.787212  21 C  s               471     -5.991218  28 N  s         
   130     -5.792776   8 H  s               106     -5.622336   7 N  s         
    56     -5.209454   5 C  s               226     -5.086656  15 C  s         
   234      4.544137  15 C  py              317     -4.559008  19 C  px        
   428     -4.199872  26 C  px              149     -4.133476   9 C  pz        

 Vector   87  Occ=0.000000D+00  E= 1.675811D-01
              MO Center=  5.0D-01,  2.8D-01, -3.5D-01, r^2= 2.7D+01
   Bfn.  Coefficient  Atom+Function         Bfn.  Coefficient  Atom+Function  
  ----- ------------  ---------------      ----- ------------  ---------------
   148      4.822566   9 C  py               63      4.373245   5 C  px        
    46     -4.332713   4 H  s               149     -3.959735   9 C  pz        
   164      3.946661  10 H  s               421      3.723996  26 C  s         
   113      3.085616   7 N  px              147     -2.960873   9 C  px        
   235      2.877023  15 C  pz              174     -2.847372  11 C  s         

 Vector   88  Occ=0.000000D+00  E= 1.700379D-01
              MO Center= -9.5D-01,  1.5D+00, -2.0D-01, r^2= 3.0D+01
   Bfn.  Coefficient  Atom+Function         Bfn.  Coefficient  Atom+Function  
  ----- ------------  ---------------      ----- ------------  ---------------
   421      9.033073  26 C  s               318      6.025872  19 C  py        
   233     -5.543835  15 C  px              207     -4.789630  13 H  s         
   226     -4.310790  15 C  s               284      4.144103  17 N  py        
     3     -4.099252   1 H  s               174     -3.969149  11 C  s         
   181     -3.792257  11 C  px              319      3.587026  19 C  pz        

 Vector   89  Occ=0.000000D+00  E= 1.707850D-01
              MO Center=  8.7D-02,  1.7D+00, -5.6D-01, r^2= 3.2D+01
   Bfn.  Coefficient  Atom+Function         Bfn.  Coefficient  Atom+Function  
  ----- ------------  ---------------      ----- ------------  ---------------
   130      7.576050   8 H  s               344      7.021615  21 C  s         
    20      5.777461   2 C  px              471     -5.069455  28 N  s         
   300      4.862458  18 H  s                46     -4.677428   4 H  s         
   317     -4.514328  19 C  px               13     -4.068499   2 C  s         
    64      4.038683   5 C  py              113      4.016824   7 N  px        

 Vector   90  Occ=0.000000D+00  E= 1.763277D-01
              MO Center= -4.5D-01,  2.8D-01, -2.3D-01, r^2= 2.8D+01
   Bfn.  Coefficient  Atom+Function         Bfn.  Coefficient  Atom+Function  
  ----- ------------  ---------------      ----- ------------  ---------------
   344      9.302638  21 C  s               233      7.424538  15 C  px        
   147     -7.172029   9 C  px              174     -7.133485  11 C  s         
   276     -6.268920  17 N  s                56      5.576473   5 C  s         
   140      4.921276   9 C  s               226      4.740668  15 C  s         
   334     -4.053450  20 H  s                65      3.942549   5 C  pz        

 Vector   91  Occ=0.000000D+00  E= 1.764773D-01
              MO Center=  7.0D-01, -6.1D-01, -4.2D-01, r^2= 2.7D+01
[...]

 Vector  143  Occ=0.000000D+00  E= 4.184800D-01
              MO Center=  8.9D-01, -1.6D-01, -2.4D-01, r^2= 1.9D+01
   Bfn.  Coefficient  Atom+Function         Bfn.  Coefficient  Atom+Function  
  ----- ------------  ---------------      ----- ------------  ---------------
   226     19.706221  15 C  s               421    -17.851882  26 C  s         
   318    -11.031128  19 C  py              140     10.666936   9 C  s         
   106     -8.571901   7 N  s               233      6.807845  15 C  px        
   317      6.733106  19 C  px               13     -6.532829   2 C  s         
   283      6.389480  17 N  px              284     -5.961718  17 N  py        

 Vector  144  Occ=0.000000D+00  E= 4.224793D-01
              MO Center= -2.9D-01,  2.2D+00,  1.9D-02, r^2= 1.9D+01
   Bfn.  Coefficient  Atom+Function         Bfn.  Coefficient  Atom+Function  
  ----- ------------  ---------------      ----- ------------  ---------------
    13     14.914114   2 C  s               226    -14.632309  15 C  s         
    56     11.071738   5 C  s               140    -10.988904   9 C  s         
    12     10.203600   2 C  s               113    -10.185584   7 N  px        
   174      8.683761  11 C  s                36     -8.037664   3 H  s         
   173      6.777912  11 C  s                 2     -6.573586   1 H  s         

 Vector  145  Occ=0.000000D+00  E= 4.271215D-01
              MO Center= -1.6D-01,  3.0D-01, -1.8D-01, r^2= 2.0D+01
   Bfn.  Coefficient  Atom+Function         Bfn.  Coefficient  Atom+Function  
  ----- ------------  ---------------      ----- ------------  ---------------
   421    -14.261547  26 C  s                56     14.145614   5 C  s         
   106    -10.901292   7 N  s               344      9.670600  21 C  s         
    63     -9.068244   5 C  px              317     -7.325360  19 C  px        
    13      6.720420   2 C  s               310     -6.280602  19 C  s         
   284     -5.951036  17 N  py              318     -5.877625  19 C  py        

 Vector  146  Occ=0.000000D+00  E= 4.350856D-01
              MO Center=  2.3D-01,  1.5D+00, -3.1D-01, r^2= 1.8D+01
   Bfn.  Coefficient  Atom+Function         Bfn.  Coefficient  Atom+Function  
  ----- ------------  ---------------      ----- ------------  ---------------
   421     17.895712  26 C  s               234     12.348847  15 C  py        
   276     12.212500  17 N  s               233    -10.137271  15 C  px        
   471     -9.287950  28 N  s               140     -7.594495   9 C  s         
   318      7.462958  19 C  py              226     -6.681894  15 C  s         
    13      6.543810   2 C  s               106     -6.473930   7 N  s         

 Vector  147  Occ=0.000000D+00  E= 4.364159D-01
              MO Center=  1.9D-01, -1.3D-01, -1.4D-01, r^2= 1.8D+01
   Bfn.  Coefficient  Atom+Function         Bfn.  Coefficient  Atom+Function  
  ----- ------------  ---------------      ----- ------------  ---------------
   421     14.948037  26 C  s               318     10.508517  19 C  py        
   140     -7.738987   9 C  s               226     -7.162138  15 C  s         
   276     -6.164513  17 N  s               284      5.486919  17 N  py        
   234     -4.940069  15 C  py              446     -4.118767  27 O  s         
   174      3.991234  11 C  s               471     -3.657739  28 N  s         

 Vector  148  Occ=0.000000D+00  E= 4.431920D-01
              MO Center=  2.2D-01,  7.8D-01,  7.8D-02, r^2= 2.0D+01
   Bfn.  Coefficient  Atom+Function         Bfn.  Coefficient  Atom+Function  
  ----- ------------  ---------------      ----- ------------  ---------------
   174     15.951841  11 C  s               148    -12.535289   9 C  py        
    13     10.422294   2 C  s               226     -9.155622  15 C  s         
   140     -8.130263   9 C  s                56      7.750794   5 C  s         
   234     -7.056699  15 C  py              343      7.008218  21 C  s         
   173      6.663206  11 C  s               113     -6.609971   7 N  px        

 Vector  149  Occ=0.000000D+00  E= 4.472781D-01
              MO Center= -9.4D-01, -1.8D-02,  1.4D-01, r^2= 2.0D+01
   Bfn.  Coefficient  Atom+Function         Bfn.  Coefficient  Atom+Function  
  ----- ------------  ---------------      ----- ------------  ---------------
   226     12.975591  15 C  s               471     12.056936  28 N  s         
   140      7.797135   9 C  s                12     -7.586050   2 C  s         
   428      7.169434  26 C  px              421     -7.009541  26 C  s         
    13     -6.537454   2 C  s               106     -6.453809   7 N  s         
    56     -6.006695   5 C  s               276     -5.812094  17 N  s         

 Vector  150  Occ=0.000000D+00  E= 4.502111D-01
              MO Center= -2.5D-01,  4.1D-01, -6.3D-02, r^2= 2.0D+01
   Bfn.  Coefficient  Atom+Function         Bfn.  Coefficient  Atom+Function  
  ----- ------------  ---------------      ----- ------------  ---------------
   226     24.082047  15 C  s               276    -15.199300  17 N  s         
   140     13.410112   9 C  s                13    -12.331271   2 C  s         
   471     10.562727  28 N  s               233      8.402178  15 C  px        
   344     -8.250307  21 C  s               113      8.083357   7 N  px        
   283      7.534572  17 N  px              421     -7.189185  26 C  s         

 Vector  151  Occ=0.000000D+00  E= 4.588280D-01
              MO Center= -1.9D-01,  3.4D-01,  4.5D-02, r^2= 1.9D+01
   Bfn.  Coefficient  Atom+Function         Bfn.  Coefficient  Atom+Function  
  ----- ------------  ---------------      ----- ------------  ---------------
   276     20.117813  17 N  s               226    -16.070236  15 C  s         
   140    -13.987003   9 C  s                13     12.924947   2 C  s         
    56      8.239465   5 C  s               147     -8.244980   9 C  px        
   106      7.599520   7 N  s               113     -6.911728   7 N  px        
    63     -6.556769   5 C  px               64     -6.534151   5 C  py        

 Vector  152  Occ=0.000000D+00  E= 4.636922D-01
              MO Center= -1.0D-01, -4.1D-01, -3.7D-01, r^2= 1.9D+01
   Bfn.  Coefficient  Atom+Function         Bfn.  Coefficient  Atom+Function  
  ----- ------------  ---------------      ----- ------------  ---------------
   174     17.746043  11 C  s               421    -14.114600  26 C  s         
   317    -13.018766  19 C  px               56    -12.093625   5 C  s         
   344      9.853003  21 C  s               471      9.330566  28 N  s         
   147      9.122243   9 C  px              428      8.830100  26 C  px        
   173      8.398509  11 C  s               197     -7.815709  12 H  s         

 Vector  153  Occ=0.000000D+00  E= 4.674820D-01
              MO Center= -2.9D-01,  3.6D-01, -2.6D-01, r^2= 1.9D+01
   Bfn.  Coefficient  Atom+Function         Bfn.  Coefficient  Atom+Function  
  ----- ------------  ---------------      ----- ------------  ---------------
   174     12.300531  11 C  s               197     -7.914538  12 H  s         
   276     -7.155354  17 N  s               233      6.573276  15 C  px        
   163     -5.904401  10 H  s               319      5.572207  19 C  pz        
   148     -5.389774   9 C  py              367      5.372772  22 H  s         
   387     -4.667976  24 O  s               283     -4.112141  17 N  px        

 Vector  154  Occ=0.000000D+00  E= 4.728126D-01
              MO Center= -6.5D-02,  4.1D-01, -1.6D-01, r^2= 1.9D+01
   Bfn.  Coefficient  Atom+Function         Bfn.  Coefficient  Atom+Function  
  ----- ------------  ---------------      ----- ------------  ---------------
   174     27.764184  11 C  s               344    -14.807163  21 C  s         
   147     13.368658   9 C  px              317     10.698172  19 C  px        
    56     -9.192570   5 C  s               173      8.035185  11 C  s         
   234     -8.019543  15 C  py              284     -7.577871  17 N  py        
   206     -7.292834  13 H  s               215     -6.764321  14 H  s         

 Vector  155  Occ=0.000000D+00  E= 4.792077D-01
              MO Center= -2.6D-01,  7.5D-01, -1.5D-02, r^2= 1.9D+01
   Bfn.  Coefficient  Atom+Function         Bfn.  Coefficient  Atom+Function  
  ----- ------------  ---------------      ----- ------------  ---------------
   421     11.925779  26 C  s               234      9.470428  15 C  py        
   106     -7.720611   7 N  s               114      6.585167   7 N  py        
   226      6.420315  15 C  s               174     -5.998945  11 C  s         
   276     -5.331016  17 N  s                63      5.175013   5 C  px        
   471     -5.134985  28 N  s               300     -4.550141  18 H  s         

 Vector  156  Occ=0.000000D+00  E= 4.851477D-01
              MO Center= -7.6D-01,  5.6D-01, -2.6D-02, r^2= 1.8D+01
   Bfn.  Coefficient  Atom+Function         Bfn.  Coefficient  Atom+Function  
  ----- ------------  ---------------      ----- ------------  ---------------
   174     18.502734  11 C  s               226    -15.634770  15 C  s         
   421    -14.845371  26 C  s               344      9.606209  21 C  s         
   147      9.271627   9 C  px              140     -7.536786   9 C  s         
   317     -5.517479  19 C  px              181      5.095784  11 C  px        
    56     -4.853121   5 C  s               233     -4.675345  15 C  px        

 Vector  157  Occ=0.000000D+00  E= 4.894758D-01
              MO Center= -1.2D-02,  6.5D-01,  1.1D-01, r^2= 1.7D+01
   Bfn.  Coefficient  Atom+Function         Bfn.  Coefficient  Atom+Function  
  ----- ------------  ---------------      ----- ------------  ---------------
   234     14.452887  15 C  py              421     12.943339  26 C  s         
   226    -12.438434  15 C  s               174    -11.364609  11 C  s         
   318      8.821695  19 C  py              173     -8.511706  11 C  s         
   233     -8.360463  15 C  px              276      7.949217  17 N  s         
   215      7.442442  14 H  s               344      6.998081  21 C  s         

 Vector  158  Occ=0.000000D+00  E= 4.939356D-01
              MO Center=  3.8D-01,  9.1D-01, -1.6D-01, r^2= 1.9D+01
   Bfn.  Coefficient  Atom+Function         Bfn.  Coefficient  Atom+Function  
  ----- ------------  ---------------      ----- ------------  ---------------
   226     14.832002  15 C  s               140     12.364060   9 C  s         
   234     11.543965  15 C  py              174    -10.512489  11 C  s         
    13     -9.850867   2 C  s                12      9.690997   2 C  s         
   106     -8.987306   7 N  s               113      7.621889   7 N  px        
    56      7.353514   5 C  s               344      7.366521  21 C  s         

 Vector  159  Occ=0.000000D+00  E= 4.964188D-01
              MO Center=  2.0D-01,  1.6D+00, -6.4D-02, r^2= 1.8D+01
   Bfn.  Coefficient  Atom+Function         Bfn.  Coefficient  Atom+Function  
  ----- ------------  ---------------      ----- ------------  ---------------
    12     16.872315   2 C  s               344    -12.681716  21 C  s         
   174     12.531703  11 C  s               140    -10.115943   9 C  s         
   276      9.266988  17 N  s               317      8.435837  19 C  px        
    36     -8.148601   3 H  s               226     -7.668941  15 C  s         
   421      6.941470  26 C  s                45     -6.720741   4 H  s         

 Vector  160  Occ=0.000000D+00  E= 5.056767D-01
              MO Center= -4.6D-01, -3.9D-01, -1.4D-02, r^2= 1.8D+01
   Bfn.  Coefficient  Atom+Function         Bfn.  Coefficient  Atom+Function  
  ----- ------------  ---------------      ----- ------------  ---------------
   344     20.671113  21 C  s               317    -11.588024  19 C  px        
   421    -10.498568  26 C  s               387     -6.971987  24 O  s         
   173      6.859472  11 C  s               106     -6.309421   7 N  s         
   471      6.277273  28 N  s               149     -6.122452   9 C  pz        
   234      5.728378  15 C  py              428      5.283440  26 C  px        


 center of mass
 --------------
 x =   0.01860232 y =  -0.09542314 z =   0.00551216

 moments of inertia (a.u.)
 ------------------
        4242.326983211865           0.000000000001           0.000000000000
           0.000000000001        2137.427370116149           0.000000000001
           0.000000000000           0.000000000001        5989.846710417753

  Mulliken analysis of the total density
  --------------------------------------

    Atom       Charge   Shell Charges
 -----------   ------   -------------------------------------------------------
    1 H    1     0.87   0.76  0.14 -0.01  0.03 -0.06
    2 C    6     6.20   2.01  0.66  0.25  0.06  2.07  1.00  0.01  0.06  0.09
    3 H    1     0.86   0.76  0.12  0.00  0.03 -0.06
    4 H    1     0.99   0.76  0.24  0.01  0.03 -0.05
    5 C    6     5.13   2.01  0.68  0.07 -0.01  1.89  0.31 -0.00  0.24 -0.05
    6 O    8     8.88   2.01  0.81  1.00  0.17  2.81  1.89  0.19  0.02 -0.01
    7 N    7     7.59   2.01  0.72  0.83 -0.08  2.45  1.45  0.11  0.05  0.05
    8 H    1     0.97   0.77  0.21 -0.02  0.05 -0.04
    9 C    6     6.70   2.01  0.66  0.15 -0.02  1.99  1.60 -0.09  0.14  0.26
   10 H    1     1.07   0.78  0.23  0.01  0.03  0.02
   11 C    6     5.68   2.01  0.66  0.13  0.28  2.04  0.54 -0.05  0.07 -0.01
   12 H    1     0.87   0.77  0.13  0.02  0.03 -0.07
   13 H    1     0.98   0.77  0.26  0.01  0.03 -0.08
   14 H    1     0.96   0.77  0.23  0.02  0.03 -0.09
   15 C    6     4.48   2.01  0.68 -0.07 -0.01  1.89  0.14  0.02  0.24 -0.41
   16 O    8     8.83   2.01  0.82  1.02  0.16  2.79  1.87  0.15  0.01 -0.01
   17 N    7     7.63   2.01  0.72  0.84 -0.06  2.45  1.46  0.12  0.05  0.04
   18 H    1     0.85   0.74  0.17 -0.02  0.06 -0.10
   19 C    6     6.45   2.01  0.67  0.07 -0.02  2.00  1.40  0.05  0.13  0.14
   20 H    1     0.99   0.78  0.16 -0.01  0.03  0.03
   21 C    6     5.06   2.01  0.67  0.06  0.08  1.96  0.28 -0.09  0.13 -0.02
   22 H    1     0.98   0.79  0.20  0.00  0.03 -0.04
   23 H    1     1.07   0.78  0.33  0.01  0.03 -0.07
   24 O    8     8.52   2.01  0.80  0.95 -0.00  2.82  1.90  0.08  0.01 -0.04
   25 H    1     0.87   0.71  0.09 -0.00  0.08 -0.01
   26 C    6     4.61   2.01  0.68  0.06  0.06  1.89 -0.12 -0.02  0.24 -0.18
   27 O    8     8.75   2.01  0.82  1.02  0.15  2.79  1.82  0.14  0.01 -0.01
   28 N    7     7.23   2.01  0.72  0.81 -0.14  2.47  1.25  0.09  0.04 -0.03
   29 H    1     1.01   0.76  0.23 -0.00  0.05 -0.03
   30 H    1     0.91   0.73  0.20 -0.01  0.06 -0.06

       Multipole analysis of the density wrt the origin
       ------------------------------------------------

     L   x y z        total         open         nuclear
     -   - - -        -----         ----         -------
     0   0 0 0     -0.000000      0.000000    116.000000

     1   1 0 0     -1.309541      0.000000      0.000000
     1   0 1 0      3.016280      0.000000      0.000000
     1   0 0 1      0.026018      0.000000     -0.000000

     2   2 0 0    -70.333331      0.000000   1093.235965
     2   1 1 0      3.635471      0.000000     -4.387360
     2   1 0 1     -3.678647      0.000000    -10.046675
     2   0 2 0    -64.611993      0.000000   2216.009056
     2   0 1 1     -0.811052      0.000000     -7.639791
     2   0 0 2    -68.598759      0.000000    117.901166


 Task  times  cpu:     3359.5s     wall:     3420.4s


                                NWChem Input Module
                                -------------------


 Summary of allocated global arrays
-----------------------------------
  No active global arrays


MA_summarize_allocated_blocks: starting scan ...
MA_summarize_allocated_blocks: scan completed: 0 heap blocks, 0 stack blocks
MA usage statistics:

	allocation statistics:
					      heap	     stack
					      ----	     -----
	current number of blocks	         0	         0
	maximum number of blocks	        16	        14
	current total bytes		         0	         0
	maximum total bytes		    107312	  24874792
	maximum total K-bytes		       108	     24875
	maximum total M-bytes		         1	        25


                                     CITATION
                                     --------
                Please cite the following reference when publishing
                           results obtained with NWChem:

          E. Apra, E. J. Bylaska, W. A. de Jong, N. Govind, K. Kowalski,
       T. P. Straatsma, M. Valiev, H. J. J. van Dam, Y. Alexeev, J. Anchell,
       V. Anisimov, F. W. Aquino, R. Atta-Fynn, J. Autschbach, N. P. Bauman,
     J. C. Becca, D. E. Bernholdt, K. Bhaskaran-Nair, S. Bogatko, P. Borowski,
         J. Boschen, J. Brabec, A. Bruner, E. Cauet, Y. Chen, G. N. Chuev,
      C. J. Cramer, J. Daily, M. J. O. Deegan, T. H. Dunning Jr., M. Dupuis,
   K. G. Dyall, G. I. Fann, S. A. Fischer, A. Fonari, H. Fruchtl, L. Gagliardi,
      J. Garza, N. Gawande, S. Ghosh, K. Glaesemann, A. W. Gotz, J. Hammond,
       V. Helms, E. D. Hermes, K. Hirao, S. Hirata, M. Jacquelin, L. Jensen,
   B. G. Johnson, H. Jonsson, R. A. Kendall, M. Klemm, R. Kobayashi, V. Konkov,
      S. Krishnamoorthy, M. Krishnan, Z. Lin, R. D. Lins, R. J. Littlefield,
      A. J. Logsdail, K. Lopata, W. Ma, A. V. Marenich, J. Martin del Campo,
   D. Mejia-Rodriguez, J. E. Moore, J. M. Mullin, T. Nakajima, D. R. Nascimento,
    J. A. Nichols, P. J. Nichols, J. Nieplocha, A. Otero-de-la-Roza, B. Palmer,
    A. Panyala, T. Pirojsirikul, B. Peng, R. Peverati, J. Pittner, L. Pollack,
   R. M. Richard, P. Sadayappan, G. C. Schatz, W. A. Shelton, D. W. Silverstein,
   D. M. A. Smith, T. A. Soares, D. Song, M. Swart, H. L. Taylor, G. S. Thomas,
            V. Tipparaju, D. G. Truhlar, K. Tsemekhman, T. Van Voorhis,
      A. Vazquez-Mayagoitia, P. Verma, O. Villa, A. Vishnu, K. D. Vogiatzis,
        D. Wang, J. H. Weare, M. J. Williamson, T. L. Windus, K. Wolinski,
        A. T. Wong, Q. Wu, C. Yang, Q. Yu, M. Zacharias, Z. Zhang, Y. Zhao,
                                and R. J. Harrison
                        "NWChem: Past, present, and future
                         J. Chem. Phys. 152, 184102 (2020)
                               doi:10.1063/5.0004997

                                      AUTHORS
                                      -------
  E. Apra, E. J. Bylaska, N. Govind, K. Kowalski, M. Valiev, D. Mejia-Rodriguez,
       A. Kunitsa, N. P. Bauman, A. Panyala, W. A. de Jong, T. P. Straatsma,
   H. J. J. van Dam, D. Wang, T. L. Windus, J. Hammond, J. Autschbach, A. Woods,
    K. Bhaskaran-Nair, J. Brabec, K. Lopata, S. A. Fischer, S. Krishnamoorthy,
     M. Jacquelin, W. Ma, M. Klemm, O. Villa, Y. Chen, V. Anisimov, F. Aquino,
     S. Hirata, M. T. Hackler, E. Hermes, L. Jensen, J. E. Moore, J. C. Becca,
      V. Konjkov, T. Risthaus, M. Malagoli, A. Marenich, A. Otero-de-la-Roza,
        J. Mullin, P. Nichols, R. Peverati, J. Pittner, Y. Zhao, P.-D. Fan,
        A. Fonari, M. J. Williamson, R. J. Harrison, J. R. Rehr, M. Dupuis,
     D. Silverstein, D. M. A. Smith, J. Nieplocha, V. Tipparaju, M. Krishnan,
     B. E. Van Kuiken, A. Vazquez-Mayagoitia, M. Swart, Q. Wu, T. Van Voorhis,
     A. A. Auer, M. Nooijen, L. D. Crosby, E. Brown, G. Cisneros, G. I. Fann,
   H. Fruchtl, J. Garza, K. Hirao, R. A. Kendall, J. A. Nichols, K. Tsemekhman,
    K. Wolinski, J. Anchell, D. E. Bernholdt, P. Borowski, T. Clark, D. Clerc,
   H. Dachsel, M. J. O. Deegan, K. Dyall, D. Elwood, E. Glendening, M. Gutowski,
   A. C. Hess, J. Jaffe, B. G. Johnson, J. Ju, R. Kobayashi, R. Kutteh, Z. Lin,
   R. Littlefield, X. Long, B. Meng, T. Nakajima, S. Niu, L. Pollack, M. Rosing,
   K. Glaesemann, G. Sandrone, M. Stave, H. Taylor, G. Thomas, J. H. van Lenthe,
                               A. T. Wong, Z. Zhang.

 Total times  cpu:     3359.5s     wall:     3420.9s
