export TMOUT=5400
export TMPDIR=/tmp
export PTMPDIR=/tmp/ptmp
 argument  1 = ALA_ALA_0.nw
                                         
                                         


             Northwest Computational Chemistry Package (NWChem) 7.2.0
             --------------------------------------------------------


                    Environmental Molecular Sciences Laboratory
                       Pacific Northwest National Laboratory
                                Richland, WA 99352

                              Copyright (c) 1994-2022
                       Pacific Northwest National Laboratory
                            Battelle Memorial Institute

             NWChem is an open-source computational chemistry package
                        distributed under the terms of the
                      Educational Community License (ECL) 2.0
             A copy of the license is included with this distribution
                              in the LICENSE.TXT file

                                  ACKNOWLEDGMENT
                                  --------------

            This software and its documentation were developed at the
            EMSL at Pacific Northwest National Laboratory, a multiprogram
            national laboratory, operated for the U.S. Department of Energy
            by Battelle under Contract Number DE-AC05-76RL01830. Support
            for this work was provided by the Department of Energy Office
            of Biological and Environmental Research, Office of Basic
            Energy Sciences, and the Office of Advanced Scientific Computing.


           Job information
           ---------------

    hostname        = nova18-wide-12
    program         = /opt/rit/el9/20230413/app/linux-rhel9-x86_64_v3/gcc-11.2.1/nwchem-7.2.0-oxtctbuhfuzyfaoziquq6bki22grib3g/bin/nwchem
    date            = Mon Jun 23 15:46:30 2025

    compiled        = Wed_May_17_23:46:39_2023
    source          = /tmp/root/spack-stage/spack-stage-nwchem-7.2.0-oxtctbuhfuzyfaoziquq6bki22grib3g/spack-src
    nwchem branch   = 7.2.0
    nwchem revision = d0d141fd
    ga revision     = 5.8.0
    use scalapack   = T
    input           = ALA_ALA_0.nw
    prefix          = ALA_ALA_0.
    data base       = ./ALA_ALA_0.db
    status          = startup
    nproc           =        8
    time left       =     -1s



           Memory information
           ------------------

    heap     =   26214396 doubles =    200.0 Mbytes
    stack    =   26214401 doubles =    200.0 Mbytes
    global   =   52428800 doubles =    400.0 Mbytes (distinct from heap & stack)
    total    =  104857597 doubles =    800.0 Mbytes
    verify   = yes
    hardfail = no 


           Directory information
           ---------------------

  0 permanent = .
  0 scratch   = .




                                NWChem Input Module
                                -------------------



 Scaling coordinates for geometry "geometry" by  1.889725989
 (inverse scale =  0.529177249)

 C1  symmetry detected

          ------
          auto-z
          ------
  no constraints, skipping    0.0000000000000000     
  no constraints, skipping    0.0000000000000000     


                             Geometry "geometry" -> ""
                             -------------------------

 Output coordinates in angstroms (scale by  1.889725989 to convert to a.u.)

  No.       Tag          Charge          X              Y              Z
 ---- ---------------- ---------- -------------- -------------- --------------
    1 H                    1.0000    -1.36825639    -4.61776400    -0.10250277
    2 C                    6.0000    -1.81214922    -3.65504002    -0.34978942
    3 H                    1.0000    -2.82211818    -3.60583622     0.05541507
    4 H                    1.0000    -1.84759264    -3.52656035    -1.42991429
    5 C                    6.0000    -0.98565905    -2.54898097     0.26189954
    6 O                    8.0000    -1.48796779    -1.77746863     1.06810835
    7 N                    7.0000     0.28360384    -2.46012810    -0.13172832
    8 H                    1.0000     0.61187679    -3.12819277    -0.80881655
    9 C                    6.0000     1.25251604    -1.47507972     0.36353305
   10 H                    1.0000     1.13159546    -1.40293043     1.44573714
   11 C                    6.0000     2.66317983    -2.02035826     0.09020543
   12 H                    1.0000     2.83429802    -2.09718739    -0.98429810
   13 H                    1.0000     3.40585971    -1.34537111     0.51797635
   14 H                    1.0000     2.77968633    -3.00314531     0.54853157
   15 C                    6.0000     1.02713252    -0.04721874    -0.19683228
   16 O                    8.0000     1.93778401     0.56930205    -0.74839186
   17 N                    7.0000    -0.19560533     0.47862911    -0.07730743
   18 H                    1.0000    -0.88887616    -0.08209866     0.40634941
   19 C                    6.0000    -0.63992895     1.77220049    -0.61120498
   20 H                    1.0000    -0.24350603     1.86589448    -1.62334149
   21 C                    6.0000    -2.17248909     1.72988443    -0.71576472
   22 H                    1.0000    -2.53376215     2.64206002    -1.19379763
   23 H                    1.0000    -2.48381471     0.87249203    -1.31424834
   24 H                    1.0000    -2.61143668     1.65548964     0.27987348
   25 C                    6.0000    -0.11502126     3.00372770     0.17305497
   26 O                    8.0000    -0.84434956     3.94991558     0.44557419
   27 N                    7.0000     1.14738074     3.01289336     0.57865229
   28 H                    1.0000     1.75811592     2.25377746     0.31010139
   29 H                    1.0000     1.48105786     3.81081060     1.09268404

      Atomic Mass 
      ----------- 

      H                  1.007825
      C                 12.000000
      O                 15.994910
      N                 14.003070


 Effective nuclear repulsion energy (a.u.)     955.6000417949

            Nuclear Dipole moment (a.u.) 
            ----------------------------
        X                 Y               Z
 ---------------- ---------------- ----------------
    -0.0000000000     0.0000000000    -0.0000000000



                                Z-matrix (autoz)
                                -------- 

 Units are Angstrom for bonds and degrees for angles

      Type          Name      I     J     K     L     M      Value
      ----------- --------  ----- ----- ----- ----- ----- ----------
    1 Stretch                  1     2                       1.08859
    2 Stretch                  2     3                       1.08933
    3 Stretch                  2     4                       1.08832
    4 Stretch                  2     5                       1.51017
    5 Stretch                  5     6                       1.22373
    6 Stretch                  5     7                       1.33187
    7 Stretch                  7     8                       1.00624
    8 Stretch                  7     9                       1.46779
    9 Stretch                  9    10                       1.09133
   10 Stretch                  9    11                       1.53688
   11 Stretch                  9    15                       1.55035
   12 Stretch                 11    12                       1.09075
   13 Stretch                 11    13                       1.09095
   14 Stretch                 11    14                       1.09065
   15 Stretch                 15    16                       1.23029
   16 Stretch                 15    17                       1.33637
   17 Stretch                 17    18                       1.01438
   18 Stretch                 17    19                       1.46826
   19 Stretch                 19    20                       1.09103
   20 Stretch                 19    21                       1.53671
   21 Stretch                 19    25                       1.55153
   22 Stretch                 21    22                       1.09137
   23 Stretch                 21    23                       1.09098
   24 Stretch                 21    24                       1.09064
   25 Stretch                 25    26                       1.22534
   26 Stretch                 25    27                       1.32599
   27 Stretch                 27    28                       1.01063
   28 Stretch                 27    29                       1.00610
   29 Bend                     1     2     3               109.48180
   30 Bend                     1     2     4               110.06806
   31 Bend                     1     2     5               109.42347
   32 Bend                     2     5     6               120.26213
   33 Bend                     2     5     7               116.78921
   34 Bend                     3     2     4               109.49033
   35 Bend                     3     2     5               108.88445
   36 Bend                     4     2     5               109.47270
   37 Bend                     5     7     8               117.74128
   38 Bend                     5     7     9               125.03934
   39 Bend                     6     5     7               122.94467
   40 Bend                     7     9    10               107.80789
   41 Bend                     7     9    11               107.92604
   42 Bend                     7     9    15               113.58844
   43 Bend                     8     7     9               117.21023
   44 Bend                     9    11    12               110.13195
   45 Bend                     9    11    13               109.60927
   46 Bend                     9    11    14               110.06108
   47 Bend                     9    15    16               121.06182
   48 Bend                     9    15    17               117.58646
   49 Bend                    10     9    11               107.54872
   50 Bend                    10     9    15               106.34536
   51 Bend                    11     9    15               113.32326
   52 Bend                    12    11    13               108.84742
   53 Bend                    12    11    14               109.49618
   54 Bend                    13    11    14               108.66470
   55 Bend                    15    17    18               116.77331
   56 Bend                    15    17    19               126.23057
   57 Bend                    16    15    17               121.34348
   58 Bend                    17    19    20               107.63993
   59 Bend                    17    19    21               107.59479
   60 Bend                    17    19    25               114.40137
   61 Bend                    18    17    19               116.97263
   62 Bend                    19    21    22               109.68935
   63 Bend                    19    21    23               110.09402
   64 Bend                    19    21    24               109.94662
   65 Bend                    19    25    26               121.59908
   66 Bend                    19    25    27               118.82879
   67 Bend                    20    19    21               107.55434
   68 Bend                    20    19    25               106.13086
   69 Bend                    21    19    25               113.18204
   70 Bend                    22    21    23               108.79055
   71 Bend                    22    21    24               108.88320
   72 Bend                    23    21    24               109.41045
   73 Bend                    25    27    28               119.26554
   74 Bend                    25    27    29               118.52293
   75 Bend                    26    25    27               119.55736
   76 Bend                    28    27    29               122.07622
   77 Torsion                  1     2     5     6        -120.03322
   78 Torsion                  1     2     5     7          60.67242
   79 Torsion                  2     5     7     8           0.14481
   80 Torsion                  2     5     7     9        -178.72086
   81 Torsion                  3     2     5     6          -0.40484
   82 Torsion                  3     2     5     7        -179.69921
   83 Torsion                  4     2     5     6         119.26318
   84 Torsion                  4     2     5     7         -60.03118
   85 Torsion                  5     7     9    10          43.02865
   86 Torsion                  5     7     9    11         158.92598
   87 Torsion                  5     7     9    15         -74.53917
   88 Torsion                  6     5     7     8        -179.12893
   89 Torsion                  6     5     7     9           2.00541
   90 Torsion                  7     9    11    12          64.68068
   91 Torsion                  7     9    11    13        -175.59318
   92 Torsion                  7     9    11    14         -56.13572
   93 Torsion                  7     9    15    16        -126.52046
   94 Torsion                  7     9    15    17          52.44896
   95 Torsion                  8     7     9    10        -135.84247
   96 Torsion                  8     7     9    11         -19.94514
   97 Torsion                  8     7     9    15         106.58971
   98 Torsion                  9    15    17    18           2.24652
   99 Torsion                  9    15    17    19        -175.92800
  100 Torsion                 10     9    11    12        -179.25249
  101 Torsion                 10     9    11    13         -59.52636
  102 Torsion                 10     9    11    14          59.93110
  103 Torsion                 10     9    15    16         115.06637
  104 Torsion                 10     9    15    17         -65.96421
  105 Torsion                 11     9    15    16          -2.87869
  106 Torsion                 11     9    15    17         176.09073
  107 Torsion                 12    11     9    15         -62.00903
  108 Torsion                 13    11     9    15          57.71711
  109 Torsion                 14    11     9    15         177.17457
  110 Torsion                 15    17    19    20          43.16018
  111 Torsion                 15    17    19    21         158.80962
  112 Torsion                 15    17    19    25         -74.51064
  113 Torsion                 16    15    17    18        -178.78713
  114 Torsion                 16    15    17    19           3.03835
  115 Torsion                 17    19    21    22        -174.92080
  116 Torsion                 17    19    21    23         -55.23818
  117 Torsion                 17    19    21    24          65.37383
  118 Torsion                 17    19    25    26        -136.54872
  119 Torsion                 17    19    25    27          42.04697
  120 Torsion                 18    17    19    20        -135.01111
  121 Torsion                 18    17    19    21         -19.36168
  122 Torsion                 18    17    19    25         107.31807
  123 Torsion                 19    25    27    28           4.58227
  124 Torsion                 19    25    27    29        -179.55742
  125 Torsion                 20    19    21    22         -59.21490
  126 Torsion                 20    19    21    23          60.46772
  127 Torsion                 20    19    21    24        -178.92027
  128 Torsion                 20    19    25    26         104.92253
  129 Torsion                 20    19    25    27         -76.48179
  130 Torsion                 21    19    25    26         -12.81361
  131 Torsion                 21    19    25    27         165.78207
  132 Torsion                 22    21    19    25          57.68698
  133 Torsion                 23    21    19    25         177.36960
  134 Torsion                 24    21    19    25         -62.01838
  135 Torsion                 26    25    27    28        -176.79277
  136 Torsion                 26    25    27    29          -0.93246


            XYZ format geometry
            -------------------
    29
 geometry
 H                    -1.36825639    -4.61776400    -0.10250277
 C                    -1.81214922    -3.65504002    -0.34978942
 H                    -2.82211818    -3.60583622     0.05541507
 H                    -1.84759264    -3.52656035    -1.42991429
 C                    -0.98565905    -2.54898097     0.26189954
 O                    -1.48796779    -1.77746863     1.06810835
 N                     0.28360384    -2.46012810    -0.13172832
 H                     0.61187679    -3.12819277    -0.80881655
 C                     1.25251604    -1.47507972     0.36353305
 H                     1.13159546    -1.40293043     1.44573714
 C                     2.66317983    -2.02035826     0.09020543
 H                     2.83429802    -2.09718739    -0.98429810
 H                     3.40585971    -1.34537111     0.51797635
 H                     2.77968633    -3.00314531     0.54853157
 C                     1.02713252    -0.04721874    -0.19683228
 O                     1.93778401     0.56930205    -0.74839186
 N                    -0.19560533     0.47862911    -0.07730743
 H                    -0.88887616    -0.08209866     0.40634941
 C                    -0.63992895     1.77220049    -0.61120498
 H                    -0.24350603     1.86589448    -1.62334149
 C                    -2.17248909     1.72988443    -0.71576472
 H                    -2.53376215     2.64206002    -1.19379763
 H                    -2.48381471     0.87249203    -1.31424834
 H                    -2.61143668     1.65548964     0.27987348
 C                    -0.11502126     3.00372770     0.17305497
 O                    -0.84434956     3.94991558     0.44557419
 N                     1.14738074     3.01289336     0.57865229
 H                     1.75811592     2.25377746     0.31010139
 H                     1.48105786     3.81081060     1.09268404

 ==============================================================================
                                internuclear distances
 ------------------------------------------------------------------------------
       center one      |      center two      | atomic units |  angstroms
 ------------------------------------------------------------------------------
    2 C                |   1 H                |     2.05714  |     1.08859
    3 H                |   2 C                |     2.05854  |     1.08933
    4 H                |   2 C                |     2.05662  |     1.08832
    5 C                |   2 C                |     2.85381  |     1.51017
    6 O                |   5 C                |     2.31252  |     1.22373
    7 N                |   5 C                |     2.51686  |     1.33187
    8 H                |   7 N                |     1.90152  |     1.00624
    9 C                |   7 N                |     2.77371  |     1.46779
   10 H                |   9 C                |     2.06231  |     1.09133
   11 C                |   9 C                |     2.90429  |     1.53688
   12 H                |  11 C                |     2.06122  |     1.09075
   13 H                |  11 C                |     2.06159  |     1.09095
   14 H                |  11 C                |     2.06102  |     1.09065
   15 C                |   9 C                |     2.92974  |     1.55035
   16 O                |  15 C                |     2.32490  |     1.23029
   17 N                |  15 C                |     2.52538  |     1.33637
   18 H                |  17 N                |     1.91690  |     1.01438
   19 C                |  17 N                |     2.77462  |     1.46826
   20 H                |  19 C                |     2.06175  |     1.09103
   21 C                |  19 C                |     2.90395  |     1.53671
   22 H                |  21 C                |     2.06240  |     1.09137
   23 H                |  21 C                |     2.06165  |     1.09098
   24 H                |  21 C                |     2.06102  |     1.09064
   25 C                |  19 C                |     2.93197  |     1.55153
   26 O                |  25 C                |     2.31556  |     1.22534
   27 N                |  25 C                |     2.50576  |     1.32599
   28 H                |  27 N                |     1.90981  |     1.01063
   29 H                |  27 N                |     1.90126  |     1.00610
 ------------------------------------------------------------------------------
                         number of included internuclear distances:         28
 ==============================================================================



 ==============================================================================
                                 internuclear angles
 ------------------------------------------------------------------------------
        center 1       |       center 2       |       center 3       |  degrees
 ------------------------------------------------------------------------------
    1 H                |   2 C                |   3 H                |   109.48
    1 H                |   2 C                |   4 H                |   110.07
    1 H                |   2 C                |   5 C                |   109.42
    3 H                |   2 C                |   4 H                |   109.49
    3 H                |   2 C                |   5 C                |   108.88
    4 H                |   2 C                |   5 C                |   109.47
    2 C                |   5 C                |   6 O                |   120.26
    2 C                |   5 C                |   7 N                |   116.79
    6 O                |   5 C                |   7 N                |   122.94
    5 C                |   7 N                |   8 H                |   117.74
    5 C                |   7 N                |   9 C                |   125.04
    8 H                |   7 N                |   9 C                |   117.21
    7 N                |   9 C                |  10 H                |   107.81
    7 N                |   9 C                |  11 C                |   107.93
    7 N                |   9 C                |  15 C                |   113.59
   10 H                |   9 C                |  11 C                |   107.55
   10 H                |   9 C                |  15 C                |   106.35
   11 C                |   9 C                |  15 C                |   113.32
    9 C                |  11 C                |  12 H                |   110.13
    9 C                |  11 C                |  13 H                |   109.61
    9 C                |  11 C                |  14 H                |   110.06
   12 H                |  11 C                |  13 H                |   108.85
   12 H                |  11 C                |  14 H                |   109.50
   13 H                |  11 C                |  14 H                |   108.66
    9 C                |  15 C                |  16 O                |   121.06
    9 C                |  15 C                |  17 N                |   117.59
   16 O                |  15 C                |  17 N                |   121.34
   15 C                |  17 N                |  18 H                |   116.77
   15 C                |  17 N                |  19 C                |   126.23
   18 H                |  17 N                |  19 C                |   116.97
   17 N                |  19 C                |  20 H                |   107.64
   17 N                |  19 C                |  21 C                |   107.59
   17 N                |  19 C                |  25 C                |   114.40
   20 H                |  19 C                |  21 C                |   107.55
   20 H                |  19 C                |  25 C                |   106.13
   21 C                |  19 C                |  25 C                |   113.18
   19 C                |  21 C                |  22 H                |   109.69
   19 C                |  21 C                |  23 H                |   110.09
   19 C                |  21 C                |  24 H                |   109.95
   22 H                |  21 C                |  23 H                |   108.79
   22 H                |  21 C                |  24 H                |   108.88
   23 H                |  21 C                |  24 H                |   109.41
   19 C                |  25 C                |  26 O                |   121.60
   19 C                |  25 C                |  27 N                |   118.83
   26 O                |  25 C                |  27 N                |   119.56
   25 C                |  27 N                |  28 H                |   119.27
   25 C                |  27 N                |  29 H                |   118.52
   28 H                |  27 N                |  29 H                |   122.08
 ------------------------------------------------------------------------------
                            number of included internuclear angles:         48
 ==============================================================================



  library name resolved from: environment
  library file name is: </opt/rit/el9/20230413/app/linux-rhel9-x86_64_v3/gcc-11.2.1/nwchem-7.2.0-oxtctbuhfuzyfaoziquq6bki22grib3g/share/nwchem/libraries/>
  


 Summary of "ao basis" -> "" (cartesian)
 ------------------------------------------------------------------------------
       Tag                 Description            Shells   Functions and Types
 ---------------- ------------------------------  ------  ---------------------
 *                        aug-cc-pvdz                 on all atoms 


                      Basis "ao basis" -> "ao basis" (cartesian)
                      -----
  H (Hydrogen)
  ------------
            Exponent  Coefficients 
       -------------- ---------------------------------------------------------
  1 S  1.30100000E+01  0.019685
  1 S  1.96200000E+00  0.137977
  1 S  4.44600000E-01  0.478148

  2 S  1.22000000E-01  1.000000

  3 S  2.97400000E-02  1.000000

  4 P  7.27000000E-01  1.000000

  5 P  1.41000000E-01  1.000000

  C (Carbon)
  ----------
            Exponent  Coefficients 
       -------------- ---------------------------------------------------------
  1 S  6.66500000E+03  0.000692
  1 S  1.00000000E+03  0.005329
  1 S  2.28000000E+02  0.027077
  1 S  6.47100000E+01  0.101718
  1 S  2.10600000E+01  0.274740
  1 S  7.49500000E+00  0.448564
  1 S  2.79700000E+00  0.285074
  1 S  5.21500000E-01  0.015204

  2 S  6.66500000E+03 -0.000146
  2 S  1.00000000E+03 -0.001154
  2 S  2.28000000E+02 -0.005725
  2 S  6.47100000E+01 -0.023312
  2 S  2.10600000E+01 -0.063955
  2 S  7.49500000E+00 -0.149981
  2 S  2.79700000E+00 -0.127262
  2 S  5.21500000E-01  0.544529

  3 S  1.59600000E-01  1.000000

  4 S  4.69000000E-02  1.000000

  5 P  9.43900000E+00  0.038109
  5 P  2.00200000E+00  0.209480
  5 P  5.45600000E-01  0.508557

  6 P  1.51700000E-01  1.000000

  7 P  4.04100000E-02  1.000000

  8 D  5.50000000E-01  1.000000

  9 D  1.51000000E-01  1.000000

  O (Oxygen)
  ----------
            Exponent  Coefficients 
       -------------- ---------------------------------------------------------
  1 S  1.17200000E+04  0.000710
  1 S  1.75900000E+03  0.005470
  1 S  4.00800000E+02  0.027837
  1 S  1.13700000E+02  0.104800
  1 S  3.70300000E+01  0.283062
  1 S  1.32700000E+01  0.448719
  1 S  5.02500000E+00  0.270952
  1 S  1.01300000E+00  0.015458

  2 S  1.17200000E+04 -0.000160
  2 S  1.75900000E+03 -0.001263
  2 S  4.00800000E+02 -0.006267
  2 S  1.13700000E+02 -0.025716
  2 S  3.70300000E+01 -0.070924
  2 S  1.32700000E+01 -0.165411
  2 S  5.02500000E+00 -0.116955
  2 S  1.01300000E+00  0.557368

  3 S  3.02300000E-01  1.000000

  4 S  7.89600000E-02  1.000000

  5 P  1.77000000E+01  0.043018
  5 P  3.85400000E+00  0.228913
  5 P  1.04600000E+00  0.508728

  6 P  2.75300000E-01  1.000000

  7 P  6.85600000E-02  1.000000

  8 D  1.18500000E+00  1.000000

  9 D  3.32000000E-01  1.000000

  N (Nitrogen)
  ------------
            Exponent  Coefficients 
       -------------- ---------------------------------------------------------
  1 S  9.04600000E+03  0.000700
  1 S  1.35700000E+03  0.005389
  1 S  3.09300000E+02  0.027406
  1 S  8.77300000E+01  0.103207
  1 S  2.85600000E+01  0.278723
  1 S  1.02100000E+01  0.448540
  1 S  3.83800000E+00  0.278238
  1 S  7.46600000E-01  0.015440

  2 S  9.04600000E+03 -0.000153
  2 S  1.35700000E+03 -0.001208
  2 S  3.09300000E+02 -0.005992
  2 S  8.77300000E+01 -0.024544
  2 S  2.85600000E+01 -0.067459
  2 S  1.02100000E+01 -0.158078
  2 S  3.83800000E+00 -0.121831
  2 S  7.46600000E-01  0.549003

  3 S  2.24800000E-01  1.000000

  4 S  6.12400000E-02  1.000000

  5 P  1.35500000E+01  0.039919
  5 P  2.91700000E+00  0.217169
  5 P  7.97300000E-01  0.510319

  6 P  2.18500000E-01  1.000000

  7 P  5.61100000E-02  1.000000

  8 D  8.17000000E-01  1.000000

  9 D  2.30000000E-01  1.000000



 Summary of "ao basis" -> "ao basis" (cartesian)
 ------------------------------------------------------------------------------
       Tag                 Description            Shells   Functions and Types
 ---------------- ------------------------------  ------  ---------------------
 H                        aug-cc-pvdz                5        9   3s2p
 C                        aug-cc-pvdz                9       25   4s3p2d
 O                        aug-cc-pvdz                9       25   4s3p2d
 N                        aug-cc-pvdz                9       25   4s3p2d


                                 NWChem SCF Module
                                 -----------------



  ao basis        = "ao basis"
  functions       =   485
  atoms           =    29
  closed shells   =    54
  open shells     =     0
  charge          =   0.00
  wavefunction    = RHF 
  input vectors   = atomic
  output vectors  = ./ALA_ALA_0.movecs
  use symmetry    = F
  symmetry adapt  = F


 Summary of "ao basis" -> "ao basis" (cartesian)
 ------------------------------------------------------------------------------
       Tag                 Description            Shells   Functions and Types
 ---------------- ------------------------------  ------  ---------------------
 H                        aug-cc-pvdz                5        9   3s2p
 C                        aug-cc-pvdz                9       25   4s3p2d
 O                        aug-cc-pvdz                9       25   4s3p2d
 N                        aug-cc-pvdz                9       25   4s3p2d



 Forming initial guess at       0.8s


 !! The overlap matrix has   3 vectors deemed linearly dependent with
    eigenvalues:
 3.52D-06 6.52D-06 9.95D-06


      Superposition of Atomic Density Guess
      -------------------------------------

 Sum of atomic energies:        -696.03477360

      Non-variational initial energy
      ------------------------------

 Total energy =    -705.015725
 1-e energy   =   -2843.186620
 2-e energy   =    1182.570853
 HOMO         =      -0.308101
 LUMO         =       0.005347


 Starting SCF solution at     123.2s



 ----------------------------------------------
         Quadratically convergent ROHF

 Convergence threshold     :          1.000E-04
 Maximum no. of iterations :           30
 Final Fock-matrix accuracy:          1.000E-10
 ----------------------------------------------


              iter       energy          gnorm     gmax       time
             ----- ------------------- --------- --------- --------
                 1     -699.4455657893  2.32D+00  1.52D-01    249.5
                 2     -699.7298555602  7.66D-01  3.77D-02    563.0
                 3     -699.7815678695  6.10D-02  4.64D-03    924.4
                 4     -699.7821530861  1.68D-03  1.09D-04   1645.2
                 5     -699.7821534418  4.48D-06  4.85D-07   2672.7


       Final RHF  results 
       ------------------ 

         Total SCF energy =   -699.782153441754
      One-electron energy =  -2853.301148575992
      Two-electron energy =   1197.918953339378
 Nuclear repulsion energy =    955.600041794860

        Time for solution =   2551.8s


             Final eigenvalues
             -----------------

              1      
    1  -20.5502
    2  -20.5413
    3  -20.5102
    4  -15.6244
    5  -15.5966
    6  -15.5723
    7  -11.3800
    8  -11.3704
    9  -11.3443
   10  -11.3152
   11  -11.2933
   12  -11.2619
   13  -11.2522
   14  -11.2295
   15   -1.4166
   16   -1.4004
   17   -1.3714
   18   -1.2722
   19   -1.2450
   20   -1.2007
   21   -1.0792
   22   -1.0373
   23   -1.0109
   24   -0.9149
   25   -0.8852
   26   -0.8332
   27   -0.8043
   28   -0.7776
   29   -0.7358
   30   -0.7287
   31   -0.7051
   32   -0.6914
   33   -0.6707
   34   -0.6627
   35   -0.6355
   36   -0.6122
   37   -0.6061
   38   -0.5940
   39   -0.5900
   40   -0.5697
   41   -0.5659
   42   -0.5544
   43   -0.5491
   44   -0.5468
   45   -0.5360
   46   -0.5302
   47   -0.5233
   48   -0.5020
   49   -0.4620
   50   -0.4455
   51   -0.4338
   52   -0.4109
   53   -0.3940
   54   -0.3851
   55    0.0200
   56    0.0343
   57    0.0393
   58    0.0411
   59    0.0512
   60    0.0554
   61    0.0582
   62    0.0630
   63    0.0663
   64    0.0712

                       ROHF Final Molecular Orbital Analysis
                       -------------------------------------

 Vector   15  Occ=2.000000D+00  E=-1.416592D+00
              MO Center= -9.4D-01, -1.9D+00,  6.1D-01, r^2= 1.8D+00
   Bfn.  Coefficient  Atom+Function         Bfn.  Coefficient  Atom+Function  
  ----- ------------  ---------------      ----- ------------  ---------------
    80      0.340263   6 O  s                79      0.335293   6 O  s         
    54      0.235495   5 C  s                12      0.190969   2 C  s         

 Vector   16  Occ=2.000000D+00  E=-1.400373D+00
              MO Center=  1.2D+00,  2.6D-01, -4.1D-01, r^2= 2.1D+00
   Bfn.  Coefficient  Atom+Function         Bfn.  Coefficient  Atom+Function  
  ----- ------------  ---------------      ----- ------------  ---------------
   250      0.359534  16 O  s               249      0.340491  16 O  s         
   224      0.229399  15 C  s         

 Vector   17  Occ=2.000000D+00  E=-1.371408D+00
              MO Center= -4.0D-01,  3.5D+00,  3.5D-01, r^2= 1.1D+00
   Bfn.  Coefficient  Atom+Function         Bfn.  Coefficient  Atom+Function  
  ----- ------------  ---------------      ----- ------------  ---------------
   420      0.373098  26 O  s               419      0.350565  26 O  s         
   394      0.243923  25 C  s         

 Vector   18  Occ=2.000000D+00  E=-1.272182D+00
              MO Center=  8.0D-02, -2.2D+00,  6.9D-02, r^2= 1.9D+00
   Bfn.  Coefficient  Atom+Function         Bfn.  Coefficient  Atom+Function  
  ----- ------------  ---------------      ----- ------------  ---------------
   105      0.404538   7 N  s               104      0.340102   7 N  s         
    80     -0.216622   6 O  s                79     -0.181729   6 O  s         
   128      0.156844   8 H  s                57      0.155817   5 C  px        

 Vector   19  Occ=2.000000D+00  E=-1.245042D+00
              MO Center=  6.1D-02,  5.6D-01, -1.8D-01, r^2= 2.1D+00
   Bfn.  Coefficient  Atom+Function         Bfn.  Coefficient  Atom+Function  
  ----- ------------  ---------------      ----- ------------  ---------------
   275      0.384825  17 N  s               274      0.339804  17 N  s         
   250     -0.203932  16 O  s               227     -0.179637  15 C  px        
   249     -0.162670  16 O  s         

 Vector   20  Occ=2.000000D+00  E=-1.200651D+00
              MO Center=  7.3D-01,  3.0D+00,  4.7D-01, r^2= 1.6D+00
   Bfn.  Coefficient  Atom+Function         Bfn.  Coefficient  Atom+Function  
  ----- ------------  ---------------      ----- ------------  ---------------
   445      0.384656  27 N  s               444      0.368217  27 N  s         
   420     -0.216173  26 O  s               397      0.198461  25 C  px        
   419     -0.176423  26 O  s               468      0.165066  28 H  s         
   477      0.157757  29 H  s         

 Vector   21  Occ=2.000000D+00  E=-1.079235D+00
              MO Center=  5.8D-01, -1.7D+00,  4.1D-02, r^2= 5.3D+00
   Bfn.  Coefficient  Atom+Function         Bfn.  Coefficient  Atom+Function  
  ----- ------------  ---------------      ----- ------------  ---------------
   138      0.238968   9 C  s               144      0.192859   9 C  px        
   172      0.185476  11 C  s               225      0.150940  15 C  s         

 Vector   22  Occ=2.000000D+00  E=-1.037340D+00
              MO Center= -7.9D-01,  9.5D-01, -4.5D-01, r^2= 5.4D+00
   Bfn.  Coefficient  Atom+Function         Bfn.  Coefficient  Atom+Function  
  ----- ------------  ---------------      ----- ------------  ---------------
   308      0.242698  19 C  s               342      0.230806  21 C  s         
   139     -0.178262   9 C  s               314     -0.172106  19 C  px        
   145     -0.150982   9 C  py        

 Vector   23  Occ=2.000000D+00  E=-1.010855D+00
              MO Center= -5.7D-01, -3.0D+00, -1.5D-01, r^2= 5.3D+00
   Bfn.  Coefficient  Atom+Function         Bfn.  Coefficient  Atom+Function  
  ----- ------------  ---------------      ----- ------------  ---------------
    11      0.308124   2 C  s               144      0.194554   9 C  px        
   172      0.177992  11 C  s                55      0.167602   5 C  s         
   174      0.166965  11 C  s         

 Vector   24  Occ=2.000000D+00  E=-9.149498D-01
              MO Center=  4.8D-01, -4.4D-01, -1.6D-01, r^2= 8.4D+00
   Bfn.  Coefficient  Atom+Function         Bfn.  Coefficient  Atom+Function  
  ----- ------------  ---------------      ----- ------------  ---------------
   139      0.255132   9 C  s               172     -0.213568  11 C  s         
   145      0.202624   9 C  py              342      0.202836  21 C  s         
   225     -0.188570  15 C  s               173     -0.177187  11 C  s         
   314     -0.156817  19 C  px        

 Vector   25  Occ=2.000000D+00  E=-8.852260D-01
              MO Center= -1.2D-01,  9.6D-01, -1.7D-01, r^2= 7.9D+00
   Bfn.  Coefficient  Atom+Function         Bfn.  Coefficient  Atom+Function  
  ----- ------------  ---------------      ----- ------------  ---------------
   309      0.344185  19 C  s               342     -0.188499  21 C  s         
   139      0.177224   9 C  s               315      0.158443  19 C  py        
   308      0.156865  19 C  s               394      0.151619  25 C  s         
   314      0.150005  19 C  px        

 Vector   26  Occ=2.000000D+00  E=-8.332206D-01
              MO Center=  3.0D-02, -2.0D+00, -1.7D-02, r^2= 4.5D+00
   Bfn.  Coefficient  Atom+Function         Bfn.  Coefficient  Atom+Function  
  ----- ------------  ---------------      ----- ------------  ---------------
   107      0.307467   7 N  px              128      0.222330   8 H  s         
   139     -0.217300   9 C  s                54     -0.211976   5 C  s         
    80      0.167017   6 O  s               105      0.167459   7 N  s         
    57     -0.154535   5 C  px               60     -0.152412   5 C  px        

 Vector   27  Occ=2.000000D+00  E=-8.042524D-01
              MO Center=  2.3D-01, -1.6D-01, -7.0D-02, r^2= 5.3D+00
   Bfn.  Coefficient  Atom+Function         Bfn.  Coefficient  Atom+Function  
  ----- ------------  ---------------      ----- ------------  ---------------
   277      0.275362  17 N  px              128      0.186931   8 H  s         
   224      0.181689  15 C  s               309      0.173895  19 C  s         
   250     -0.171306  16 O  s               298     -0.171967  18 H  s         
    55     -0.159241   5 C  s               109     -0.151852   7 N  pz        

 Vector   28  Occ=2.000000D+00  E=-7.775980D-01
              MO Center=  2.7D-01,  2.0D+00,  1.6D-01, r^2= 4.2D+00
   Bfn.  Coefficient  Atom+Function         Bfn.  Coefficient  Atom+Function  
  ----- ------------  ---------------      ----- ------------  ---------------
   447      0.291428  27 N  px              225      0.215102  15 C  s         
   298     -0.197397  18 H  s               394     -0.196792  25 C  s         
   396      0.193227  25 C  s               468      0.171205  28 H  s         
   315     -0.168166  19 C  py              420      0.163715  26 O  s         
   343     -0.162284  21 C  s         

 Vector   29  Occ=2.000000D+00  E=-7.358481D-01
              MO Center=  6.6D-01, -2.4D-01, -5.0D-02, r^2= 6.8D+00
   Bfn.  Coefficient  Atom+Function         Bfn.  Coefficient  Atom+Function  
  ----- ------------  ---------------      ----- ------------  ---------------
   145      0.362059   9 C  py              225     -0.274702  15 C  s         
   139      0.258191   9 C  s               142      0.188122   9 C  py        
   228     -0.185827  15 C  py              253     -0.181892  16 O  py        
   109     -0.169309   7 N  pz              227      0.160853  15 C  px        
   477      0.151872  29 H  s         

 Vector   30  Occ=2.000000D+00  E=-7.286614D-01
              MO Center=  5.1D-01,  1.7D+00,  2.3D-01, r^2= 5.4D+00
   Bfn.  Coefficient  Atom+Function         Bfn.  Coefficient  Atom+Function  
  ----- ------------  ---------------      ----- ------------  ---------------
   225      0.282145  15 C  s               468     -0.268674  28 H  s         
   448      0.251416  27 N  py              145     -0.233085   9 C  py        
   139     -0.216527   9 C  s               315     -0.206244  19 C  py        
   447     -0.184983  27 N  px              469     -0.160967  28 H  s         
   395      0.154739  25 C  s         

 Vector   31  Occ=2.000000D+00  E=-7.051326D-01
              MO Center= -6.3D-01, -1.7D+00,  1.2D-01, r^2= 7.0D+00
   Bfn.  Coefficient  Atom+Function         Bfn.  Coefficient  Atom+Function  
  ----- ------------  ---------------      ----- ------------  ---------------
    83      0.219445   6 O  py               57      0.209625   5 C  px        
    18     -0.168374   2 C  py               80      0.154244   6 O  s         
    15     -0.152535   2 C  py        

 Vector   32  Occ=2.000000D+00  E=-6.913999D-01
              MO Center=  1.4D-01, -1.7D+00,  4.3D-01, r^2= 4.6D+00
   Bfn.  Coefficient  Atom+Function         Bfn.  Coefficient  Atom+Function  
  ----- ------------  ---------------      ----- ------------  ---------------
   143     -0.226582   9 C  pz              108      0.216977   7 N  py        
    84     -0.210799   6 O  pz               80     -0.196589   6 O  s         
   162     -0.193786  10 H  s               144     -0.189763   9 C  px        
    12      0.167195   2 C  s               146     -0.161122   9 C  pz        
    57     -0.152986   5 C  px        

 Vector   33  Occ=2.000000D+00  E=-6.707328D-01
              MO Center=  2.4D-01,  1.7D+00,  5.5D-02, r^2= 6.9D+00
   Bfn.  Coefficient  Atom+Function         Bfn.  Coefficient  Atom+Function  
  ----- ------------  ---------------      ----- ------------  ---------------
   315      0.266037  19 C  py              477      0.208212  29 H  s         
   448      0.191989  27 N  py              397     -0.185712  25 C  px        
   312      0.180513  19 C  py              420     -0.167114  26 O  s         
   250      0.166089  16 O  s               423     -0.166381  26 O  py        
   278     -0.164640  17 N  py              478      0.156603  29 H  s         

 Vector   34  Occ=2.000000D+00  E=-6.626588D-01
              MO Center=  1.9D-02,  1.3D+00, -3.4D-01, r^2= 6.1D+00
   Bfn.  Coefficient  Atom+Function         Bfn.  Coefficient  Atom+Function  
  ----- ------------  ---------------      ----- ------------  ---------------
   313      0.244342  19 C  pz              316      0.200136  19 C  pz        
   332     -0.200298  20 H  s               396      0.168701  25 C  s         
   397     -0.166318  25 C  px              250     -0.162131  16 O  s         
   225      0.152222  15 C  s         

 Vector   35  Occ=2.000000D+00  E=-6.354929D-01
              MO Center= -1.0D+00, -2.7D+00, -1.4D-01, r^2= 5.1D+00
   Bfn.  Coefficient  Atom+Function         Bfn.  Coefficient  Atom+Function  
  ----- ------------  ---------------      ----- ------------  ---------------
   139      0.273751   9 C  s                16     -0.229761   2 C  pz        
     1     -0.226703   1 H  s                44      0.221258   4 H  s         
    15      0.199759   2 C  py               59     -0.175686   5 C  pz        

 Vector   36  Occ=2.000000D+00  E=-6.121634D-01
              MO Center=  8.6D-01, -2.4D-02, -2.2D-01, r^2= 6.3D+00
   Bfn.  Coefficient  Atom+Function         Bfn.  Coefficient  Atom+Function  
  ----- ------------  ---------------      ----- ------------  ---------------
   252      0.247019  16 O  px              227     -0.180921  15 C  px        
   298     -0.181578  18 H  s               230     -0.173911  15 C  px        
   243      0.173863  15 C  dxy             250      0.171196  16 O  s         
   299     -0.163487  18 H  s               145      0.161619   9 C  py        
   139      0.155602   9 C  s               254     -0.154096  16 O  pz        

 Vector   37  Occ=2.000000D+00  E=-6.061394D-01
              MO Center= -4.1D-01, -1.8D+00,  2.7D-01, r^2= 6.3D+00
   Bfn.  Coefficient  Atom+Function         Bfn.  Coefficient  Atom+Function  
  ----- ------------  ---------------      ----- ------------  ---------------
    58      0.244415   5 C  py               82      0.234405   6 O  px        
    59      0.198230   5 C  pz               84     -0.184148   6 O  pz        
    80     -0.168672   6 O  s               128      0.169042   8 H  s         
   145      0.153486   9 C  py        

 Vector   38  Occ=2.000000D+00  E=-5.939634D-01
              MO Center= -7.3D-01,  1.4D+00,  1.7D-01, r^2= 1.2D+01
   Bfn.  Coefficient  Atom+Function         Bfn.  Coefficient  Atom+Function  
  ----- ------------  ---------------      ----- ------------  ---------------
   423      0.271093  26 O  py              422     -0.215916  26 O  px        
   420      0.211461  26 O  s               398     -0.207332  25 C  py        
   395     -0.174843  25 C  s               397      0.159505  25 C  px        
   315      0.151467  19 C  py        

 Vector   39  Occ=2.000000D+00  E=-5.900285D-01
              MO Center= -9.2D-01, -1.6D+00, -3.5D-02, r^2= 1.2D+01
   Bfn.  Coefficient  Atom+Function         Bfn.  Coefficient  Atom+Function  
  ----- ------------  ---------------      ----- ------------  ---------------
    35      0.278206   3 H  s                14     -0.251369   2 C  px        
    36      0.224605   3 H  s                16      0.177779   2 C  pz        
   205      0.157678  13 H  s         

 Vector   40  Occ=2.000000D+00  E=-5.697438D-01
              MO Center=  1.0D+00, -7.3D-01, -2.4D-01, r^2= 8.0D+00
   Bfn.  Coefficient  Atom+Function         Bfn.  Coefficient  Atom+Function  
  ----- ------------  ---------------      ----- ------------  ---------------
   177      0.261670  11 C  pz              196     -0.222703  12 H  s         
   174     -0.218833  11 C  s               254     -0.195402  16 O  pz        
   309     -0.194961  19 C  s               206      0.193831  13 H  s         
   197     -0.163966  12 H  s               215      0.160705  14 H  s         
   279     -0.160012  17 N  pz               56      0.156603   5 C  s         

 Vector   41  Occ=2.000000D+00  E=-5.659330D-01
              MO Center=  9.2D-01, -3.3D-01, -3.1D-02, r^2= 9.6D+00
   Bfn.  Coefficient  Atom+Function         Bfn.  Coefficient  Atom+Function  
  ----- ------------  ---------------      ----- ------------  ---------------
   176      0.274082  11 C  py              214     -0.226788  14 H  s         
   139      0.196359   9 C  s               206      0.196840  13 H  s         
   141      0.185288   9 C  px              174     -0.178966  11 C  s         

 Vector   42  Occ=2.000000D+00  E=-5.544251D-01
              MO Center=  4.5D-02, -1.7D+00, -8.4D-02, r^2= 8.1D+00
   Bfn.  Coefficient  Atom+Function         Bfn.  Coefficient  Atom+Function  
  ----- ------------  ---------------      ----- ------------  ---------------
   206      0.215627  13 H  s               108      0.199881   7 N  py        
    14      0.193353   2 C  px                1      0.176988   1 H  s         
   139      0.176501   9 C  s               205      0.172529  13 H  s         
   254      0.170472  16 O  pz              111      0.159987   7 N  py        

 Vector   43  Occ=2.000000D+00  E=-5.491433D-01
              MO Center= -5.7D-01,  2.2D+00,  3.8D-02, r^2= 6.5D+00
   Bfn.  Coefficient  Atom+Function         Bfn.  Coefficient  Atom+Function  
  ----- ------------  ---------------      ----- ------------  ---------------
   399      0.218752  25 C  pz              367      0.214886  22 H  s         
   384     -0.207332  24 H  s               424      0.204464  26 O  pz        
   347     -0.198108  21 C  pz              449      0.180741  27 N  pz        
   226      0.170544  15 C  s               366      0.157497  22 H  s         
   452      0.154159  27 N  pz        

 Vector   44  Occ=2.000000D+00  E=-5.468022D-01
              MO Center=  8.3D-02, -2.0D+00,  9.6D-02, r^2= 8.0D+00
   Bfn.  Coefficient  Atom+Function         Bfn.  Coefficient  Atom+Function  
  ----- ------------  ---------------      ----- ------------  ---------------
   175      0.225172  11 C  px              205      0.200032  13 H  s         
    44      0.184787   4 H  s               141     -0.182607   9 C  px        
    16     -0.178311   2 C  pz               83     -0.177036   6 O  py        
    55     -0.162598   5 C  s               206      0.162654  13 H  s         

 Vector   45  Occ=2.000000D+00  E=-5.359623D-01
              MO Center=  7.7D-02,  1.8D-01, -3.2D-01, r^2= 9.1D+00
   Bfn.  Coefficient  Atom+Function         Bfn.  Coefficient  Atom+Function  
  ----- ------------  ---------------      ----- ------------  ---------------
   215      0.210538  14 H  s               311      0.194551  19 C  px        
   347     -0.190832  21 C  pz              345     -0.183313  21 C  px        
   214      0.179049  14 H  s               252      0.170617  16 O  px        
   177      0.162400  11 C  pz              366      0.155314  22 H  s         
   196     -0.152388  12 H  s         

 Vector   46  Occ=2.000000D+00  E=-5.301955D-01
              MO Center= -1.3D+00,  1.6D+00, -5.5D-01, r^2= 5.3D+00
   Bfn.  Coefficient  Atom+Function         Bfn.  Coefficient  Atom+Function  
  ----- ------------  ---------------      ----- ------------  ---------------
   346      0.316463  21 C  py              375     -0.307795  23 H  s         
   376     -0.303486  23 H  s               367      0.202221  22 H  s         
   398      0.195020  25 C  py              366      0.190117  22 H  s         
   422      0.180895  26 O  px              225     -0.163208  15 C  s         
   314     -0.154196  19 C  px              396      0.153363  25 C  s         

 Vector   47  Occ=2.000000D+00  E=-5.233262D-01
              MO Center=  8.3D-01, -6.6D-01, -4.6D-02, r^2= 7.2D+00
   Bfn.  Coefficient  Atom+Function         Bfn.  Coefficient  Atom+Function  
  ----- ------------  ---------------      ----- ------------  ---------------
   178      0.288930  11 C  px              162      0.237728  10 H  s         
   173     -0.229884  11 C  s               174      0.225534  11 C  s         
   143      0.221733   9 C  pz              196      0.195036  12 H  s         
   141     -0.189164   9 C  px              175      0.184797  11 C  px        
   177     -0.177144  11 C  pz              139      0.159296   9 C  s         

 Vector   48  Occ=2.000000D+00  E=-5.020477D-01
              MO Center= -1.0D+00,  1.9D+00, -4.4D-01, r^2= 3.9D+00
   Bfn.  Coefficient  Atom+Function         Bfn.  Coefficient  Atom+Function  
  ----- ------------  ---------------      ----- ------------  ---------------
   348      0.289130  21 C  px              332     -0.268832  20 H  s         
   311     -0.247402  19 C  px              384     -0.244971  24 H  s         
   343      0.239834  21 C  s               345      0.232538  21 C  px        
   385     -0.208313  24 H  s               313      0.204130  19 C  pz        
   347     -0.182636  21 C  pz              333     -0.174629  20 H  s         

 Vector   49  Occ=2.000000D+00  E=-4.620119D-01
              MO Center=  3.2D-01, -8.3D-01,  1.9D-02, r^2= 5.6D+00
   Bfn.  Coefficient  Atom+Function         Bfn.  Coefficient  Atom+Function  
  ----- ------------  ---------------      ----- ------------  ---------------
   253      0.286787  16 O  py              252     -0.262384  16 O  px        
    82      0.245780   6 O  px              256      0.239093  16 O  py        
    84      0.225221   6 O  pz              109     -0.203152   7 N  pz        
   255     -0.199965  16 O  px              139      0.195882   9 C  s         
    85      0.194670   6 O  px              112     -0.176247   7 N  pz        

 Vector   50  Occ=2.000000D+00  E=-4.454990D-01
              MO Center= -9.8D-01, -1.8D+00,  5.3D-01, r^2= 4.0D+00
   Bfn.  Coefficient  Atom+Function         Bfn.  Coefficient  Atom+Function  
  ----- ------------  ---------------      ----- ------------  ---------------
    82      0.386200   6 O  px               83      0.325926   6 O  py        
    85      0.318740   6 O  px               86      0.261017   6 O  py        
   226      0.216800  15 C  s               105     -0.189602   7 N  s         
   225      0.176692  15 C  s               107      0.173935   7 N  px        
    15      0.166598   2 C  py              276     -0.165919  17 N  s         

 Vector   51  Occ=2.000000D+00  E=-4.337927D-01
              MO Center= -7.5D-03,  1.9D+00,  4.4D-02, r^2= 6.0D+00
   Bfn.  Coefficient  Atom+Function         Bfn.  Coefficient  Atom+Function  
  ----- ------------  ---------------      ----- ------------  ---------------
   422      0.339761  26 O  px              279      0.258857  17 N  pz        
   254     -0.254325  16 O  pz              425      0.254696  26 O  px        
   282      0.222045  17 N  pz              257     -0.198935  16 O  pz        
   423      0.178101  26 O  py              424      0.157513  26 O  pz        

 Vector   52  Occ=2.000000D+00  E=-4.109423D-01
              MO Center=  5.1D-01, -9.8D-01, -5.0D-04, r^2= 5.2D+00
   Bfn.  Coefficient  Atom+Function         Bfn.  Coefficient  Atom+Function  
  ----- ------------  ---------------      ----- ------------  ---------------
   253      0.286764  16 O  py              109      0.258064   7 N  pz        
   108     -0.233537   7 N  py              112      0.230653   7 N  pz        
   256      0.222940  16 O  py              111     -0.215677   7 N  py        
    84     -0.181693   6 O  pz              145      0.162155   9 C  py        
   228     -0.156265  15 C  py        

 Vector   53  Occ=2.000000D+00  E=-3.939511D-01
              MO Center=  2.4D-01,  3.1D+00,  4.4D-01, r^2= 3.0D+00
   Bfn.  Coefficient  Atom+Function         Bfn.  Coefficient  Atom+Function  
  ----- ------------  ---------------      ----- ------------  ---------------
   424      0.390248  26 O  pz              449     -0.339151  27 N  pz        
   427      0.300523  26 O  pz              452     -0.290136  27 N  pz        
   448      0.186996  27 N  py              451      0.157254  27 N  py        

 Vector   54  Occ=2.000000D+00  E=-3.850550D-01
              MO Center= -3.7D-02,  2.0D+00, -7.8D-03, r^2= 4.4D+00
   Bfn.  Coefficient  Atom+Function         Bfn.  Coefficient  Atom+Function  
  ----- ------------  ---------------      ----- ------------  ---------------
   279      0.287952  17 N  pz              282      0.260924  17 N  pz        
   422     -0.260603  26 O  px              423     -0.246813  26 O  py        
   425     -0.210924  26 O  px              254     -0.190624  16 O  pz        
   426     -0.181305  26 O  py              449     -0.166727  27 N  pz        
   278      0.162457  17 N  py              257     -0.151028  16 O  pz        

 Vector   55  Occ=0.000000D+00  E= 2.002791D-02
              MO Center=  3.2D-01, -4.6D+00, -1.1D+00, r^2= 1.9D+01
   Bfn.  Coefficient  Atom+Function         Bfn.  Coefficient  Atom+Function  
  ----- ------------  ---------------      ----- ------------  ---------------
   234      2.441628  15 C  py              106      2.352963   7 N  s         
   226     -2.261423  15 C  s               148      2.173625   9 C  py        
    12     -2.005874   2 C  s               233     -1.990106  15 C  px        
   216      1.736370  14 H  s                64      1.602444   5 C  py        
     3      1.531266   1 H  s               300     -1.511721  18 H  s         

 Vector   56  Occ=0.000000D+00  E= 3.427522D-02
              MO Center=  7.5D-01, -2.6D+00, -2.3D-01, r^2= 3.2D+01
   Bfn.  Coefficient  Atom+Function         Bfn.  Coefficient  Atom+Function  
  ----- ------------  ---------------      ----- ------------  ---------------
   216      2.659232  14 H  s                63     -2.489771   5 C  px        
    64     -2.470258   5 C  py               46     -2.371933   4 H  s         
   233     -2.319981  15 C  px              276     -2.247145  17 N  s         
   396     -2.101384  25 C  s               234      1.875079  15 C  py        
   140      1.691718   9 C  s               147     -1.659807   9 C  px        

 Vector   57  Occ=0.000000D+00  E= 3.925587D-02
              MO Center=  2.8D-01, -2.8D+00, -1.0D+00, r^2= 3.2D+01
   Bfn.  Coefficient  Atom+Function         Bfn.  Coefficient  Atom+Function  
  ----- ------------  ---------------      ----- ------------  ---------------
   147      3.342500   9 C  px                3      2.695707   1 H  s         
    63      2.428996   5 C  px              198     -2.166612  12 H  s         
    37      1.627949   3 H  s               334     -1.586477  20 H  s         
    64      1.507937   5 C  py              173      1.503555  11 C  s         
    56      1.447352   5 C  s               233     -1.288694  15 C  px        

 Vector   58  Occ=0.000000D+00  E= 4.108725D-02
              MO Center=  2.7D-01, -6.3D-01,  6.2D-01, r^2= 3.6D+01
   Bfn.  Coefficient  Atom+Function         Bfn.  Coefficient  Atom+Function  
  ----- ------------  ---------------      ----- ------------  ---------------
   164      2.686174  10 H  s               130     -2.283682   8 H  s         
   396     -2.250496  25 C  s                37      2.119630   3 H  s         
   106     -1.973720   7 N  s               149     -1.840474   9 C  pz        
   207      1.781226  13 H  s               310     -1.596775  19 C  s         
   317      1.443321  19 C  px              479      1.398315  29 H  s         

 Vector   59  Occ=0.000000D+00  E= 5.124663D-02
              MO Center=  7.4D-01,  3.8D-01,  2.8D-01, r^2= 4.4D+01
   Bfn.  Coefficient  Atom+Function         Bfn.  Coefficient  Atom+Function  
  ----- ------------  ---------------      ----- ------------  ---------------
   216      3.132855  14 H  s               446     -3.037275  27 N  s         
   403      2.891693  25 C  px              377      2.605207  23 H  s         
   479     -2.369828  29 H  s                13      2.227876   2 C  s         
   148      1.776959   9 C  py                3     -1.709815   1 H  s         
   318      1.679541  19 C  py              405      1.518721  25 C  pz        

 Vector   60  Occ=0.000000D+00  E= 5.540808D-02
              MO Center=  1.5D-02, -1.1D+00, -8.6D-01, r^2= 4.1D+01
   Bfn.  Coefficient  Atom+Function         Bfn.  Coefficient  Atom+Function  
  ----- ------------  ---------------      ----- ------------  ---------------
    56      3.957684   5 C  s                37      3.112620   3 H  s         
   233     -2.888193  15 C  px              234      2.603499  15 C  py        
    63      2.554685   5 C  px              164     -2.471680  10 H  s         
   174     -2.452002  11 C  s               207      2.359979  13 H  s         
   198      2.148392  12 H  s               276     -2.130673  17 N  s         

 Vector   61  Occ=0.000000D+00  E= 5.819534D-02
              MO Center= -1.8D-01, -1.2D+00, -5.7D-01, r^2= 3.8D+01
   Bfn.  Coefficient  Atom+Function         Bfn.  Coefficient  Atom+Function  
  ----- ------------  ---------------      ----- ------------  ---------------
   164      4.320518  10 H  s                46      3.423361   4 H  s         
   174     -3.172553  11 C  s                13     -3.112197   2 C  s         
   226      2.944347  15 C  s                63     -2.688823   5 C  px        
   198     -2.625450  12 H  s               148     -2.532983   9 C  py        
     3     -2.410232   1 H  s               147      2.249960   9 C  px        

 Vector   62  Occ=0.000000D+00  E= 6.300400D-02
              MO Center= -7.5D-01, -8.6D-01,  7.8D-03, r^2= 3.6D+01
   Bfn.  Coefficient  Atom+Function         Bfn.  Coefficient  Atom+Function  
  ----- ------------  ---------------      ----- ------------  ---------------
   207      3.088501  13 H  s               386     -3.052628  24 H  s         
   130     -2.790498   8 H  s               334      2.775567  20 H  s         
   164     -2.540966  10 H  s                37     -2.115882   3 H  s         
   317     -2.110407  19 C  px               46      2.097291   4 H  s         
   198     -2.079642  12 H  s               174      1.948054  11 C  s         

 Vector   63  Occ=0.000000D+00  E= 6.625712D-02
              MO Center=  5.3D-01, -9.6D-02, -2.2D-01, r^2= 3.7D+01
   Bfn.  Coefficient  Atom+Function         Bfn.  Coefficient  Atom+Function  
  ----- ------------  ---------------      ----- ------------  ---------------
   164      4.334393  10 H  s               334      4.026608  20 H  s         
   216     -3.461578  14 H  s               198      3.198015  12 H  s         
   149     -3.166288   9 C  pz              148     -2.344207   9 C  py        
   396      2.074520  25 C  s               183      1.862788  11 C  pz        
   233      1.710803  15 C  px              174     -1.664502  11 C  s         

 Vector   64  Occ=0.000000D+00  E= 7.116820D-02
              MO Center=  2.2D-01, -3.3D-01,  2.8D-01, r^2= 4.7D+01
   Bfn.  Coefficient  Atom+Function         Bfn.  Coefficient  Atom+Function  
  ----- ------------  ---------------      ----- ------------  ---------------
   216      4.982231  14 H  s               207     -4.136727  13 H  s         
    13      4.056014   2 C  s               317     -3.510408  19 C  px        
    63      3.284181   5 C  px              226     -3.294841  15 C  s         
   368     -3.160302  22 H  s               113      3.108119   7 N  px        
   140     -3.052168   9 C  s                37      2.981289   3 H  s         

 Vector   65  Occ=0.000000D+00  E= 8.078319D-02
              MO Center= -1.5D+00, -3.4D-01, -1.4D+00, r^2= 3.6D+01
   Bfn.  Coefficient  Atom+Function         Bfn.  Coefficient  Atom+Function  
  ----- ------------  ---------------      ----- ------------  ---------------
   377      6.722609  23 H  s                46     -3.985689   4 H  s         
   344     -3.265474  21 C  s               368     -3.035948  22 H  s         
   386     -2.702255  24 H  s                56     -2.609356   5 C  s         
   352      2.592599  21 C  py              300      2.560456  18 H  s         
   334     -2.412885  20 H  s               396      2.386512  25 C  s         

 Vector   66  Occ=0.000000D+00  E= 8.552215D-02
              MO Center=  8.7D-01, -1.9D+00, -9.7D-01, r^2= 3.5D+01
   Bfn.  Coefficient  Atom+Function         Bfn.  Coefficient  Atom+Function  
  ----- ------------  ---------------      ----- ------------  ---------------
   198      6.046957  12 H  s               130     -5.469751   8 H  s         
    37     -3.495290   3 H  s                 3      3.442108   1 H  s         
   207     -3.194269  13 H  s               377      2.842465  23 H  s         
   183      2.178059  11 C  pz              334     -2.115206  20 H  s         
   174     -2.004594  11 C  s               164      1.778565  10 H  s         

 Vector   67  Occ=0.000000D+00  E= 8.636915D-02
              MO Center= -2.2D+00,  1.2D+00,  2.7D-01, r^2= 3.2D+01
   Bfn.  Coefficient  Atom+Function         Bfn.  Coefficient  Atom+Function  
  ----- ------------  ---------------      ----- ------------  ---------------
   368      5.901738  22 H  s               386     -5.372018  24 H  s         
   396      4.712046  25 C  s               334     -3.103921  20 H  s         
   164      3.023209  10 H  s               353      2.904328  21 C  pz        
   140     -2.872329   9 C  s               226     -2.838346  15 C  s         
    37      2.602397   3 H  s               284     -2.391181  17 N  py        

 Vector   68  Occ=0.000000D+00  E= 9.829501D-02
              MO Center=  2.3D+00,  1.6D+00,  2.2D-01, r^2= 3.2D+01
   Bfn.  Coefficient  Atom+Function         Bfn.  Coefficient  Atom+Function  
  ----- ------------  ---------------      ----- ------------  ---------------
   470      8.036977  28 H  s               174      6.912801  11 C  s         
   300     -5.426580  18 H  s               207     -5.026531  13 H  s         
   344     -4.947636  21 C  s               216      3.534609  14 H  s         
   233     -3.356307  15 C  px              234      3.355207  15 C  py        
   317     -3.368732  19 C  px              182      3.167207  11 C  py        

 Vector   69  Occ=0.000000D+00  E= 1.062802D-01
              MO Center=  1.3D-01, -1.7D+00,  7.9D-01, r^2= 2.7D+01
   Bfn.  Coefficient  Atom+Function         Bfn.  Coefficient  Atom+Function  
  ----- ------------  ---------------      ----- ------------  ---------------
   147      8.994893   9 C  px              174     -8.226376  11 C  s         
    56      5.802835   5 C  s               106      4.921530   7 N  s         
   148      3.949655   9 C  py              318      3.555257  19 C  py        
    64      3.470895   5 C  py              276      3.384298  17 N  s         
   226     -3.217046  15 C  s               377      3.203965  23 H  s         

 Vector   70  Occ=0.000000D+00  E= 1.113207D-01
              MO Center= -6.6D-01,  1.2D-01,  9.5D-01, r^2= 3.1D+01
   Bfn.  Coefficient  Atom+Function         Bfn.  Coefficient  Atom+Function  
  ----- ------------  ---------------      ----- ------------  ---------------
   300     14.881162  18 H  s               174    -10.749346  11 C  s         
   344      7.373210  21 C  s               234     -6.804559  15 C  py        
   148     -5.551913   9 C  py              386     -5.271140  24 H  s         
   276      5.163610  17 N  s               317      4.909716  19 C  px        
   164     -4.645975  10 H  s                64     -4.182266   5 C  py        

 Vector   71  Occ=0.000000D+00  E= 1.182487D-01
              MO Center= -5.7D-01, -4.2D-01, -5.5D-01, r^2= 2.9D+01
   Bfn.  Coefficient  Atom+Function         Bfn.  Coefficient  Atom+Function  
  ----- ------------  ---------------      ----- ------------  ---------------
   226     15.016175  15 C  s                63     -9.909712   5 C  px        
    13     -9.093084   2 C  s               140      9.067489   9 C  s         
   344     -6.841000  21 C  s               148     -6.785532   9 C  py        
   317     -4.818793  19 C  px              234      4.669349  15 C  py        
   396     -4.438607  25 C  s               233     -3.757548  15 C  px        

 Vector   72  Occ=0.000000D+00  E= 1.271163D-01
              MO Center= -6.8D-01,  1.7D+00, -4.5D-01, r^2= 3.2D+01
   Bfn.  Coefficient  Atom+Function         Bfn.  Coefficient  Atom+Function  
  ----- ------------  ---------------      ----- ------------  ---------------
   396     20.646546  25 C  s               318     -9.346787  19 C  py        
   174     -8.407163  11 C  s               233      8.423927  15 C  px        
   344     -8.444040  21 C  s               234     -8.370859  15 C  py        
   404     -7.107327  25 C  py              140     -5.528685   9 C  s         
   226     -5.255177  15 C  s               283      4.147098  17 N  px        

 Vector   73  Occ=0.000000D+00  E= 1.303971D-01
              MO Center= -3.4D-01, -3.0D+00, -5.2D-01, r^2= 2.7D+01
   Bfn.  Coefficient  Atom+Function         Bfn.  Coefficient  Atom+Function  
  ----- ------------  ---------------      ----- ------------  ---------------
   226     15.943976  15 C  s               174    -11.161861  11 C  s         
   148     -9.825660   9 C  py              140      8.336051   9 C  s         
   396      7.229415  25 C  s               106     -7.079891   7 N  s         
    56      6.558480   5 C  s               234     -5.454846  15 C  py        
   181      4.319320  11 C  px               13     -3.895697   2 C  s         

 Vector   74  Occ=0.000000D+00  E= 1.382048D-01
              MO Center= -7.7D-01, -1.2D+00,  3.9D-02, r^2= 2.8D+01
   Bfn.  Coefficient  Atom+Function         Bfn.  Coefficient  Atom+Function  
  ----- ------------  ---------------      ----- ------------  ---------------
   106     -7.810396   7 N  s               344      7.420606  21 C  s         
    63      7.146595   5 C  px              317      6.963547  19 C  px        
    56      5.801639   5 C  s               174     -5.611614  11 C  s         
   147      5.475096   9 C  px              276      5.480211  17 N  s         
    13      4.671660   2 C  s               300     -3.886775  18 H  s         

 Vector   75  Occ=0.000000D+00  E= 1.414460D-01
              MO Center=  1.6D+00, -9.0D-01, -2.2D-01, r^2= 3.1D+01
   Bfn.  Coefficient  Atom+Function         Bfn.  Coefficient  Atom+Function  
  ----- ------------  ---------------      ----- ------------  ---------------
   174     18.359985  11 C  s               147    -13.579458   9 C  px        
    56    -11.177534   5 C  s               181     -7.738372  11 C  px        
   396     -6.982937  25 C  s               234      5.839481  15 C  py        
   318      5.513761  19 C  py              113     -4.259938   7 N  px        
    64     -4.207075   5 C  py              226     -4.205170  15 C  s         

 Vector   76  Occ=0.000000D+00  E= 1.458073D-01
              MO Center=  2.4D-01, -4.2D-01,  2.5D-01, r^2= 2.4D+01
   Bfn.  Coefficient  Atom+Function         Bfn.  Coefficient  Atom+Function  
  ----- ------------  ---------------      ----- ------------  ---------------
   446      5.772886  27 N  s               164      5.225673  10 H  s         
   403     -4.941266  25 C  px               63     -3.927740   5 C  px        
   148     -3.913558   9 C  py               64     -3.814015   5 C  py        
    12      3.645863   2 C  s               174     -3.636897  11 C  s         
   300     -3.604912  18 H  s               106     -3.224791   7 N  s         

 Vector   77  Occ=0.000000D+00  E= 1.474674D-01
              MO Center= -7.9D-01,  3.4D-01,  1.4D-02, r^2= 2.7D+01
   Bfn.  Coefficient  Atom+Function         Bfn.  Coefficient  Atom+Function  
  ----- ------------  ---------------      ----- ------------  ---------------
   344     13.145781  21 C  s               396    -11.796587  25 C  s         
   317     10.135794  19 C  px              351      5.298596  21 C  px        
   377      4.626363  23 H  s               148     -4.384383   9 C  py        
   470      4.106719  28 H  s               404      4.081239  25 C  py        
    13     -3.999297   2 C  s               334     -3.780322  20 H  s         

 Vector   78  Occ=0.000000D+00  E= 1.512616D-01
              MO Center=  2.4D-01, -3.2D-01, -5.6D-02, r^2= 2.8D+01
   Bfn.  Coefficient  Atom+Function         Bfn.  Coefficient  Atom+Function  
  ----- ------------  ---------------      ----- ------------  ---------------
   147      7.783360   9 C  px              174     -7.799553  11 C  s         
   396     -7.557844  25 C  s               446      7.514149  27 N  s         
   310     -6.926784  19 C  s               233     -6.395033  15 C  px        
   403     -5.351268  25 C  px               56      5.001473   5 C  s         
   344      3.706231  21 C  s               300     -3.491871  18 H  s         

 Vector   79  Occ=0.000000D+00  E= 1.555672D-01
              MO Center=  3.2D-01, -1.2D+00,  6.1D-01, r^2= 2.8D+01
   Bfn.  Coefficient  Atom+Function         Bfn.  Coefficient  Atom+Function  
  ----- ------------  ---------------      ----- ------------  ---------------
   226      9.977869  15 C  s               233     -8.552488  15 C  px        
   276     -7.908879  17 N  s               300     -7.077231  18 H  s         
   234      6.406217  15 C  py               56      6.250738   5 C  s         
   140      6.012354   9 C  s               318      5.726878  19 C  py        
   446     -5.370557  27 N  s               147     -4.483087   9 C  px        

 Vector   80  Occ=0.000000D+00  E= 1.579813D-01
              MO Center= -5.8D-03, -2.3D+00, -7.3D-03, r^2= 2.8D+01
   Bfn.  Coefficient  Atom+Function         Bfn.  Coefficient  Atom+Function  
  ----- ------------  ---------------      ----- ------------  ---------------
   174      4.721178  11 C  s               147     -4.044641   9 C  px        
   198      3.612689  12 H  s                37     -3.247813   3 H  s         
   235      3.261940  15 C  pz              276     -3.165959  17 N  s         
   181     -3.051276  11 C  px              164     -2.922312  10 H  s         
    36     -2.881362   3 H  s                12      2.843211   2 C  s         

 Vector   81  Occ=0.000000D+00  E= 1.621738D-01
              MO Center= -3.3D-01, -6.7D-01, -4.6D-01, r^2= 2.9D+01
   Bfn.  Coefficient  Atom+Function         Bfn.  Coefficient  Atom+Function  
  ----- ------------  ---------------      ----- ------------  ---------------
   234     15.556669  15 C  py              317    -14.577381  19 C  px        
   344    -13.422184  21 C  s               396     11.916307  25 C  s         
   233     -8.234499  15 C  px              276     -7.759449  17 N  s         
    63      7.354785   5 C  px               56      6.111263   5 C  s         
   446     -6.040022  27 N  s               226      5.573382  15 C  s         

 Vector   82  Occ=0.000000D+00  E= 1.635207D-01
              MO Center= -5.8D-01, -4.0D-01, -3.3D-01, r^2= 3.0D+01
   Bfn.  Coefficient  Atom+Function         Bfn.  Coefficient  Atom+Function  
  ----- ------------  ---------------      ----- ------------  ---------------
   226      7.031023  15 C  s               130      6.150495   8 H  s         
   106      6.073420   7 N  s               140      5.934673   9 C  s         
    63     -4.548708   5 C  px              174     -4.436929  11 C  s         
   319     -4.060546  19 C  pz              403     -3.914894  25 C  px        
    13     -3.737871   2 C  s               446      3.678205  27 N  s         

 Vector   83  Occ=0.000000D+00  E= 1.656908D-01
              MO Center=  4.0D-01, -1.6D+00, -8.4D-02, r^2= 2.9D+01
   Bfn.  Coefficient  Atom+Function         Bfn.  Coefficient  Atom+Function  
  ----- ------------  ---------------      ----- ------------  ---------------
   344     -5.903600  21 C  s               174      5.783730  11 C  s         
   207      5.043553  13 H  s               198     -3.957839  12 H  s         
   181     -3.777931  11 C  px              113     -3.709992   7 N  px        
   317     -3.339071  19 C  px              351     -3.186102  21 C  px        
   300      3.108292  18 H  s               148      3.046787   9 C  py        

 Vector   84  Occ=0.000000D+00  E= 1.683454D-01
              MO Center= -5.4D-01, -9.9D-01, -4.8D-01, r^2= 2.7D+01
   Bfn.  Coefficient  Atom+Function         Bfn.  Coefficient  Atom+Function  
  ----- ------------  ---------------      ----- ------------  ---------------
   276      5.362339  17 N  s               300      5.270594  18 H  s         
   318      4.430746  19 C  py               63      4.335915   5 C  px        
   344     -4.257408  21 C  s               351     -4.230860  21 C  px        
   386     -3.859942  24 H  s               130      3.412647   8 H  s         
    22      3.336650   2 C  pz              396     -3.293978  25 C  s         

 Vector   85  Occ=0.000000D+00  E= 1.708485D-01
              MO Center= -2.5D-02, -5.0D-03, -1.4D-01, r^2= 2.7D+01
   Bfn.  Coefficient  Atom+Function         Bfn.  Coefficient  Atom+Function  
  ----- ------------  ---------------      ----- ------------  ---------------
   226     12.726890  15 C  s               148     -8.022909   9 C  py        
    13     -7.968735   2 C  s               149     -6.475235   9 C  pz        
   140      6.306967   9 C  s               318      6.147829  19 C  py        
    63     -5.690321   5 C  px              113     -5.105349   7 N  px        
   164      4.394682  10 H  s               147      3.598696   9 C  px        

 Vector   86  Occ=0.000000D+00  E= 1.735481D-01
              MO Center= -7.3D-01, -2.1D-01, -2.9D-01, r^2= 3.6D+01
   Bfn.  Coefficient  Atom+Function         Bfn.  Coefficient  Atom+Function  
  ----- ------------  ---------------      ----- ------------  ---------------
   446      8.664394  27 N  s               403     -6.624271  25 C  px        
   130     -6.200613   8 H  s               396     -6.142973  25 C  s         
   174      5.129089  11 C  s                20      4.559762   2 C  px        
   351     -4.190514  21 C  px              148      3.898217   9 C  py        
    37      3.528172   3 H  s               283     -3.379736  17 N  px        

 Vector   87  Occ=0.000000D+00  E= 1.806372D-01
              MO Center=  6.1D-01, -4.6D-01, -2.2D-02, r^2= 2.9D+01
   Bfn.  Coefficient  Atom+Function         Bfn.  Coefficient  Atom+Function  
  ----- ------------  ---------------      ----- ------------  ---------------
   300      7.313235  18 H  s               317     -6.544852  19 C  px        
   344     -6.428556  21 C  s               207     -5.182309  13 H  s         
   148     -4.495210   9 C  py              182      3.867708  11 C  py        
   234      3.824385  15 C  py               65     -3.688150   5 C  pz        
   181      3.692348  11 C  px              446      3.504924  27 N  s         

 Vector   88  Occ=0.000000D+00  E= 1.834190D-01
              MO Center=  1.2D+00, -7.9D-01,  8.3D-02, r^2= 2.2D+01
   Bfn.  Coefficient  Atom+Function         Bfn.  Coefficient  Atom+Function  
  ----- ------------  ---------------      ----- ------------  ---------------
   174      8.662149  11 C  s               344     -8.511283  21 C  s         
   106      7.564217   7 N  s               226     -7.352816  15 C  s         
   396      5.845661  25 C  s               140     -5.578661   9 C  s         
   317     -5.413421  19 C  px               56     -5.110648   5 C  s         
   216      5.032697  14 H  s               233      5.035207  15 C  px        

 Vector   89  Occ=0.000000D+00  E= 1.854623D-01
              MO Center=  2.3D-01,  4.9D-01, -1.4D-02, r^2= 2.4D+01
   Bfn.  Coefficient  Atom+Function         Bfn.  Coefficient  Atom+Function  
  ----- ------------  ---------------      ----- ------------  ---------------
   106     10.842692   7 N  s               226     -9.650567  15 C  s         
   174      7.722774  11 C  s               234      7.584625  15 C  py        
   235     -6.483984  15 C  pz              148      6.374298   9 C  py        
   344      6.241513  21 C  s               149      5.042844   9 C  pz        
   140     -4.472342   9 C  s               446     -4.001204  27 N  s         

 Vector   90  Occ=0.000000D+00  E= 1.879471D-01
              MO Center= -3.6D-02,  1.4D+00, -3.7D-01, r^2= 2.6D+01
[...]
   396     -9.755344  25 C  s               147     -9.697708   9 C  px        

 Vector  136  Occ=0.000000D+00  E= 4.211169D-01
              MO Center= -2.1D-01,  3.4D-02,  1.2D-02, r^2= 1.9D+01
   Bfn.  Coefficient  Atom+Function         Bfn.  Coefficient  Atom+Function  
  ----- ------------  ---------------      ----- ------------  ---------------
   396     19.824858  25 C  s               226    -14.341963  15 C  s         
   446    -12.980111  27 N  s               140    -12.769230   9 C  s         
    13      7.501837   2 C  s               106      7.374957   7 N  s         
   317     -7.341957  19 C  px              283      6.673797  17 N  px        
   163      6.567546  10 H  s               284     -6.166068  17 N  py        

 Vector  137  Occ=0.000000D+00  E= 4.232609D-01
              MO Center= -2.1D-01, -5.4D-01, -4.8D-01, r^2= 2.2D+01
   Bfn.  Coefficient  Atom+Function         Bfn.  Coefficient  Atom+Function  
  ----- ------------  ---------------      ----- ------------  ---------------
   396     17.880871  25 C  s               234    -14.607214  15 C  py        
   344     11.271636  21 C  s               317     11.058300  19 C  px        
   446    -10.333005  27 N  s               226    -10.208817  15 C  s         
   283      9.933884  17 N  px              318     -8.367382  19 C  py        
   174     -8.159720  11 C  s               343     -7.013171  21 C  s         

 Vector  138  Occ=0.000000D+00  E= 4.251511D-01
              MO Center=  1.2D-01,  1.9D-01, -1.5D-01, r^2= 1.9D+01
   Bfn.  Coefficient  Atom+Function         Bfn.  Coefficient  Atom+Function  
  ----- ------------  ---------------      ----- ------------  ---------------
   174     -9.555931  11 C  s                56      9.110430   5 C  s         
   318      7.842649  19 C  py              173     -6.814762  11 C  s         
   215      6.492702  14 H  s               446     -6.429702  27 N  s         
   233     -6.255295  15 C  px              139     -6.197458   9 C  s         
   163      6.067844  10 H  s               226      5.877459  15 C  s         

 Vector  139  Occ=0.000000D+00  E= 4.302490D-01
              MO Center=  8.9D-02, -2.7D-01,  2.3D-01, r^2= 1.7D+01
   Bfn.  Coefficient  Atom+Function         Bfn.  Coefficient  Atom+Function  
  ----- ------------  ---------------      ----- ------------  ---------------
   396     12.328571  25 C  s               343     10.420360  21 C  s         
    56     -8.640120   5 C  s                12     -8.249064   2 C  s         
   310      8.077385  19 C  s               163     -7.755635  10 H  s         
   446     -7.568530  27 N  s               106      7.248307   7 N  s         
   233      6.709049  15 C  px              226      6.312971  15 C  s         

 Vector  140  Occ=0.000000D+00  E= 4.342164D-01
              MO Center= -1.1D-01, -9.4D-01, -2.5D-01, r^2= 2.0D+01
   Bfn.  Coefficient  Atom+Function         Bfn.  Coefficient  Atom+Function  
  ----- ------------  ---------------      ----- ------------  ---------------
   446      8.363066  27 N  s               396     -7.114668  25 C  s         
   114      5.905343   7 N  py              149     -5.370716   9 C  pz        
   284      5.388528  17 N  py              235      5.291569  15 C  pz        
   403     -5.247679  25 C  px              106     -5.102632   7 N  s         
   317      4.786581  19 C  px              319     -4.214254  19 C  pz        

 Vector  141  Occ=0.000000D+00  E= 4.414363D-01
              MO Center= -6.9D-02, -6.7D-01, -1.2D-01, r^2= 1.9D+01
   Bfn.  Coefficient  Atom+Function         Bfn.  Coefficient  Atom+Function  
  ----- ------------  ---------------      ----- ------------  ---------------
   226     17.232350  15 C  s               344    -17.231499  21 C  s         
   106    -10.752952   7 N  s               396      9.179383  25 C  s         
    12     -8.888577   2 C  s               283     -7.987058  17 N  px        
   317     -7.838670  19 C  px              149     -6.041619   9 C  pz        
     2      5.451105   1 H  s               235      5.240453  15 C  pz        

 Vector  142  Occ=0.000000D+00  E= 4.477976D-01
              MO Center= -5.8D-01, -1.1D+00, -3.4D-01, r^2= 2.1D+01
   Bfn.  Coefficient  Atom+Function         Bfn.  Coefficient  Atom+Function  
  ----- ------------  ---------------      ----- ------------  ---------------
   174     13.732710  11 C  s               148      8.067074   9 C  py        
   226     -7.450013  15 C  s               319      7.464954  19 C  pz        
   300     -6.590575  18 H  s               367     -6.496371  22 H  s         
   173      6.334375  11 C  s                13      5.914904   2 C  s         
   206     -5.544385  13 H  s               140     -5.293004   9 C  s         

 Vector  143  Occ=0.000000D+00  E= 4.533584D-01
              MO Center= -8.8D-01,  4.0D-01, -2.7D-01, r^2= 1.9D+01
   Bfn.  Coefficient  Atom+Function         Bfn.  Coefficient  Atom+Function  
  ----- ------------  ---------------      ----- ------------  ---------------
    56     10.661636   5 C  s               233     -8.183919  15 C  px        
   234      8.140993  15 C  py               13      7.006815   2 C  s         
   113      6.630029   7 N  px              148      6.634745   9 C  py        
   300     -5.854421  18 H  s                64      5.812574   5 C  py        
   147      5.686663   9 C  px              226     -4.711753  15 C  s         

 Vector  144  Occ=0.000000D+00  E= 4.610485D-01
              MO Center=  7.9D-01, -2.6D-01,  1.8D-01, r^2= 1.8D+01
   Bfn.  Coefficient  Atom+Function         Bfn.  Coefficient  Atom+Function  
  ----- ------------  ---------------      ----- ------------  ---------------
   276     18.041369  17 N  s               226    -15.004052  15 C  s         
   140    -13.974410   9 C  s                13     11.850121   2 C  s         
   396     10.665530  25 C  s               174     -9.040297  11 C  s         
    63      8.086057   5 C  px              233      8.113324  15 C  px        
   234     -6.940252  15 C  py              225     -6.444204  15 C  s         

 Vector  145  Occ=0.000000D+00  E= 4.627244D-01
              MO Center=  5.9D-01, -5.0D-01,  2.9D-01, r^2= 1.8D+01
   Bfn.  Coefficient  Atom+Function         Bfn.  Coefficient  Atom+Function  
  ----- ------------  ---------------      ----- ------------  ---------------
   226     28.058905  15 C  s                13    -17.839268   2 C  s         
   276    -17.673503  17 N  s               140     15.452976   9 C  s         
   344    -11.159223  21 C  s               446      9.744095  27 N  s         
   148     -9.466580   9 C  py               63     -8.698294   5 C  px        
    12     -8.464448   2 C  s                56     -8.273459   5 C  s         

 Vector  146  Occ=0.000000D+00  E= 4.718635D-01
              MO Center=  1.0D+00, -1.6D+00, -2.2D-01, r^2= 1.7D+01
   Bfn.  Coefficient  Atom+Function         Bfn.  Coefficient  Atom+Function  
  ----- ------------  ---------------      ----- ------------  ---------------
   174     17.549695  11 C  s               197     -9.844524  12 H  s         
    56     -9.460940   5 C  s               147     -8.185547   9 C  px        
   300     -6.968232  18 H  s               113     -6.452570   7 N  px        
   276     -5.721314  17 N  s               310      5.580589  19 C  s         
   173      5.445805  11 C  s                63     -5.366841   5 C  px        

 Vector  147  Occ=0.000000D+00  E= 4.764557D-01
              MO Center=  3.9D-01, -4.8D-01, -1.6D-03, r^2= 1.8D+01
   Bfn.  Coefficient  Atom+Function         Bfn.  Coefficient  Atom+Function  
  ----- ------------  ---------------      ----- ------------  ---------------
   174     27.128114  11 C  s               396    -16.353545  25 C  s         
   147    -14.907987   9 C  px              226    -11.446060  15 C  s         
   343     10.949017  21 C  s               376     -8.785888  23 H  s         
   283     -8.365188  17 N  px               56     -8.150920   5 C  s         
   215     -7.537353  14 H  s               234      7.397584  15 C  py        

 Vector  148  Occ=0.000000D+00  E= 4.772928D-01
              MO Center=  8.7D-02,  1.1D+00,  1.1D-01, r^2= 1.8D+01
   Bfn.  Coefficient  Atom+Function         Bfn.  Coefficient  Atom+Function  
  ----- ------------  ---------------      ----- ------------  ---------------
   344    -20.917359  21 C  s               174     19.366027  11 C  s         
   234     15.955123  15 C  py              317    -14.072856  19 C  px        
   343     -9.879106  21 C  s               233     -9.077484  15 C  px        
   385      9.068821  24 H  s               106      6.668908   7 N  s         
   376      6.613071  23 H  s                12      6.160468   2 C  s         

 Vector  149  Occ=0.000000D+00  E= 4.844438D-01
              MO Center= -1.5D-01, -4.8D-01, -2.5D-01, r^2= 1.9D+01
   Bfn.  Coefficient  Atom+Function         Bfn.  Coefficient  Atom+Function  
  ----- ------------  ---------------      ----- ------------  ---------------
   396     18.473975  25 C  s               344    -15.451912  21 C  s         
   276     11.477546  17 N  s                12      9.892061   2 C  s         
   233      7.542179  15 C  px              317     -7.307852  19 C  px        
   163      7.192848  10 H  s               174     -6.878521  11 C  s         
     2     -6.297855   1 H  s               376      6.309210  23 H  s         

 Vector  150  Occ=0.000000D+00  E= 4.897953D-01
              MO Center= -3.7D-01, -1.2D+00, -2.9D-01, r^2= 1.7D+01
   Bfn.  Coefficient  Atom+Function         Bfn.  Coefficient  Atom+Function  
  ----- ------------  ---------------      ----- ------------  ---------------
   344     15.884224  21 C  s               226     -9.169281  15 C  s         
   284     -7.820816  17 N  py              317      7.144189  19 C  px        
   234     -7.068168  15 C  py              233      5.926239  15 C  px        
   343      5.742009  21 C  s               276      5.232784  17 N  s         
   385     -4.931506  24 H  s               148      4.727619   9 C  py        

 Vector  151  Occ=0.000000D+00  E= 4.966839D-01
              MO Center= -8.4D-01, -5.9D-01, -3.1D-01, r^2= 1.9D+01
   Bfn.  Coefficient  Atom+Function         Bfn.  Coefficient  Atom+Function  
  ----- ------------  ---------------      ----- ------------  ---------------
    12     11.053920   2 C  s                56      7.774234   5 C  s         
   147      6.857049   9 C  px              367     -6.230628  22 H  s         
    36     -6.005085   3 H  s               174     -5.406760  11 C  s         
   344      5.091057  21 C  s                13     -4.983444   2 C  s         
   343      4.744574  21 C  s               234     -4.609711  15 C  py        

 Vector  152  Occ=0.000000D+00  E= 4.995599D-01
              MO Center= -5.1D-01,  1.3D+00, -6.4D-02, r^2= 1.8D+01
   Bfn.  Coefficient  Atom+Function         Bfn.  Coefficient  Atom+Function  
  ----- ------------  ---------------      ----- ------------  ---------------
   226     12.178073  15 C  s               344     -8.999176  21 C  s         
   174     -6.291005  11 C  s               140      6.035018   9 C  s         
   233     -5.345292  15 C  px              377     -5.020167  23 H  s         
   385      4.883067  24 H  s               147      4.597692   9 C  px        
   317     -4.583484  19 C  px              367      4.573772  22 H  s         

 Vector  153  Occ=0.000000D+00  E= 5.052862D-01
              MO Center= -2.0D-01, -6.3D-01, -1.7D-01, r^2= 1.8D+01
   Bfn.  Coefficient  Atom+Function         Bfn.  Coefficient  Atom+Function  
  ----- ------------  ---------------      ----- ------------  ---------------
   344     19.916501  21 C  s               174    -14.125132  11 C  s         
   343     12.124884  21 C  s               234    -11.393684  15 C  py        
   140      9.926951   9 C  s               317      9.717182  19 C  px        
   367     -8.688827  22 H  s               385     -8.610074  24 H  s         
   284      8.018675  17 N  py              233      7.645837  15 C  px        


 center of mass
 --------------
 x =   0.00748367 y =   0.09041049 z =   0.02608049

 moments of inertia (a.u.)
 ------------------
        4241.916064657800           0.000000000001           0.000000000000
           0.000000000001        1747.098307940852           0.000000000001
           0.000000000000           0.000000000001        5527.934806909640

  Mulliken analysis of the total density
  --------------------------------------

    Atom       Charge   Shell Charges
 -----------   ------   -------------------------------------------------------
    1 H    1     0.88   0.76  0.14 -0.00  0.03 -0.05
    2 C    6     6.15   2.01  0.66  0.17  0.05  2.07  1.04  0.01  0.06  0.09
    3 H    1     0.98   0.76  0.23  0.01  0.03 -0.04
    4 H    1     0.89   0.76  0.15 -0.00  0.03 -0.05
    5 C    6     5.19   2.01  0.68  0.07 -0.05  1.89  0.35 -0.01  0.24  0.01
    6 O    8     8.76   2.01  0.82  1.00  0.16  2.80  1.86  0.13  0.02 -0.01
    7 N    7     7.56   2.01  0.72  0.81 -0.07  2.45  1.44  0.11  0.05  0.04
    8 H    1     0.98   0.77  0.21 -0.02  0.05 -0.03
    9 C    6     6.71   2.01  0.66  0.09  0.01  1.99  1.72 -0.13  0.14  0.22
   10 H    1     0.99   0.78  0.16  0.01  0.03  0.02
   11 C    6     5.79   2.01  0.66  0.23  0.33  2.04  0.50 -0.04  0.07  0.01
   12 H    1     0.89   0.77  0.14  0.02  0.03 -0.07
   13 H    1     0.95   0.77  0.23  0.01  0.03 -0.08
   14 H    1     0.94   0.77  0.21  0.02  0.03 -0.09
   15 C    6     4.53   2.01  0.68 -0.10  0.04  1.88  0.14  0.05  0.23 -0.41
   16 O    8     8.84   2.01  0.82  1.03  0.17  2.80  1.86  0.15  0.01 -0.01
   17 N    7     7.54   2.01  0.72  0.83 -0.11  2.45  1.44  0.11  0.05  0.04
   18 H    1     0.90   0.73  0.27 -0.04  0.06 -0.12
   19 C    6     6.40   2.01  0.66  0.06 -0.03  1.99  1.48 -0.06  0.14  0.16
   20 H    1     0.99   0.78  0.18 -0.01  0.03  0.01
   21 C    6     5.75   2.01  0.66  0.30  0.22  2.04  0.48 -0.05  0.07  0.01
   22 H    1     0.99   0.77  0.25  0.01  0.03 -0.07
   23 H    1     0.94   0.77  0.21  0.02  0.03 -0.09
   24 H    1     0.92   0.77  0.17  0.02  0.03 -0.07
   25 C    6     4.63   2.01  0.68  0.08  0.02  1.89 -0.07 -0.04  0.24 -0.18
   26 O    8     8.75   2.01  0.82  1.02  0.15  2.79  1.82  0.14  0.01 -0.01
   27 N    7     7.22   2.01  0.72  0.81 -0.14  2.47  1.25  0.09  0.04 -0.02
   28 H    1     0.92   0.73  0.20 -0.02  0.06 -0.05
   29 H    1     1.02   0.76  0.24 -0.00  0.05 -0.03

       Multipole analysis of the density wrt the origin
       ------------------------------------------------

     L   x y z        total         open         nuclear
     -   - - -        -----         ----         -------
     0   0 0 0     -0.000000      0.000000    108.000000

     1   1 0 0      0.662190      0.000000     -0.000000
     1   0 1 0     -2.907631      0.000000      0.000000
     1   0 0 1     -0.633999      0.000000     -0.000000

     2   2 0 0    -64.241188      0.000000    878.462916
     2   1 1 0      4.198984      0.000000     -5.833626
     2   1 0 1      7.739985      0.000000     21.282515
     2   0 2 0    -64.359584      0.000000   2196.715758
     2   0 1 1      2.725244      0.000000      6.423547
     2   0 0 2    -63.786495      0.000000    139.556312


 Task  times  cpu:     2676.6s     wall:     3030.7s


                                NWChem Input Module
                                -------------------


 Summary of allocated global arrays
-----------------------------------
  No active global arrays


MA_summarize_allocated_blocks: starting scan ...
MA_summarize_allocated_blocks: scan completed: 0 heap blocks, 0 stack blocks
MA usage statistics:

	allocation statistics:
					      heap	     stack
					      ----	     -----
	current number of blocks	         0	         0
	maximum number of blocks	        16	        14
	current total bytes		         0	         0
	maximum total bytes		    102144	  24147816
	maximum total K-bytes		       103	     24148
	maximum total M-bytes		         1	        25


                                     CITATION
                                     --------
                Please cite the following reference when publishing
                           results obtained with NWChem:

          E. Apra, E. J. Bylaska, W. A. de Jong, N. Govind, K. Kowalski,
       T. P. Straatsma, M. Valiev, H. J. J. van Dam, Y. Alexeev, J. Anchell,
       V. Anisimov, F. W. Aquino, R. Atta-Fynn, J. Autschbach, N. P. Bauman,
     J. C. Becca, D. E. Bernholdt, K. Bhaskaran-Nair, S. Bogatko, P. Borowski,
         J. Boschen, J. Brabec, A. Bruner, E. Cauet, Y. Chen, G. N. Chuev,
      C. J. Cramer, J. Daily, M. J. O. Deegan, T. H. Dunning Jr., M. Dupuis,
   K. G. Dyall, G. I. Fann, S. A. Fischer, A. Fonari, H. Fruchtl, L. Gagliardi,
      J. Garza, N. Gawande, S. Ghosh, K. Glaesemann, A. W. Gotz, J. Hammond,
       V. Helms, E. D. Hermes, K. Hirao, S. Hirata, M. Jacquelin, L. Jensen,
   B. G. Johnson, H. Jonsson, R. A. Kendall, M. Klemm, R. Kobayashi, V. Konkov,
      S. Krishnamoorthy, M. Krishnan, Z. Lin, R. D. Lins, R. J. Littlefield,
      A. J. Logsdail, K. Lopata, W. Ma, A. V. Marenich, J. Martin del Campo,
   D. Mejia-Rodriguez, J. E. Moore, J. M. Mullin, T. Nakajima, D. R. Nascimento,
    J. A. Nichols, P. J. Nichols, J. Nieplocha, A. Otero-de-la-Roza, B. Palmer,
    A. Panyala, T. Pirojsirikul, B. Peng, R. Peverati, J. Pittner, L. Pollack,
   R. M. Richard, P. Sadayappan, G. C. Schatz, W. A. Shelton, D. W. Silverstein,
   D. M. A. Smith, T. A. Soares, D. Song, M. Swart, H. L. Taylor, G. S. Thomas,
            V. Tipparaju, D. G. Truhlar, K. Tsemekhman, T. Van Voorhis,
      A. Vazquez-Mayagoitia, P. Verma, O. Villa, A. Vishnu, K. D. Vogiatzis,
        D. Wang, J. H. Weare, M. J. Williamson, T. L. Windus, K. Wolinski,
        A. T. Wong, Q. Wu, C. Yang, Q. Yu, M. Zacharias, Z. Zhang, Y. Zhao,
                                and R. J. Harrison
                        "NWChem: Past, present, and future
                         J. Chem. Phys. 152, 184102 (2020)
                               doi:10.1063/5.0004997

                                      AUTHORS
                                      -------
  E. Apra, E. J. Bylaska, N. Govind, K. Kowalski, M. Valiev, D. Mejia-Rodriguez,
       A. Kunitsa, N. P. Bauman, A. Panyala, W. A. de Jong, T. P. Straatsma,
   H. J. J. van Dam, D. Wang, T. L. Windus, J. Hammond, J. Autschbach, A. Woods,
    K. Bhaskaran-Nair, J. Brabec, K. Lopata, S. A. Fischer, S. Krishnamoorthy,
     M. Jacquelin, W. Ma, M. Klemm, O. Villa, Y. Chen, V. Anisimov, F. Aquino,
     S. Hirata, M. T. Hackler, E. Hermes, L. Jensen, J. E. Moore, J. C. Becca,
      V. Konjkov, T. Risthaus, M. Malagoli, A. Marenich, A. Otero-de-la-Roza,
        J. Mullin, P. Nichols, R. Peverati, J. Pittner, Y. Zhao, P.-D. Fan,
        A. Fonari, M. J. Williamson, R. J. Harrison, J. R. Rehr, M. Dupuis,
     D. Silverstein, D. M. A. Smith, J. Nieplocha, V. Tipparaju, M. Krishnan,
     B. E. Van Kuiken, A. Vazquez-Mayagoitia, M. Swart, Q. Wu, T. Van Voorhis,
     A. A. Auer, M. Nooijen, L. D. Crosby, E. Brown, G. Cisneros, G. I. Fann,
   H. Fruchtl, J. Garza, K. Hirao, R. A. Kendall, J. A. Nichols, K. Tsemekhman,
    K. Wolinski, J. Anchell, D. E. Bernholdt, P. Borowski, T. Clark, D. Clerc,
   H. Dachsel, M. J. O. Deegan, K. Dyall, D. Elwood, E. Glendening, M. Gutowski,
   A. C. Hess, J. Jaffe, B. G. Johnson, J. Ju, R. Kobayashi, R. Kutteh, Z. Lin,
   R. Littlefield, X. Long, B. Meng, T. Nakajima, S. Niu, L. Pollack, M. Rosing,
   K. Glaesemann, G. Sandrone, M. Stave, H. Taylor, G. Thomas, J. H. van Lenthe,
                               A. T. Wong, Z. Zhang.

 Total times  cpu:     2676.7s     wall:     3031.2s
