export TMOUT=5400
export TMPDIR=/tmp
export PTMPDIR=/tmp/ptmp
 argument  1 = ALA_HIS_4.nw
                                         
                                         


             Northwest Computational Chemistry Package (NWChem) 7.2.0
             --------------------------------------------------------


                    Environmental Molecular Sciences Laboratory
                       Pacific Northwest National Laboratory
                                Richland, WA 99352

                              Copyright (c) 1994-2022
                       Pacific Northwest National Laboratory
                            Battelle Memorial Institute

             NWChem is an open-source computational chemistry package
                        distributed under the terms of the
                      Educational Community License (ECL) 2.0
             A copy of the license is included with this distribution
                              in the LICENSE.TXT file

                                  ACKNOWLEDGMENT
                                  --------------

            This software and its documentation were developed at the
            EMSL at Pacific Northwest National Laboratory, a multiprogram
            national laboratory, operated for the U.S. Department of Energy
            by Battelle under Contract Number DE-AC05-76RL01830. Support
            for this work was provided by the Department of Energy Office
            of Biological and Environmental Research, Office of Basic
            Energy Sciences, and the Office of Advanced Scientific Computing.


           Job information
           ---------------

    hostname        = nova18-23
    program         = /opt/rit/el9/20230413/app/linux-rhel9-x86_64_v3/gcc-11.2.1/nwchem-7.2.0-oxtctbuhfuzyfaoziquq6bki22grib3g/bin/nwchem
    date            = Fri Jun 27 03:34:21 2025

    compiled        = Wed_May_17_23:46:39_2023
    source          = /tmp/root/spack-stage/spack-stage-nwchem-7.2.0-oxtctbuhfuzyfaoziquq6bki22grib3g/spack-src
    nwchem branch   = 7.2.0
    nwchem revision = d0d141fd
    ga revision     = 5.8.0
    use scalapack   = T
    input           = ALA_HIS_4.nw
    prefix          = ALA_HIS_4.
    data base       = ./ALA_HIS_4.db
    status          = startup
    nproc           =        8
    time left       =     -1s



           Memory information
           ------------------

    heap     =   26214398 doubles =    200.0 Mbytes
    stack    =   26214395 doubles =    200.0 Mbytes
    global   =   52428800 doubles =    400.0 Mbytes (distinct from heap & stack)
    total    =  104857593 doubles =    800.0 Mbytes
    verify   = yes
    hardfail = no 


           Directory information
           ---------------------

  0 permanent = .
  0 scratch   = .




                                NWChem Input Module
                                -------------------



 Scaling coordinates for geometry "geometry" by  1.889725989
 (inverse scale =  0.529177249)

 C1  symmetry detected

          ------
          auto-z
          ------
  no constraints, skipping    0.0000000000000000     
  no constraints, skipping    0.0000000000000000     


                             Geometry "geometry" -> ""
                             -------------------------

 Output coordinates in angstroms (scale by  1.889725989 to convert to a.u.)

  No.       Tag          Charge          X              Y              Z
 ---- ---------------- ---------- -------------- -------------- --------------
    1 H                    1.0000     0.50999835     5.84124088    -1.69765594
    2 C                    6.0000     0.25930344     5.50518556    -0.69205419
    3 H                    1.0000    -0.81084157     5.62117391    -0.52690472
    4 H                    1.0000     0.81683657     6.08906749     0.03834961
    5 C                    6.0000     0.62783953     4.04697767    -0.55831972
    6 O                    8.0000     1.12052010     3.44713210    -1.50420986
    7 N                    7.0000     0.39624386     3.47774956     0.62214959
    8 H                    1.0000    -0.04576424     4.02657093     1.33966540
    9 C                    6.0000     0.58286962     2.04796327     0.86531827
   10 H                    1.0000     1.53716658     1.74600057     0.42869733
   11 C                    6.0000     0.64955578     1.80250783     2.37775325
   12 H                    1.0000     0.83488945     0.74555779     2.56991733
   13 H                    1.0000     1.46146651     2.38799042     2.81175451
   14 H                    1.0000    -0.29391512     2.08917507     2.84433826
   15 C                    6.0000    -0.52530654     1.20487437     0.20198149
   16 O                    8.0000    -1.68614202     1.61128330     0.15100339
   17 N                    7.0000    -0.17997195    -0.00598534    -0.24089186
   18 H                    1.0000     0.78490988    -0.29606266    -0.12674633
   19 C                    6.0000    -1.05259563    -0.97059921    -0.93252543
   20 H                    1.0000    -1.63452934    -0.42705211    -1.67665492
   21 C                    6.0000    -0.14668447    -1.96858425    -1.67435076
   22 H                    1.0000    -0.76038713    -2.68339918    -2.22502551
   23 H                    1.0000     0.45373475    -1.42422874    -2.40395808
   24 C                    6.0000     0.79200867    -2.71737273    -0.75873457
   25 N                    7.0000     1.94084222    -2.18114229    -0.16834200
   26 C                    6.0000     2.44586502    -3.15748602     0.59904245
   27 H                    1.0000     3.34718536    -3.06466293     1.19228736
   28 N                    7.0000     1.67411246    -4.25644134     0.53529931
   29 H                    1.0000     1.83619535    -5.11854375     1.03493176
   30 C                    6.0000     0.62093610    -3.99459777    -0.31302462
   31 H                    1.0000    -0.20739182    -4.64457820    -0.56096270
   32 C                    6.0000    -2.08145485    -1.67805147    -0.02091093
   33 O                    8.0000    -2.40614568    -2.84567117    -0.20827451
   34 N                    7.0000    -2.60588745    -1.00790206     0.99516594
   35 H                    1.0000    -2.39096357    -0.02648369     1.09740441
   36 H                    1.0000    -3.27584310    -1.47257289     1.58369159

      Atomic Mass 
      ----------- 

      H                  1.007825
      C                 12.000000
      O                 15.994910
      N                 14.003070


 Effective nuclear repulsion energy (a.u.)    1483.1137050845

            Nuclear Dipole moment (a.u.) 
            ----------------------------
        X                 Y               Z
 ---------------- ---------------- ----------------
    -0.0000000000     0.0000000000    -0.0000000000



                                Z-matrix (autoz)
                                -------- 

 Units are Angstrom for bonds and degrees for angles

      Type          Name      I     J     K     L     M      Value
      ----------- --------  ----- ----- ----- ----- ----- ----------
    1 Stretch                  1     2                       1.08950
    2 Stretch                  2     3                       1.08901
    3 Stretch                  2     4                       1.08869
    4 Stretch                  2     5                       1.50999
    5 Stretch                  5     6                       1.22362
    6 Stretch                  5     7                       1.33085
    7 Stretch                  7     8                       1.00569
    8 Stretch                  7     9                       1.46228
    9 Stretch                  9    10                       1.09202
   10 Stretch                  9    11                       1.53367
   11 Stretch                  9    15                       1.54236
   12 Stretch                 11    12                       1.09015
   13 Stretch                 11    13                       1.09103
   14 Stretch                 11    14                       1.09088
   15 Stretch                 15    16                       1.23098
   16 Stretch                 15    17                       1.33476
   17 Stretch                 17    18                       1.01399
   18 Stretch                 17    19                       1.47320
   19 Stretch                 19    20                       1.08987
   20 Stretch                 19    21                       1.53849
   21 Stretch                 19    32                       1.54599
   22 Stretch                 21    22                       1.09125
   23 Stretch                 21    23                       1.09048
   24 Stretch                 21    24                       1.51003
   25 Stretch                 24    25                       1.39854
   26 Stretch                 24    30                       1.36353
   27 Stretch                 25    26                       1.34059
   28 Stretch                 26    27                       1.08302
   29 Stretch                 26    28                       1.34438
   30 Stretch                 28    29                       1.00952
   31 Stretch                 28    30                       1.37746
   32 Stretch                 30    31                       1.08170
   33 Stretch                 32    33                       1.22632
   34 Stretch                 32    34                       1.32535
   35 Stretch                 34    35                       1.00986
   36 Stretch                 34    36                       1.00555
   37 Bend                     1     2     3               109.46526
   38 Bend                     1     2     4               109.63168
   39 Bend                     1     2     5               108.87212
   40 Bend                     2     5     6               120.21295
   41 Bend                     2     5     7               116.68823
   42 Bend                     3     2     4               110.14380
   43 Bend                     3     2     5               109.22399
   44 Bend                     4     2     5               109.48224
   45 Bend                     5     7     8               118.41867
   46 Bend                     5     7     9               122.92280
   47 Bend                     6     5     7               123.09755
   48 Bend                     7     9    10               108.38594
   49 Bend                     7     9    11               109.02796
   50 Bend                     7     9    15               111.79329
   51 Bend                     8     7     9               118.10197
   52 Bend                     9    11    12               109.65741
   53 Bend                     9    11    13               109.80100
   54 Bend                     9    11    14               110.00661
   55 Bend                     9    15    16               120.99054
   56 Bend                     9    15    17               116.91655
   57 Bend                    10     9    11               108.18221
   58 Bend                    10     9    15               107.74441
   59 Bend                    11     9    15               111.58499
   60 Bend                    12    11    13               108.88424
   61 Bend                    12    11    14               109.05186
   62 Bend                    13    11    14               109.41761
   63 Bend                    15    17    18               117.92824
   64 Bend                    15    17    19               126.62102
   65 Bend                    16    15    17               121.98838
   66 Bend                    17    19    20               108.07525
   67 Bend                    17    19    21               107.59737
   68 Bend                    17    19    32               114.64493
   69 Bend                    18    17    19               115.41564
   70 Bend                    19    21    22               109.69911
   71 Bend                    19    21    23               108.84490
   72 Bend                    19    21    24               113.28680
   73 Bend                    19    32    33               121.45389
   74 Bend                    19    32    34               118.94818
   75 Bend                    20    19    21               107.98102
   76 Bend                    20    19    32               105.99065
   77 Bend                    21    19    32               112.29361
   78 Bend                    21    24    25               125.20397
   79 Bend                    21    24    30               125.78192
   80 Bend                    22    21    23               107.39796
   81 Bend                    22    21    24               109.31514
   82 Bend                    23    21    24               108.11684
   83 Bend                    24    25    26               105.77491
   84 Bend                    24    30    28               106.46590
   85 Bend                    24    30    31               125.73260
   86 Bend                    25    24    30               108.91837
   87 Bend                    25    26    27               124.37803
   88 Bend                    25    26    28               110.60606
   89 Bend                    26    28    29               125.62241
   90 Bend                    26    28    30               108.22343
   91 Bend                    27    26    28               125.01418
   92 Bend                    28    30    31               127.76513
   93 Bend                    29    28    30               126.14947
   94 Bend                    32    34    35               118.99936
   95 Bend                    32    34    36               118.59923
   96 Bend                    33    32    34               119.59080
   97 Bend                    35    34    36               122.11594
   98 Torsion                  1     2     5     6          -0.17517
   99 Torsion                  1     2     5     7         179.42737
  100 Torsion                  2     5     7     8           2.83742
  101 Torsion                  2     5     7     9         174.11076
  102 Torsion                  3     2     5     6         119.30769
  103 Torsion                  3     2     5     7         -61.08978
  104 Torsion                  4     2     5     6        -120.01342
  105 Torsion                  4     2     5     7          59.58912
  106 Torsion                  5     7     9    10          45.34134
  107 Torsion                  5     7     9    11         162.88738
  108 Torsion                  5     7     9    15         -73.26475
  109 Torsion                  6     5     7     8        -177.57258
  110 Torsion                  6     5     7     9          -6.29924
  111 Torsion                  7     9    11    12        -177.39299
  112 Torsion                  7     9    11    13         -57.79600
  113 Torsion                  7     9    11    14          62.67661
  114 Torsion                  7     9    15    16         -36.33507
  115 Torsion                  7     9    15    17         147.31012
  116 Torsion                  8     7     9    10        -143.35923
  117 Torsion                  8     7     9    11         -25.81319
  118 Torsion                  8     7     9    15          98.03468
  119 Torsion                  9    15    17    18          -0.68006
  120 Torsion                  9    15    17    19        -178.41658
  121 Torsion                 10     9    11    12         -59.71825
  122 Torsion                 10     9    11    13          59.87873
  123 Torsion                 10     9    11    14        -179.64865
  124 Torsion                 10     9    15    16        -155.32185
  125 Torsion                 10     9    15    17          28.32334
  126 Torsion                 11     9    15    16          86.06243
  127 Torsion                 11     9    15    17         -90.29239
  128 Torsion                 12    11     9    15          58.63589
  129 Torsion                 13    11     9    15         178.23288
  130 Torsion                 14    11     9    15         -61.29451
  131 Torsion                 15    17    19    20          43.97133
  132 Torsion                 15    17    19    21         160.34247
  133 Torsion                 15    17    19    32         -73.96938
  134 Torsion                 16    15    17    18        -176.99572
  135 Torsion                 16    15    17    19           5.26776
  136 Torsion                 17    19    21    22        -178.30320
  137 Torsion                 17    19    21    23         -61.05925
  138 Torsion                 17    19    21    24          59.24575
  139 Torsion                 17    19    32    33        -144.90572
  140 Torsion                 17    19    32    34          34.11799
  141 Torsion                 18    17    19    20        -133.81454
  142 Torsion                 18    17    19    21         -17.44340
  143 Torsion                 18    17    19    32         108.24475
  144 Torsion                 19    21    24    25         -74.82426
  145 Torsion                 19    21    24    30         101.21878
  146 Torsion                 19    32    34    35           5.89176
  147 Torsion                 19    32    34    36         179.88704
  148 Torsion                 20    19    21    22         -61.87029
  149 Torsion                 20    19    21    23          55.37366
  150 Torsion                 20    19    21    24         175.67865
  151 Torsion                 20    19    32    33          95.97864
  152 Torsion                 20    19    32    34         -84.99765
  153 Torsion                 21    19    32    33         -21.70333
  154 Torsion                 21    19    32    34         157.32038
  155 Torsion                 21    24    25    26         177.70206
  156 Torsion                 21    24    30    28        -177.53153
  157 Torsion                 21    24    30    31           0.41149
  158 Torsion                 22    21    19    32          54.62287
  159 Torsion                 22    21    24    25         162.51164
  160 Torsion                 22    21    24    30         -21.44532
  161 Torsion                 23    21    19    32         171.86682
  162 Torsion                 23    21    24    25          45.89365
  163 Torsion                 23    21    24    30        -138.06331
  164 Torsion                 24    21    19    32         -67.82819
  165 Torsion                 24    25    26    27         179.63747
  166 Torsion                 24    25    26    28          -0.82022
  167 Torsion                 24    30    28    26           0.44394
  168 Torsion                 24    30    28    29         179.68922
  169 Torsion                 25    24    30    28          -0.94872
  170 Torsion                 25    24    30    31         176.99430
  171 Torsion                 25    26    28    29        -178.99920
  172 Torsion                 25    26    28    30           0.25110
  173 Torsion                 26    25    24    30           1.09473
  174 Torsion                 26    28    30    31        -177.44384
  175 Torsion                 27    26    28    29           0.53959
  176 Torsion                 27    26    28    30         179.78988
  177 Torsion                 29    28    30    31           1.80145
  178 Torsion                 33    32    34    35        -175.06598
  179 Torsion                 33    32    34    36          -1.07071


            XYZ format geometry
            -------------------
    36
 geometry
 H                     0.50999835     5.84124088    -1.69765594
 C                     0.25930344     5.50518556    -0.69205419
 H                    -0.81084157     5.62117391    -0.52690472
 H                     0.81683657     6.08906749     0.03834961
 C                     0.62783953     4.04697767    -0.55831972
 O                     1.12052010     3.44713210    -1.50420986
 N                     0.39624386     3.47774956     0.62214959
 H                    -0.04576424     4.02657093     1.33966540
 C                     0.58286962     2.04796327     0.86531827
 H                     1.53716658     1.74600057     0.42869733
 C                     0.64955578     1.80250783     2.37775325
 H                     0.83488945     0.74555779     2.56991733
 H                     1.46146651     2.38799042     2.81175451
 H                    -0.29391512     2.08917507     2.84433826
 C                    -0.52530654     1.20487437     0.20198149
 O                    -1.68614202     1.61128330     0.15100339
 N                    -0.17997195    -0.00598534    -0.24089186
 H                     0.78490988    -0.29606266    -0.12674633
 C                    -1.05259563    -0.97059921    -0.93252543
 H                    -1.63452934    -0.42705211    -1.67665492
 C                    -0.14668447    -1.96858425    -1.67435076
 H                    -0.76038713    -2.68339918    -2.22502551
 H                     0.45373475    -1.42422874    -2.40395808
 C                     0.79200867    -2.71737273    -0.75873457
 N                     1.94084222    -2.18114229    -0.16834200
 C                     2.44586502    -3.15748602     0.59904245
 H                     3.34718536    -3.06466293     1.19228736
 N                     1.67411246    -4.25644134     0.53529931
 H                     1.83619535    -5.11854375     1.03493176
 C                     0.62093610    -3.99459777    -0.31302462
 H                    -0.20739182    -4.64457820    -0.56096270
 C                    -2.08145485    -1.67805147    -0.02091093
 O                    -2.40614568    -2.84567117    -0.20827451
 N                    -2.60588745    -1.00790206     0.99516594
 H                    -2.39096357    -0.02648369     1.09740441
 H                    -3.27584310    -1.47257289     1.58369159

 ==============================================================================
                                internuclear distances
 ------------------------------------------------------------------------------
       center one      |      center two      | atomic units |  angstroms
 ------------------------------------------------------------------------------
    2 C                |   1 H                |     2.05886  |     1.08950
    3 H                |   2 C                |     2.05793  |     1.08901
    4 H                |   2 C                |     2.05733  |     1.08869
    5 C                |   2 C                |     2.85347  |     1.50999
    6 O                |   5 C                |     2.31232  |     1.22362
    7 N                |   5 C                |     2.51494  |     1.33085
    8 H                |   7 N                |     1.90047  |     1.00569
    9 C                |   7 N                |     2.76330  |     1.46228
   10 H                |   9 C                |     2.06361  |     1.09202
   11 C                |   9 C                |     2.89822  |     1.53367
   12 H                |  11 C                |     2.06008  |     1.09015
   13 H                |  11 C                |     2.06175  |     1.09103
   14 H                |  11 C                |     2.06146  |     1.09088
   15 C                |   9 C                |     2.91463  |     1.54236
   16 O                |  15 C                |     2.32621  |     1.23098
   17 N                |  15 C                |     2.52232  |     1.33476
   18 H                |  17 N                |     1.91616  |     1.01399
   19 C                |  17 N                |     2.78394  |     1.47320
   20 H                |  19 C                |     2.05956  |     1.08987
   21 C                |  19 C                |     2.90733  |     1.53849
   22 H                |  21 C                |     2.06217  |     1.09125
   23 H                |  21 C                |     2.06071  |     1.09048
   24 C                |  21 C                |     2.85354  |     1.51003
   25 N                |  24 C                |     2.64286  |     1.39854
   26 C                |  25 N                |     2.53334  |     1.34059
   27 H                |  26 C                |     2.04661  |     1.08302
   28 N                |  26 C                |     2.54052  |     1.34438
   29 H                |  28 N                |     1.90771  |     1.00952
   30 C                |  24 C                |     2.57671  |     1.36353
   30 C                |  28 N                |     2.60302  |     1.37746
   31 H                |  30 C                |     2.04412  |     1.08170
   32 C                |  19 C                |     2.92149  |     1.54599
   33 O                |  32 C                |     2.31741  |     1.22632
   34 N                |  32 C                |     2.50454  |     1.32535
   35 H                |  34 N                |     1.90837  |     1.00986
   36 H                |  34 N                |     1.90021  |     1.00555
 ------------------------------------------------------------------------------
                         number of included internuclear distances:         36
 ==============================================================================



 ==============================================================================
                                 internuclear angles
 ------------------------------------------------------------------------------
        center 1       |       center 2       |       center 3       |  degrees
 ------------------------------------------------------------------------------
    1 H                |   2 C                |   3 H                |   109.47
    1 H                |   2 C                |   4 H                |   109.63
    1 H                |   2 C                |   5 C                |   108.87
    3 H                |   2 C                |   4 H                |   110.14
    3 H                |   2 C                |   5 C                |   109.22
    4 H                |   2 C                |   5 C                |   109.48
    2 C                |   5 C                |   6 O                |   120.21
    2 C                |   5 C                |   7 N                |   116.69
    6 O                |   5 C                |   7 N                |   123.10
    5 C                |   7 N                |   8 H                |   118.42
    5 C                |   7 N                |   9 C                |   122.92
    8 H                |   7 N                |   9 C                |   118.10
    7 N                |   9 C                |  10 H                |   108.39
    7 N                |   9 C                |  11 C                |   109.03
    7 N                |   9 C                |  15 C                |   111.79
   10 H                |   9 C                |  11 C                |   108.18
   10 H                |   9 C                |  15 C                |   107.74
   11 C                |   9 C                |  15 C                |   111.58
    9 C                |  11 C                |  12 H                |   109.66
    9 C                |  11 C                |  13 H                |   109.80
    9 C                |  11 C                |  14 H                |   110.01
   12 H                |  11 C                |  13 H                |   108.88
   12 H                |  11 C                |  14 H                |   109.05
   13 H                |  11 C                |  14 H                |   109.42
    9 C                |  15 C                |  16 O                |   120.99
    9 C                |  15 C                |  17 N                |   116.92
   16 O                |  15 C                |  17 N                |   121.99
   15 C                |  17 N                |  18 H                |   117.93
   15 C                |  17 N                |  19 C                |   126.62
   18 H                |  17 N                |  19 C                |   115.42
   17 N                |  19 C                |  20 H                |   108.08
   17 N                |  19 C                |  21 C                |   107.60
   17 N                |  19 C                |  32 C                |   114.64
   20 H                |  19 C                |  21 C                |   107.98
   20 H                |  19 C                |  32 C                |   105.99
   21 C                |  19 C                |  32 C                |   112.29
   19 C                |  21 C                |  22 H                |   109.70
   19 C                |  21 C                |  23 H                |   108.84
   19 C                |  21 C                |  24 C                |   113.29
   22 H                |  21 C                |  23 H                |   107.40
   22 H                |  21 C                |  24 C                |   109.32
   23 H                |  21 C                |  24 C                |   108.12
   21 C                |  24 C                |  25 N                |   125.20
   21 C                |  24 C                |  30 C                |   125.78
   25 N                |  24 C                |  30 C                |   108.92
   24 C                |  25 N                |  26 C                |   105.77
   25 N                |  26 C                |  27 H                |   124.38
   25 N                |  26 C                |  28 N                |   110.61
   27 H                |  26 C                |  28 N                |   125.01
   26 C                |  28 N                |  29 H                |   125.62
   26 C                |  28 N                |  30 C                |   108.22
   29 H                |  28 N                |  30 C                |   126.15
   24 C                |  30 C                |  28 N                |   106.47
   24 C                |  30 C                |  31 H                |   125.73
   28 N                |  30 C                |  31 H                |   127.77
   19 C                |  32 C                |  33 O                |   121.45
   19 C                |  32 C                |  34 N                |   118.95
   33 O                |  32 C                |  34 N                |   119.59
   32 C                |  34 N                |  35 H                |   119.00
   32 C                |  34 N                |  36 H                |   118.60
   35 H                |  34 N                |  36 H                |   122.12
 ------------------------------------------------------------------------------
                            number of included internuclear angles:         61
 ==============================================================================



  library name resolved from: environment
  library file name is: </opt/rit/el9/20230413/app/linux-rhel9-x86_64_v3/gcc-11.2.1/nwchem-7.2.0-oxtctbuhfuzyfaoziquq6bki22grib3g/share/nwchem/libraries/>
  


 Summary of "ao basis" -> "" (cartesian)
 ------------------------------------------------------------------------------
       Tag                 Description            Shells   Functions and Types
 ---------------- ------------------------------  ------  ---------------------
 *                        aug-cc-pvdz                 on all atoms 


                      Basis "ao basis" -> "ao basis" (cartesian)
                      -----
  H (Hydrogen)
  ------------
            Exponent  Coefficients 
       -------------- ---------------------------------------------------------
  1 S  1.30100000E+01  0.019685
  1 S  1.96200000E+00  0.137977
  1 S  4.44600000E-01  0.478148

  2 S  1.22000000E-01  1.000000

  3 S  2.97400000E-02  1.000000

  4 P  7.27000000E-01  1.000000

  5 P  1.41000000E-01  1.000000

  C (Carbon)
  ----------
            Exponent  Coefficients 
       -------------- ---------------------------------------------------------
  1 S  6.66500000E+03  0.000692
  1 S  1.00000000E+03  0.005329
  1 S  2.28000000E+02  0.027077
  1 S  6.47100000E+01  0.101718
  1 S  2.10600000E+01  0.274740
  1 S  7.49500000E+00  0.448564
  1 S  2.79700000E+00  0.285074
  1 S  5.21500000E-01  0.015204

  2 S  6.66500000E+03 -0.000146
  2 S  1.00000000E+03 -0.001154
  2 S  2.28000000E+02 -0.005725
  2 S  6.47100000E+01 -0.023312
  2 S  2.10600000E+01 -0.063955
  2 S  7.49500000E+00 -0.149981
  2 S  2.79700000E+00 -0.127262
  2 S  5.21500000E-01  0.544529

  3 S  1.59600000E-01  1.000000

  4 S  4.69000000E-02  1.000000

  5 P  9.43900000E+00  0.038109
  5 P  2.00200000E+00  0.209480
  5 P  5.45600000E-01  0.508557

  6 P  1.51700000E-01  1.000000

  7 P  4.04100000E-02  1.000000

  8 D  5.50000000E-01  1.000000

  9 D  1.51000000E-01  1.000000

  O (Oxygen)
  ----------
            Exponent  Coefficients 
       -------------- ---------------------------------------------------------
  1 S  1.17200000E+04  0.000710
  1 S  1.75900000E+03  0.005470
  1 S  4.00800000E+02  0.027837
  1 S  1.13700000E+02  0.104800
  1 S  3.70300000E+01  0.283062
  1 S  1.32700000E+01  0.448719
  1 S  5.02500000E+00  0.270952
  1 S  1.01300000E+00  0.015458

  2 S  1.17200000E+04 -0.000160
  2 S  1.75900000E+03 -0.001263
  2 S  4.00800000E+02 -0.006267
  2 S  1.13700000E+02 -0.025716
  2 S  3.70300000E+01 -0.070924
  2 S  1.32700000E+01 -0.165411
  2 S  5.02500000E+00 -0.116955
  2 S  1.01300000E+00  0.557368

  3 S  3.02300000E-01  1.000000

  4 S  7.89600000E-02  1.000000

  5 P  1.77000000E+01  0.043018
  5 P  3.85400000E+00  0.228913
  5 P  1.04600000E+00  0.508728

  6 P  2.75300000E-01  1.000000

  7 P  6.85600000E-02  1.000000

  8 D  1.18500000E+00  1.000000

  9 D  3.32000000E-01  1.000000

  N (Nitrogen)
  ------------
            Exponent  Coefficients 
       -------------- ---------------------------------------------------------
  1 S  9.04600000E+03  0.000700
  1 S  1.35700000E+03  0.005389
  1 S  3.09300000E+02  0.027406
  1 S  8.77300000E+01  0.103207
  1 S  2.85600000E+01  0.278723
  1 S  1.02100000E+01  0.448540
  1 S  3.83800000E+00  0.278238
  1 S  7.46600000E-01  0.015440

  2 S  9.04600000E+03 -0.000153
  2 S  1.35700000E+03 -0.001208
  2 S  3.09300000E+02 -0.005992
  2 S  8.77300000E+01 -0.024544
  2 S  2.85600000E+01 -0.067459
  2 S  1.02100000E+01 -0.158078
  2 S  3.83800000E+00 -0.121831
  2 S  7.46600000E-01  0.549003

  3 S  2.24800000E-01  1.000000

  4 S  6.12400000E-02  1.000000

  5 P  1.35500000E+01  0.039919
  5 P  2.91700000E+00  0.217169
  5 P  7.97300000E-01  0.510319

  6 P  2.18500000E-01  1.000000

  7 P  5.61100000E-02  1.000000

  8 D  8.17000000E-01  1.000000

  9 D  2.30000000E-01  1.000000



 Summary of "ao basis" -> "ao basis" (cartesian)
 ------------------------------------------------------------------------------
       Tag                 Description            Shells   Functions and Types
 ---------------- ------------------------------  ------  ---------------------
 H                        aug-cc-pvdz                5        9   3s2p
 C                        aug-cc-pvdz                9       25   4s3p2d
 O                        aug-cc-pvdz                9       25   4s3p2d
 N                        aug-cc-pvdz                9       25   4s3p2d


                                 NWChem SCF Module
                                 -----------------



  ao basis        = "ao basis"
  functions       =   628
  atoms           =    36
  closed shells   =    71
  open shells     =     0
  charge          =   0.00
  wavefunction    = RHF 
  input vectors   = atomic
  output vectors  = ./ALA_HIS_4.movecs
  use symmetry    = F
  symmetry adapt  = F


 Summary of "ao basis" -> "ao basis" (cartesian)
 ------------------------------------------------------------------------------
       Tag                 Description            Shells   Functions and Types
 ---------------- ------------------------------  ------  ---------------------
 H                        aug-cc-pvdz                5        9   3s2p
 C                        aug-cc-pvdz                9       25   4s3p2d
 O                        aug-cc-pvdz                9       25   4s3p2d
 N                        aug-cc-pvdz                9       25   4s3p2d



 Forming initial guess at       1.3s


 !! The overlap matrix has   7 vectors deemed linearly dependent with
    eigenvalues:
 2.62D-06 3.67D-06 3.87D-06 5.55D-06 6.38D-06 7.35D-06 8.28D-06


      Superposition of Atomic Density Guess
      -------------------------------------

 Sum of atomic energies:        -918.63993171

      Non-variational initial energy
      ------------------------------

 Total energy =    -931.274755
 1-e energy   =   -4194.965293
 2-e energy   =    1780.576833
 HOMO         =      -0.243812
 LUMO         =       0.011235


 Starting SCF solution at     284.1s



 ----------------------------------------------
         Quadratically convergent ROHF

 Convergence threshold     :          1.000E-04
 Maximum no. of iterations :           30
 Final Fock-matrix accuracy:          1.000E-10
 ----------------------------------------------


              iter       energy          gnorm     gmax       time
             ----- ------------------- --------- --------- --------
                 1     -923.0553199913  2.52D+00  1.46D-01    554.8
                 2     -923.4057321567  8.88D-01  5.01D-02   1156.7
                 3     -923.4735268289  6.64D-02  5.07D-03   2122.7
                 4     -923.4742024821  4.07D-03  3.57D-04   3339.8
                 5     -923.4742057396  1.49D-05  2.29D-06   5358.5


       Final RHF  results 
       ------------------ 

         Total SCF energy =   -923.474205739606
      One-electron energy =  -4208.604169037462
      Two-electron energy =   1802.016258213323
 Nuclear repulsion energy =   1483.113705084533

        Time for solution =   5082.4s


             Final eigenvalues
             -----------------

              1      
    1  -20.5324
    2  -20.5193
    3  -20.5150
    4  -15.6420
    5  -15.5985
    6  -15.5974
    7  -15.5769
    8  -15.5663
    9  -11.3616
   10  -11.3496
   11  -11.3492
   12  -11.3169
   13  -11.3004
   14  -11.2973
   15  -11.2653
   16  -11.2598
   17  -11.2517
   18  -11.2476
   19  -11.2382
   20   -1.3950
   21   -1.3802
   22   -1.3759
   23   -1.3516
   24   -1.2473
   25   -1.2448
   26   -1.2053
   27   -1.1722
   28   -1.0792
   29   -1.0560
   30   -1.0068
   31   -0.9908
   32   -0.9182
   33   -0.8892
   34   -0.8403
   35   -0.8186
   36   -0.7971
   37   -0.7885
   38   -0.7709
   39   -0.7531
   40   -0.7292
   41   -0.7207
   42   -0.6844
   43   -0.6749
   44   -0.6631
   45   -0.6492
   46   -0.6237
   47   -0.6183
   48   -0.6124
   49   -0.6078
   50   -0.6053
   51   -0.5926
   52   -0.5839
   53   -0.5816
   54   -0.5683
   55   -0.5602
   56   -0.5499
   57   -0.5477
   58   -0.5390
   59   -0.5281
   60   -0.5200
   61   -0.5135
   62   -0.5085
   63   -0.4440
   64   -0.4388
   65   -0.4311
   66   -0.4168
   67   -0.4047
   68   -0.4005
   69   -0.3953
   70   -0.3855
   71   -0.3209
   72    0.0230
   73    0.0303
   74    0.0396
   75    0.0420
   76    0.0490
   77    0.0501
   78    0.0559
   79    0.0613
   80    0.0672
   81    0.0687

                       ROHF Final Molecular Orbital Analysis
                       -------------------------------------

 Vector   20  Occ=2.000000D+00  E=-1.395048D+00
              MO Center= -1.0D+00,  1.4D+00,  3.7D-02, r^2= 2.6D+00
   Bfn.  Coefficient  Atom+Function         Bfn.  Coefficient  Atom+Function  
  ----- ------------  ---------------      ----- ------------  ---------------
   250      0.341208  16 O  s               249      0.319134  16 O  s         
   224      0.226059  15 C  s         

 Vector   21  Occ=2.000000D+00  E=-1.380205D+00
              MO Center=  3.2D-01,  2.6D+00, -7.9D-01, r^2= 6.8D+00
   Bfn.  Coefficient  Atom+Function         Bfn.  Coefficient  Atom+Function  
  ----- ------------  ---------------      ----- ------------  ---------------
    80      0.315010   6 O  s                79      0.312997   6 O  s         
    54      0.222426   5 C  s         

 Vector   22  Occ=2.000000D+00  E=-1.375938D+00
              MO Center= -1.9D+00, -1.4D+00, -1.2D-01, r^2= 5.6D+00
   Bfn.  Coefficient  Atom+Function         Bfn.  Coefficient  Atom+Function  
  ----- ------------  ---------------      ----- ------------  ---------------
   563      0.347790  33 O  s               562      0.320812  33 O  s         
   537      0.220840  32 C  s         

 Vector   23  Occ=2.000000D+00  E=-1.351583D+00
              MO Center=  1.7D+00, -3.6D+00,  2.4D-01, r^2= 1.3D+00
   Bfn.  Coefficient  Atom+Function         Bfn.  Coefficient  Atom+Function  
  ----- ------------  ---------------      ----- ------------  ---------------
   470      0.342335  28 N  s               469      0.295770  28 N  s         
   435      0.192512  26 C  s               411      0.190319  25 N  s         
   410      0.166569  25 N  s         

 Vector   24  Occ=2.000000D+00  E=-1.247286D+00
              MO Center= -3.2D-01,  8.1D-01, -8.2D-02, r^2= 4.0D+00
   Bfn.  Coefficient  Atom+Function         Bfn.  Coefficient  Atom+Function  
  ----- ------------  ---------------      ----- ------------  ---------------
   275      0.324593  17 N  s               274      0.289620  17 N  s         
   250     -0.230586  16 O  s               105      0.196868   7 N  s         
   249     -0.180703  16 O  s               104      0.153455   7 N  s         

 Vector   25  Occ=2.000000D+00  E=-1.244771D+00
              MO Center=  2.8D-01,  2.6D+00,  1.4D-01, r^2= 4.3D+00
   Bfn.  Coefficient  Atom+Function         Bfn.  Coefficient  Atom+Function  
  ----- ------------  ---------------      ----- ------------  ---------------
   105      0.380921   7 N  s               104      0.305334   7 N  s         
    80     -0.193372   6 O  s                59      0.167868   5 C  pz        
    79     -0.167956   6 O  s               274     -0.166798  17 N  s         
   275     -0.165827  17 N  s         

 Vector   26  Occ=2.000000D+00  E=-1.205305D+00
              MO Center= -2.4D+00, -1.2D+00,  6.7D-01, r^2= 1.7D+00
   Bfn.  Coefficient  Atom+Function         Bfn.  Coefficient  Atom+Function  
  ----- ------------  ---------------      ----- ------------  ---------------
   588      0.398174  34 N  s               587      0.367478  34 N  s         
   563     -0.212836  33 O  s               562     -0.173332  33 O  s         
   541      0.167368  32 C  py              611      0.164390  35 H  s         
   620      0.157788  36 H  s               275     -0.156115  17 N  s         

 Vector   27  Occ=2.000000D+00  E=-1.172216D+00
              MO Center=  1.6D+00, -3.1D+00,  5.4D-02, r^2= 2.3D+00
   Bfn.  Coefficient  Atom+Function         Bfn.  Coefficient  Atom+Function  
  ----- ------------  ---------------      ----- ------------  ---------------
   470     -0.371575  28 N  s               411      0.364924  25 N  s         
   410      0.292770  25 N  s               469     -0.257927  28 N  s         
   385      0.154587  24 C  s               439      0.152392  26 C  py        

 Vector   28  Occ=2.000000D+00  E=-1.079166D+00
              MO Center=  1.0D-01, -7.7D-02, -1.6D-01, r^2= 8.4D+00
   Bfn.  Coefficient  Atom+Function         Bfn.  Coefficient  Atom+Function  
  ----- ------------  ---------------      ----- ------------  ---------------
   342      0.188820  21 C  s               308      0.171728  19 C  s         
   138     -0.159311   9 C  s         

 Vector   29  Occ=2.000000D+00  E=-1.055975D+00
              MO Center=  5.0D-01,  5.6D-01,  2.7D-01, r^2= 1.1D+01
   Bfn.  Coefficient  Atom+Function         Bfn.  Coefficient  Atom+Function  
  ----- ------------  ---------------      ----- ------------  ---------------
   172      0.182856  11 C  s               138      0.177898   9 C  s         
   342      0.156690  21 C  s         

 Vector   30  Occ=2.000000D+00  E=-1.006761D+00
              MO Center=  4.6D-01, -1.8D+00, -2.7D-01, r^2= 9.8D+00
   Bfn.  Coefficient  Atom+Function         Bfn.  Coefficient  Atom+Function  
  ----- ------------  ---------------      ----- ------------  ---------------
   503      0.215888  30 C  s               308     -0.187274  19 C  s         
   435     -0.168422  26 C  s               385      0.153869  24 C  s         

 Vector   31  Occ=2.000000D+00  E=-9.908337D-01
              MO Center=  3.8D-01,  4.1D+00, -8.1D-03, r^2= 7.1D+00
   Bfn.  Coefficient  Atom+Function         Bfn.  Coefficient  Atom+Function  
  ----- ------------  ---------------      ----- ------------  ---------------
    11      0.311072   2 C  s                56     -0.235226   5 C  s         
    13      0.225386   2 C  s               172      0.172337  11 C  s         
    58      0.160466   5 C  py        

 Vector   32  Occ=2.000000D+00  E=-9.182438D-01
              MO Center=  2.6D-02, -1.0D+00, -1.9D-01, r^2= 8.6D+00
   Bfn.  Coefficient  Atom+Function         Bfn.  Coefficient  Atom+Function  
  ----- ------------  ---------------      ----- ------------  ---------------
   139      0.221762   9 C  s               342      0.220575  21 C  s         
   225     -0.182130  15 C  s               316     -0.169932  19 C  pz        
   144     -0.168032   9 C  px              146     -0.152240   9 C  pz        

 Vector   33  Occ=2.000000D+00  E=-8.892303D-01
              MO Center= -7.3D-02,  8.7D-01,  6.9D-01, r^2= 8.5D+00
   Bfn.  Coefficient  Atom+Function         Bfn.  Coefficient  Atom+Function  
  ----- ------------  ---------------      ----- ------------  ---------------
   139      0.313693   9 C  s               144     -0.231631   9 C  px        
   276      0.207022  17 N  s               309      0.201310  19 C  s         
   146     -0.195175   9 C  pz              172     -0.194563  11 C  s         
   138      0.178434   9 C  s               225     -0.162165  15 C  s         
   231     -0.151081  15 C  py        

 Vector   34  Occ=2.000000D+00  E=-8.402570D-01
              MO Center=  1.5D+00, -3.1D+00,  2.4D-01, r^2= 5.2D+00
   Bfn.  Coefficient  Atom+Function         Bfn.  Coefficient  Atom+Function  
  ----- ------------  ---------------      ----- ------------  ---------------
   473     -0.259778  28 N  py              411      0.256515  25 N  s         
   493      0.253705  29 H  s               470      0.221451  28 N  s         
   435     -0.207268  26 C  s               504     -0.188254  30 C  s         
   386     -0.171086  24 C  s               410      0.157689  25 N  s         
   460     -0.155711  27 H  s               389      0.151323  24 C  py        

 Vector   35  Occ=2.000000D+00  E=-8.186416D-01
              MO Center= -1.8D-01,  9.7D-01,  2.1D-01, r^2= 1.0D+01
   Bfn.  Coefficient  Atom+Function         Bfn.  Coefficient  Atom+Function  
  ----- ------------  ---------------      ----- ------------  ---------------
   309      0.287497  19 C  s               109     -0.197558   7 N  pz        
   278      0.179723  17 N  py              225      0.152553  15 C  s         

 Vector   36  Occ=2.000000D+00  E=-7.970845D-01
              MO Center= -1.1D-01,  1.4D+00,  2.9D-01, r^2= 1.1D+01
   Bfn.  Coefficient  Atom+Function         Bfn.  Coefficient  Atom+Function  
  ----- ------------  ---------------      ----- ------------  ---------------
   109      0.266092   7 N  pz              128      0.244317   8 H  s         
    56      0.190805   5 C  s               105      0.173110   7 N  s         
   309      0.167840  19 C  s                55     -0.166506   5 C  s         
    54     -0.150851   5 C  s         

 Vector   37  Occ=2.000000D+00  E=-7.884592D-01
              MO Center= -2.7D-01, -8.1D-01,  1.1D-02, r^2= 8.6D+00
   Bfn.  Coefficient  Atom+Function         Bfn.  Coefficient  Atom+Function  
  ----- ------------  ---------------      ----- ------------  ---------------
   225      0.212387  15 C  s               298     -0.181511  18 H  s         
   275     -0.172874  17 N  s               278      0.162895  17 N  py        
   314      0.160470  19 C  px              277     -0.154901  17 N  px        

 Vector   38  Occ=2.000000D+00  E=-7.708926D-01
              MO Center=  9.1D-01, -2.9D+00,  1.4D-01, r^2= 6.1D+00
   Bfn.  Coefficient  Atom+Function         Bfn.  Coefficient  Atom+Function  
  ----- ------------  ---------------      ----- ------------  ---------------
   527      0.204264  31 H  s               439      0.192402  26 C  py        
   473     -0.186014  28 N  py              459      0.171431  27 H  s         
   438      0.161221  26 C  px              413      0.150435  25 N  px        

 Vector   39  Occ=2.000000D+00  E=-7.530692D-01
              MO Center=  3.7D-02, -2.2D+00,  1.2D-01, r^2= 8.9D+00
   Bfn.  Coefficient  Atom+Function         Bfn.  Coefficient  Atom+Function  
  ----- ------------  ---------------      ----- ------------  ---------------
   539      0.221688  32 C  s               309      0.216241  19 C  s         
   591      0.201623  34 N  py              611      0.179948  35 H  s         
   493      0.164295  29 H  s               474      0.152681  28 N  pz        

 Vector   40  Occ=2.000000D+00  E=-7.291543D-01
              MO Center= -1.1D+00, -9.5D-02,  3.3D-01, r^2= 6.8D+00
   Bfn.  Coefficient  Atom+Function         Bfn.  Coefficient  Atom+Function  
  ----- ------------  ---------------      ----- ------------  ---------------
   225      0.341638  15 C  s               591     -0.254543  34 N  py        
   611     -0.222386  35 H  s               314      0.204223  19 C  px        
   277     -0.182623  17 N  px              538      0.182375  32 C  s         
   145      0.175523   9 C  py              298     -0.155230  18 H  s         
   275     -0.151501  17 N  s         

 Vector   41  Occ=2.000000D+00  E=-7.206593D-01
              MO Center= -5.3D-01,  3.6D-01,  3.2D-01, r^2= 9.3D+00
   Bfn.  Coefficient  Atom+Function         Bfn.  Coefficient  Atom+Function  
  ----- ------------  ---------------      ----- ------------  ---------------
   225      0.226936  15 C  s               145      0.197828   9 C  py        
   620     -0.186005  36 H  s                55      0.183622   5 C  s         
   228     -0.182693  15 C  py              141      0.181301   9 C  px        
   163      0.173546  10 H  s         

 Vector   42  Occ=2.000000D+00  E=-6.844257D-01
              MO Center= -8.5D-01,  4.0D-01,  2.6D-01, r^2= 8.0D+00
   Bfn.  Coefficient  Atom+Function         Bfn.  Coefficient  Atom+Function  
  ----- ------------  ---------------      ----- ------------  ---------------
   252      0.172237  16 O  px              620     -0.171071  36 H  s         
   141     -0.161833   9 C  px        

 Vector   43  Occ=2.000000D+00  E=-6.748927D-01
              MO Center=  2.1D-01,  3.1D+00, -2.8D-01, r^2= 8.9D+00
   Bfn.  Coefficient  Atom+Function         Bfn.  Coefficient  Atom+Function  
  ----- ------------  ---------------      ----- ------------  ---------------
    18      0.219139   2 C  py               83     -0.218823   6 O  py        
    15      0.217442   2 C  py               13      0.199653   2 C  s         
    58     -0.188893   5 C  py               56     -0.170287   5 C  s         
   139     -0.151313   9 C  s         

 Vector   44  Occ=2.000000D+00  E=-6.630551D-01
              MO Center= -3.8D-01,  8.9D-01, -3.2D-01, r^2= 1.1D+01
   Bfn.  Coefficient  Atom+Function         Bfn.  Coefficient  Atom+Function  
  ----- ------------  ---------------      ----- ------------  ---------------
    80      0.183279   6 O  s                83     -0.166955   6 O  py        
    59      0.156086   5 C  pz              108      0.152614   7 N  py        
   142     -0.150057   9 C  py              225     -0.150288  15 C  s         

 Vector   45  Occ=2.000000D+00  E=-6.491797D-01
              MO Center= -2.9D-01,  7.8D-01, -1.5D-01, r^2= 8.5D+00
   Bfn.  Coefficient  Atom+Function         Bfn.  Coefficient  Atom+Function  
  ----- ------------  ---------------      ----- ------------  ---------------
   139      0.169113   9 C  s               332     -0.168865  20 H  s         
   316      0.165567  19 C  pz              313      0.159275  19 C  pz        
   277     -0.156809  17 N  px        

 Vector   46  Occ=2.000000D+00  E=-6.236502D-01
              MO Center=  1.0D+00, -2.6D+00,  2.7D-03, r^2= 7.2D+00
   Bfn.  Coefficient  Atom+Function         Bfn.  Coefficient  Atom+Function  
  ----- ------------  ---------------      ----- ------------  ---------------
   459      0.243239  27 H  s               438      0.219562  26 C  px        
   440      0.160449  26 C  pz        

 Vector   47  Occ=2.000000D+00  E=-6.182616D-01
              MO Center= -1.0D-01,  1.6D+00, -8.5D-02, r^2= 1.3D+01
   Bfn.  Coefficient  Atom+Function         Bfn.  Coefficient  Atom+Function  
  ----- ------------  ---------------      ----- ------------  ---------------
   252     -0.233243  16 O  px              139      0.213020   9 C  s         
    14     -0.185864   2 C  px              225     -0.182544  15 C  s         
   277     -0.156975  17 N  px        

 Vector   48  Occ=2.000000D+00  E=-6.124205D-01
              MO Center=  6.6D-01,  7.1D-01,  1.9D-01, r^2= 1.7D+01
   Bfn.  Coefficient  Atom+Function         Bfn.  Coefficient  Atom+Function  
  ----- ------------  ---------------      ----- ------------  ---------------
   139      0.275943   9 C  s               225     -0.173841  15 C  s         
    14     -0.159005   2 C  px               44     -0.158891   4 H  s         

 Vector   49  Occ=2.000000D+00  E=-6.078036D-01
              MO Center=  5.9D-01, -1.0D+00,  3.4D-01, r^2= 1.3D+01
   Bfn.  Coefficient  Atom+Function         Bfn.  Coefficient  Atom+Function  
  ----- ------------  ---------------      ----- ------------  ---------------
   472      0.206618  28 N  px              252      0.194904  16 O  px        
   139      0.159442   9 C  s               440     -0.160207  26 C  pz        

 Vector   50  Occ=2.000000D+00  E=-6.052536D-01
              MO Center=  6.5D-01, -3.2D+00, -9.3D-02, r^2= 6.2D+00
   Bfn.  Coefficient  Atom+Function         Bfn.  Coefficient  Atom+Function  
  ----- ------------  ---------------      ----- ------------  ---------------
   527      0.315637  31 H  s               528      0.272681  31 H  s         
   507     -0.246285  30 C  py              506     -0.232733  30 C  px        
   437     -0.221477  26 C  s               439     -0.175316  26 C  py        
   389      0.168836  24 C  py              473      0.168528  28 N  py        
   412      0.153645  25 N  s         

 Vector   51  Occ=2.000000D+00  E=-5.926229D-01
              MO Center= -1.2D+00, -2.1D+00, -4.6D-02, r^2= 7.6D+00
   Bfn.  Coefficient  Atom+Function         Bfn.  Coefficient  Atom+Function  
  ----- ------------  ---------------      ----- ------------  ---------------
   566      0.359084  33 O  py              541     -0.257367  32 C  py        
   563     -0.206104  33 O  s               538      0.186807  32 C  s         
   569      0.186452  33 O  py              591      0.158152  34 N  py        
   474      0.152396  28 N  pz        

 Vector   52  Occ=2.000000D+00  E=-5.838565D-01
              MO Center= -1.7D-01,  1.9D+00,  2.1D-01, r^2= 8.8D+00
   Bfn.  Coefficient  Atom+Function         Bfn.  Coefficient  Atom+Function  
  ----- ------------  ---------------      ----- ------------  ---------------
   227      0.174425  15 C  px               58      0.164713   5 C  py        
   253      0.159827  16 O  py               84     -0.155593   6 O  pz        
   176      0.150065  11 C  py        

 Vector   53  Occ=2.000000D+00  E=-5.816097D-01
              MO Center=  2.1D-01,  2.1D+00,  5.9D-01, r^2= 1.0D+01
   Bfn.  Coefficient  Atom+Function         Bfn.  Coefficient  Atom+Function  
  ----- ------------  ---------------      ----- ------------  ---------------
   176      0.248790  11 C  py              196     -0.245522  12 H  s         
   197     -0.183692  12 H  s               146      0.174715   9 C  pz        
     1     -0.159266   1 H  s         

 Vector   54  Occ=2.000000D+00  E=-5.683129D-01
              MO Center=  4.0D-01,  3.4D+00, -4.5D-01, r^2= 9.2D+00
   Bfn.  Coefficient  Atom+Function         Bfn.  Coefficient  Atom+Function  
  ----- ------------  ---------------      ----- ------------  ---------------
    84      0.287184   6 O  pz                2     -0.250595   1 H  s         
    16      0.214326   2 C  pz               13      0.183602   2 C  s         
     1     -0.181631   1 H  s                18      0.174028   2 C  py        
    58     -0.165579   5 C  py               87      0.162109   6 O  pz        
    35      0.150356   3 H  s         

 Vector   55  Occ=2.000000D+00  E=-5.601922D-01
              MO Center= -7.1D-01, -5.2D-01, -3.8D-01, r^2= 1.2D+01
   Bfn.  Coefficient  Atom+Function         Bfn.  Coefficient  Atom+Function  
  ----- ------------  ---------------      ----- ------------  ---------------
   346      0.175300  21 C  py              590      0.170381  34 N  px        
   542      0.167503  32 C  pz              567      0.163654  33 O  pz        
   313     -0.150763  19 C  pz              345     -0.150243  21 C  px        

 Vector   56  Occ=2.000000D+00  E=-5.499263D-01
              MO Center=  1.4D-01,  8.6D-01,  7.7D-01, r^2= 9.3D+00
   Bfn.  Coefficient  Atom+Function         Bfn.  Coefficient  Atom+Function  
  ----- ------------  ---------------      ----- ------------  ---------------
   175      0.264239  11 C  px              205      0.237630  13 H  s         
   206      0.217460  13 H  s               215     -0.193835  14 H  s         
   309      0.190704  19 C  s               347     -0.189959  21 C  pz        
   214     -0.188172  14 H  s               163     -0.157318  10 H  s         

 Vector   57  Occ=2.000000D+00  E=-5.476760D-01
              MO Center= -9.7D-02,  6.2D-01, -3.4D-02, r^2= 1.4D+01
   Bfn.  Coefficient  Atom+Function         Bfn.  Coefficient  Atom+Function  
  ----- ------------  ---------------      ----- ------------  ---------------
   197      0.214815  12 H  s               347     -0.191455  21 C  pz        
    16      0.186573   2 C  pz                1     -0.179607   1 H  s         
   176     -0.167590  11 C  py              276     -0.165354  17 N  s         
   366      0.158246  22 H  s               206     -0.150231  13 H  s         

 Vector   58  Occ=2.000000D+00  E=-5.389577D-01
              MO Center=  5.8D-02,  1.3D+00,  8.1D-02, r^2= 1.2D+01
   Bfn.  Coefficient  Atom+Function         Bfn.  Coefficient  Atom+Function  
  ----- ------------  ---------------      ----- ------------  ---------------
   197      0.215184  12 H  s               347      0.183568  21 C  pz        
   108     -0.178876   7 N  py               16      0.172111   2 C  pz        
   214     -0.166136  14 H  s                 1     -0.155376   1 H  s         
    76      0.152089   5 C  dyz       

 Vector   59  Occ=2.000000D+00  E=-5.280747D-01
              MO Center=  1.8D-02, -6.2D-01, -8.9D-01, r^2= 1.0D+01
   Bfn.  Coefficient  Atom+Function         Bfn.  Coefficient  Atom+Function  
  ----- ------------  ---------------      ----- ------------  ---------------
   367      0.294423  22 H  s               366      0.249237  22 H  s         
   375     -0.234352  23 H  s               346     -0.221698  21 C  py        
   345     -0.220444  21 C  px              225     -0.156292  15 C  s         
   163     -0.151697  10 H  s               376     -0.150665  23 H  s         

 Vector   60  Occ=2.000000D+00  E=-5.199607D-01
              MO Center=  4.0D-02,  1.1D+00,  4.2D-01, r^2= 8.8D+00
   Bfn.  Coefficient  Atom+Function         Bfn.  Coefficient  Atom+Function  
  ----- ------------  ---------------      ----- ------------  ---------------
   143      0.278308   9 C  pz              177     -0.262557  11 C  pz        
   180     -0.193629  11 C  pz              254     -0.151965  16 O  pz        

 Vector   61  Occ=2.000000D+00  E=-5.135184D-01
              MO Center= -4.4D-01, -2.5D-01, -6.2D-01, r^2= 1.1D+01
   Bfn.  Coefficient  Atom+Function         Bfn.  Coefficient  Atom+Function  
  ----- ------------  ---------------      ----- ------------  ---------------
   348      0.238739  21 C  px              349     -0.224822  21 C  py        
   332      0.215739  20 H  s               343     -0.196855  21 C  s         
   346     -0.186166  21 C  py              312      0.169259  19 C  py        
   309      0.165815  19 C  s               567      0.156114  33 O  pz        

 Vector   62  Occ=2.000000D+00  E=-5.084658D-01
              MO Center=  5.5D-02,  2.2D+00, -1.0D-01, r^2= 8.8D+00
   Bfn.  Coefficient  Atom+Function         Bfn.  Coefficient  Atom+Function  
  ----- ------------  ---------------      ----- ------------  ---------------
    82      0.219702   6 O  px              253      0.186745  16 O  py        
   163     -0.175890  10 H  s               162     -0.166078  10 H  s         
   180     -0.162602  11 C  pz               85      0.159258   6 O  px        
   107      0.154968   7 N  px              173      0.150788  11 C  s         

 Vector   63  Occ=2.000000D+00  E=-4.440030D-01
              MO Center=  1.3D+00, -1.6D+00, -2.1D-01, r^2= 5.4D+00
   Bfn.  Coefficient  Atom+Function         Bfn.  Coefficient  Atom+Function  
  ----- ------------  ---------------      ----- ------------  ---------------
   414      0.405567  25 N  py              417      0.295635  25 N  py        
   411      0.293254  25 N  s               412      0.214223  25 N  s         
   389     -0.178918  24 C  py              376      0.173991  23 H  s         
   413      0.168950  25 N  px              392     -0.161040  24 C  py        
   507      0.160019  30 C  py        

 Vector   64  Occ=2.000000D+00  E=-4.388200D-01
              MO Center= -1.0D+00, -2.6D-01, -8.4D-02, r^2= 7.8D+00
   Bfn.  Coefficient  Atom+Function         Bfn.  Coefficient  Atom+Function  
  ----- ------------  ---------------      ----- ------------  ---------------
   254      0.316351  16 O  pz              567     -0.261566  33 O  pz        
   257      0.249397  16 O  pz              570     -0.202439  33 O  pz        
   565      0.195626  33 O  px              253      0.161968  16 O  py        
   279     -0.155806  17 N  pz              568      0.156171  33 O  px        
   234     -0.154127  15 C  py              282     -0.150900  17 N  pz        

 Vector   65  Occ=2.000000D+00  E=-4.310839D-01
              MO Center= -1.1D+00,  4.1D-01,  3.9D-02, r^2= 7.1D+00
   Bfn.  Coefficient  Atom+Function         Bfn.  Coefficient  Atom+Function  
  ----- ------------  ---------------      ----- ------------  ---------------
   253      0.380487  16 O  py              256      0.313389  16 O  py        
   565     -0.229459  33 O  px              279      0.185239  17 N  pz        
   568     -0.181583  33 O  px              567      0.173622  33 O  pz        

 Vector   66  Occ=2.000000D+00  E=-4.167507D-01
              MO Center=  8.8D-01,  3.7D+00, -1.1D+00, r^2= 2.2D+00
   Bfn.  Coefficient  Atom+Function         Bfn.  Coefficient  Atom+Function  
  ----- ------------  ---------------      ----- ------------  ---------------
    83      0.463374   6 O  py               13      0.447715   2 C  s         
    86      0.362788   6 O  py               56     -0.302791   5 C  s         
    84     -0.281182   6 O  pz               64     -0.244439   5 C  py        
    18      0.242259   2 C  py               87     -0.231831   6 O  pz        
    15      0.209380   2 C  py              105      0.204983   7 N  s         

 Vector   67  Occ=2.000000D+00  E=-4.046626D-01
              MO Center=  3.9D-01, -2.1D+00,  2.0D-02, r^2= 7.9D+00
   Bfn.  Coefficient  Atom+Function         Bfn.  Coefficient  Atom+Function  
  ----- ------------  ---------------      ----- ------------  ---------------
   415      0.241772  25 N  pz              567     -0.232941  33 O  pz        
   474     -0.215996  28 N  pz              418      0.212398  25 N  pz        
   477     -0.187395  28 N  pz              570     -0.184391  33 O  pz        
   413     -0.169194  25 N  px        

 Vector   68  Occ=2.000000D+00  E=-4.005343D-01
              MO Center= -8.5D-01, -1.4D+00,  2.1D-01, r^2= 9.8D+00
   Bfn.  Coefficient  Atom+Function         Bfn.  Coefficient  Atom+Function  
  ----- ------------  ---------------      ----- ------------  ---------------
   590      0.263217  34 N  px              593      0.227786  34 N  px        
   567     -0.218304  33 O  pz              565     -0.187192  33 O  px        
   592      0.181043  34 N  pz              570     -0.167437  33 O  pz        
   415     -0.153978  25 N  pz              568     -0.153721  33 O  px        
   595      0.154176  34 N  pz              107     -0.152306   7 N  px        

 Vector   69  Occ=2.000000D+00  E=-3.952897D-01
              MO Center= -1.8D-01,  2.0D+00,  7.3D-02, r^2= 8.1D+00
   Bfn.  Coefficient  Atom+Function         Bfn.  Coefficient  Atom+Function  
  ----- ------------  ---------------      ----- ------------  ---------------
   107      0.327413   7 N  px              110      0.293437   7 N  px        
    82     -0.250690   6 O  px               85     -0.195609   6 O  px        

 Vector   70  Occ=2.000000D+00  E=-3.855183D-01
              MO Center= -9.5D-01, -7.7D-01, -1.3D-01, r^2= 6.0D+00
   Bfn.  Coefficient  Atom+Function         Bfn.  Coefficient  Atom+Function  
  ----- ------------  ---------------      ----- ------------  ---------------
   279      0.300907  17 N  pz              282      0.279769  17 N  pz        
   565      0.261785  33 O  px              254     -0.217801  16 O  pz        
   568      0.204615  33 O  px              257     -0.176317  16 O  pz        
   278     -0.159590  17 N  py        

 Vector   71  Occ=2.000000D+00  E=-3.209221D-01
              MO Center=  1.1D+00, -3.3D+00, -2.4D-01, r^2= 2.9D+00
   Bfn.  Coefficient  Atom+Function         Bfn.  Coefficient  Atom+Function  
  ----- ------------  ---------------      ----- ------------  ---------------
   508      0.278657  30 C  pz              390      0.242866  24 C  pz        
   440     -0.227016  26 C  pz              511      0.208377  30 C  pz        
   506     -0.193669  30 C  px              393      0.192102  24 C  pz        
   388     -0.165067  24 C  px              438      0.161013  26 C  px        
   443     -0.153904  26 C  pz        

 Vector   72  Occ=0.000000D+00  E= 2.298280D-02
              MO Center=  2.7D+00, -3.7D+00,  2.5D+00, r^2= 2.4D+01
   Bfn.  Coefficient  Atom+Function         Bfn.  Coefficient  Atom+Function  
  ----- ------------  ---------------      ----- ------------  ---------------
   300      3.389228  18 H  s               461     -2.532328  27 H  s         
   539      2.330576  32 C  s               396      2.156279  24 C  pz        
   310      1.857056  19 C  s                56      1.827468   5 C  s         
   495     -1.825861  29 H  s               395     -1.722598  24 C  py        
   471     -1.722491  28 N  s               149      1.616177   9 C  pz        

 Vector   73  Occ=0.000000D+00  E= 3.029740D-02
              MO Center=  9.1D-01,  2.5D+00,  2.7D+00, r^2= 3.7D+01
   Bfn.  Coefficient  Atom+Function         Bfn.  Coefficient  Atom+Function  
  ----- ------------  ---------------      ----- ------------  ---------------
   106      2.543691   7 N  s               173     -1.959248  11 C  s         
   207      1.944829  13 H  s               148     -1.827453   9 C  py        
   234     -1.766194  15 C  py              174     -1.659881  11 C  s         
    46      1.534603   4 H  s               216      1.492583  14 H  s         
   206      1.434443  13 H  s               539     -1.436142  32 C  s         

 Vector   74  Occ=0.000000D+00  E= 3.961171D-02
              MO Center=  1.1D+00, -1.7D+00,  1.8D+00, r^2= 4.1D+01
   Bfn.  Coefficient  Atom+Function         Bfn.  Coefficient  Atom+Function  
  ----- ------------  ---------------      ----- ------------  ---------------
   461      4.080346  27 H  s               444     -2.768818  26 C  px        
   234      2.381773  15 C  py              529     -2.209522  31 H  s         
   207      1.840499  13 H  s                56     -1.698086   5 C  s         
   495     -1.683561  29 H  s               396     -1.652269  24 C  pz        
   446     -1.575773  26 C  pz              216     -1.541321  14 H  s         

 Vector   75  Occ=0.000000D+00  E= 4.196173D-02
              MO Center= -7.8D-01,  2.2D+00,  2.1D+00, r^2= 4.1D+01
   Bfn.  Coefficient  Atom+Function         Bfn.  Coefficient  Atom+Function  
  ----- ------------  ---------------      ----- ------------  ---------------
   149      3.366029   9 C  pz               64     -2.620420   5 C  py        
   589     -2.305176  34 N  s               148     -2.124381   9 C  py        
   622     -2.064819  36 H  s                12     -1.927154   2 C  s         
    46      1.897898   4 H  s               198     -1.819222  12 H  s         
   216     -1.828232  14 H  s               548      1.730389  32 C  pz        

 Vector   76  Occ=0.000000D+00  E= 4.897484D-02
              MO Center=  1.2D-01,  1.4D+00, -1.3D-01, r^2= 4.8D+01
   Bfn.  Coefficient  Atom+Function         Bfn.  Coefficient  Atom+Function  
  ----- ------------  ---------------      ----- ------------  ---------------
   300      3.987993  18 H  s                56     -2.846391   5 C  s         
   164     -2.804688  10 H  s               207      2.789042  13 H  s         
   461     -2.742368  27 H  s               106      2.060025   7 N  s         
    37     -1.749160   3 H  s                 3     -1.690625   1 H  s         
   377     -1.644261  23 H  s                13      1.628412   2 C  s         

 Vector   77  Occ=0.000000D+00  E= 5.014821D-02
              MO Center=  1.5D-01, -1.8D+00, -1.5D+00, r^2= 4.0D+01
   Bfn.  Coefficient  Atom+Function         Bfn.  Coefficient  Atom+Function  
  ----- ------------  ---------------      ----- ------------  ---------------
   300      4.310167  18 H  s               529     -2.876999  31 H  s         
   377     -2.558160  23 H  s               512     -2.514898  30 C  px        
   164     -2.401142  10 H  s               234     -2.254595  15 C  py        
   353     -2.156867  21 C  pz              368     -2.036035  22 H  s         
    56      1.963255   5 C  s               207     -1.852878  13 H  s         

 Vector   78  Occ=0.000000D+00  E= 5.588051D-02
              MO Center= -4.3D-01,  2.5D+00,  6.5D-01, r^2= 4.3D+01
   Bfn.  Coefficient  Atom+Function         Bfn.  Coefficient  Atom+Function  
  ----- ------------  ---------------      ----- ------------  ---------------
   276      2.904522  17 N  s               234      2.777325  15 C  py        
    56     -2.762983   5 C  s               130     -2.631927   8 H  s         
    13      2.607400   2 C  s               149      2.502381   9 C  pz        
   589      2.380942  34 N  s               216     -2.330475  14 H  s         
     3      2.298214   1 H  s               226     -2.247383  15 C  s         

 Vector   79  Occ=0.000000D+00  E= 6.130334D-02
              MO Center= -7.8D-02,  1.9D+00,  1.5D+00, r^2= 4.5D+01
   Bfn.  Coefficient  Atom+Function         Bfn.  Coefficient  Atom+Function  
  ----- ------------  ---------------      ----- ------------  ---------------
   198      3.950502  12 H  s                56      3.136900   5 C  s         
   589     -2.972092  34 N  s                 3      2.935612   1 H  s         
   174     -2.841757  11 C  s               130     -2.298498   8 H  s         
    46     -2.260954   4 H  s               461     -2.189623  27 H  s         
   539      2.083364  32 C  s                64     -1.961271   5 C  py        

 Vector   80  Occ=0.000000D+00  E= 6.720245D-02
              MO Center= -7.6D-01, -2.3D+00, -1.3D+00, r^2= 4.1D+01
   Bfn.  Coefficient  Atom+Function         Bfn.  Coefficient  Atom+Function  
  ----- ------------  ---------------      ----- ------------  ---------------
   529      5.433546  31 H  s               334     -4.920821  20 H  s         
   512      3.733872  30 C  px              319     -3.110875  19 C  pz        
   437     -2.961668  26 C  s                56      2.768393   5 C  s         
   495     -2.628870  29 H  s               539     -2.638056  32 C  s         
   394     -2.577085  24 C  px              387      2.220570  24 C  s         

 Vector   81  Occ=0.000000D+00  E= 6.871935D-02
              MO Center=  4.0D-01,  2.7D+00,  4.9D-01, r^2= 4.1D+01
   Bfn.  Coefficient  Atom+Function         Bfn.  Coefficient  Atom+Function  
  ----- ------------  ---------------      ----- ------------  ---------------
   164      3.892651  10 H  s                46     -3.405927   4 H  s         
    37      3.266631   3 H  s               207      3.060264  13 H  s         
   216     -2.882958  14 H  s               368     -2.336035  22 H  s         
   613      2.198293  35 H  s               198     -2.069414  12 H  s         
   539     -2.077030  32 C  s               334      1.866997  20 H  s         

 Vector   82  Occ=0.000000D+00  E= 7.002234D-02
              MO Center=  4.2D-01,  8.9D-01, -3.8D-01, r^2= 4.2D+01
   Bfn.  Coefficient  Atom+Function         Bfn.  Coefficient  Atom+Function  
  ----- ------------  ---------------      ----- ------------  ---------------
   164      4.871682  10 H  s               234     -3.884866  15 C  py        
   198     -3.836487  12 H  s               377      3.557516  23 H  s         
   216      3.373980  14 H  s                 3      3.188373   1 H  s         
   368     -3.036185  22 H  s               352     -3.012118  21 C  py        
    56      2.802391   5 C  s               114     -2.694005   7 N  py        

 Vector   83  Occ=0.000000D+00  E= 7.547634D-02
              MO Center=  9.8D-01,  7.3D-01, -5.0D-01, r^2= 4.4D+01
   Bfn.  Coefficient  Atom+Function         Bfn.  Coefficient  Atom+Function  
  ----- ------------  ---------------      ----- ------------  ---------------
    56      6.119275   5 C  s               198     -5.038562  12 H  s         
   377     -5.031325  23 H  s               300      4.372320  18 H  s         
   164     -3.740071  10 H  s                 3      3.499235   1 H  s         
   207      3.065095  13 H  s               115      2.655195   7 N  pz        
    65      2.531502   5 C  pz              334      2.445192  20 H  s         

 Vector   84  Occ=0.000000D+00  E= 8.240104D-02
              MO Center=  3.3D-01,  9.9D-01,  8.3D-01, r^2= 4.2D+01
   Bfn.  Coefficient  Atom+Function         Bfn.  Coefficient  Atom+Function  
  ----- ------------  ---------------      ----- ------------  ---------------
   164      7.221319  10 H  s               207     -5.069386  13 H  s         
    56     -4.811250   5 C  s               300     -4.354286  18 H  s         
   147     -4.014355   9 C  px              377     -2.945445  23 H  s         
   216      2.871073  14 H  s               148      2.655244   9 C  py        
   334      2.408875  20 H  s               622     -2.393470  36 H  s         

 Vector   85  Occ=0.000000D+00  E= 8.614766D-02
              MO Center= -7.2D-01,  1.0D+00,  4.3D-01, r^2= 4.4D+01
   Bfn.  Coefficient  Atom+Function         Bfn.  Coefficient  Atom+Function  
  ----- ------------  ---------------      ----- ------------  ---------------
   613      4.987192  35 H  s               300     -4.855053  18 H  s         
   368      4.607301  22 H  s               130     -4.466973   8 H  s         
   164      3.655059  10 H  s               233      3.516982  15 C  px        
   539      3.527549  32 C  s               351      3.350025  21 C  px        
    13     -3.160618   2 C  s               529     -3.103613  31 H  s         

 Vector   86  Occ=0.000000D+00  E= 9.034462D-02
              MO Center= -1.9D-01, -6.2D-01, -1.4D+00, r^2= 4.5D+01
   Bfn.  Coefficient  Atom+Function         Bfn.  Coefficient  Atom+Function  
  ----- ------------  ---------------      ----- ------------  ---------------
   368      7.424923  22 H  s               300     -5.477117  18 H  s         
   334     -5.400769  20 H  s               164      4.878990  10 H  s         
   529     -3.309714  31 H  s                46     -3.247403   4 H  s         
   130      2.883369   8 H  s               317     -2.799496  19 C  px        
   352      2.481240  21 C  py              351      2.401140  21 C  px        

 Vector   87  Occ=0.000000D+00  E= 9.759659D-02
              MO Center= -9.8D-01,  1.3D+00,  1.1D+00, r^2= 3.9D+01
   Bfn.  Coefficient  Atom+Function         Bfn.  Coefficient  Atom+Function  
  ----- ------------  ---------------      ----- ------------  ---------------
    56    -11.855663   5 C  s                13     11.759671   2 C  s         
   613      7.238761  35 H  s               216     -6.848507  14 H  s         
   234      6.052006  15 C  py               64     -5.132157   5 C  py        
   276      5.115014  17 N  s               226     -4.558594  15 C  s         
   164     -4.339804  10 H  s               539      3.938731  32 C  s         

 Vector   88  Occ=0.000000D+00  E= 1.043694D-01
              MO Center=  1.1D+00, -1.7D+00,  1.2D-01, r^2= 3.6D+01
   Bfn.  Coefficient  Atom+Function         Bfn.  Coefficient  Atom+Function  
  ----- ------------  ---------------      ----- ------------  ---------------
   539      7.515808  32 C  s               387     -6.825785  24 C  s         
   300      5.856205  18 H  s               318     -5.468540  19 C  py        
   377     -5.138584  23 H  s               351      5.095354  21 C  px        
   613     -4.661376  35 H  s               233     -4.269253  15 C  px        
   310      3.859100  19 C  s               395     -3.869026  24 C  py        

 Vector   89  Occ=0.000000D+00  E= 1.085808D-01
              MO Center=  3.6D-01,  2.6D+00, -6.5D-02, r^2= 4.0D+01
   Bfn.  Coefficient  Atom+Function         Bfn.  Coefficient  Atom+Function  
  ----- ------------  ---------------      ----- ------------  ---------------
    56     27.663512   5 C  s                13    -20.665714   2 C  s         
    64      8.274472   5 C  py               21      6.796256   2 C  py        
   226      5.754292  15 C  s               539     -5.213738  32 C  s         
   106     -5.018861   7 N  s               613      4.739623  35 H  s         
    12     -3.807968   2 C  s                63     -3.670507   5 C  px        

 Vector   90  Occ=0.000000D+00  E= 1.183638D-01
              MO Center= -6.9D-02, -1.9D+00,  1.6D+00, r^2= 2.9D+01
   Bfn.  Coefficient  Atom+Function         Bfn.  Coefficient  Atom+Function  
  ----- ------------  ---------------      ----- ------------  ---------------
   539     10.551697  32 C  s               300     -9.543642  18 H  s         
   317      6.613623  19 C  px              437     -5.986408  26 C  s         
   174     -5.881859  11 C  s               198      5.623874  12 H  s         
   471      5.377180  28 N  s               276     -5.294165  17 N  s         
   548     -5.074649  32 C  pz              318      4.848769  19 C  py        

 Vector   91  Occ=0.000000D+00  E= 1.206107D-01
              MO Center=  4.2D-01, -2.0D+00,  1.4D-01, r^2= 3.5D+01
   Bfn.  Coefficient  Atom+Function         Bfn.  Coefficient  Atom+Function  
  ----- ------------  ---------------      ----- ------------  ---------------
    56     10.503988   5 C  s               396      7.527493  24 C  pz        
    13     -6.848988   2 C  s               300      5.868348  18 H  s         
   395      5.679242  24 C  py              394      5.578551  24 C  px        
[...]
   317      9.098709  19 C  px              226      8.224867  15 C  s         
   505     -7.710566  30 C  s               318     -7.191331  19 C  py        
   310      6.840727  19 C  s               233     -6.783336  15 C  px        
   589     -6.735824  34 N  s               395     -6.064856  24 C  py        

 Vector  179  Occ=0.000000D+00  E= 4.393026D-01
              MO Center=  1.7D-02,  4.6D-01,  5.9D-02, r^2= 2.2D+01
   Bfn.  Coefficient  Atom+Function         Bfn.  Coefficient  Atom+Function  
  ----- ------------  ---------------      ----- ------------  ---------------
   539     10.588689  32 C  s                56     -9.625864   5 C  s         
   589     -9.404412  34 N  s               148      8.854278   9 C  py        
   471      8.871433  28 N  s               233      8.388365  15 C  px        
   437     -7.236961  26 C  s               310      5.667885  19 C  s         
   394      5.601333  24 C  px              319      4.811549  19 C  pz        

 Vector  180  Occ=0.000000D+00  E= 4.431786D-01
              MO Center= -3.9D-02,  5.3D-01, -1.7D-01, r^2= 2.4D+01
   Bfn.  Coefficient  Atom+Function         Bfn.  Coefficient  Atom+Function  
  ----- ------------  ---------------      ----- ------------  ---------------
   539     19.815131  32 C  s               318     11.126324  19 C  py        
   589    -11.177064  34 N  s               233      9.385727  15 C  px        
   344      8.864478  21 C  s               276     -8.224247  17 N  s         
   234      7.996242  15 C  py              437      7.713752  26 C  s         
   284      7.490259  17 N  py              300     -7.441158  18 H  s         

 Vector  181  Occ=0.000000D+00  E= 4.444332D-01
              MO Center=  2.0D-01,  3.3D+00, -1.2D-01, r^2= 2.3D+01
   Bfn.  Coefficient  Atom+Function         Bfn.  Coefficient  Atom+Function  
  ----- ------------  ---------------      ----- ------------  ---------------
   174      8.937276  11 C  s                13      8.725784   2 C  s         
   147     -7.904001   9 C  px              539     -7.341464  32 C  s         
   173      6.575269  11 C  s                36     -6.525790   3 H  s         
   197     -6.038470  12 H  s               317     -5.863315  19 C  px        
   233      5.659437  15 C  px              215     -5.488698  14 H  s         

 Vector  182  Occ=0.000000D+00  E= 4.479013D-01
              MO Center= -4.0D-01, -5.7D-01, -9.9D-02, r^2= 1.9D+01
   Bfn.  Coefficient  Atom+Function         Bfn.  Coefficient  Atom+Function  
  ----- ------------  ---------------      ----- ------------  ---------------
   173     10.452359  11 C  s               437      9.849918  26 C  s         
   234     -9.055262  15 C  py              548     -7.222185  32 C  pz        
   226      7.173297  15 C  s               215     -6.453971  14 H  s         
   376     -6.221827  23 H  s               352      6.132126  21 C  py        
   197     -5.850495  12 H  s               319      5.779363  19 C  pz        

 Vector  183  Occ=0.000000D+00  E= 4.533548D-01
              MO Center=  6.8D-01,  3.0D-02,  2.8D-01, r^2= 2.3D+01
   Bfn.  Coefficient  Atom+Function         Bfn.  Coefficient  Atom+Function  
  ----- ------------  ---------------      ----- ------------  ---------------
    13     11.651630   2 C  s               437    -10.749342  26 C  s         
   319      9.577560  19 C  pz              276     -7.304658  17 N  s         
   387      6.685955  24 C  s               226     -6.616055  15 C  s         
   284     -6.481749  17 N  py              396     -6.181801  24 C  pz        
   174      5.559251  11 C  s               351     -5.222696  21 C  px        

 Vector  184  Occ=0.000000D+00  E= 4.579988D-01
              MO Center=  2.4D-01, -1.3D-01,  1.5D-01, r^2= 2.5D+01
   Bfn.  Coefficient  Atom+Function         Bfn.  Coefficient  Atom+Function  
  ----- ------------  ---------------      ----- ------------  ---------------
   589    -11.120630  34 N  s                56     11.045293   5 C  s         
   437     10.715504  26 C  s               174     -9.768459  11 C  s         
   344      9.242707  21 C  s               234      8.215775  15 C  py        
   376     -7.183550  23 H  s               396     -7.075332  24 C  pz        
    12     -6.680515   2 C  s               215      6.679936  14 H  s         

 Vector  185  Occ=0.000000D+00  E= 4.623970D-01
              MO Center=  4.2D-01,  1.9D+00, -9.5D-03, r^2= 2.4D+01
   Bfn.  Coefficient  Atom+Function         Bfn.  Coefficient  Atom+Function  
  ----- ------------  ---------------      ----- ------------  ---------------
    13     20.184711   2 C  s               589    -14.536191  34 N  s         
   276    -14.403145  17 N  s               234    -13.648667  15 C  py        
   437     13.473767  26 C  s                56    -11.619890   5 C  s         
   319     10.260568  19 C  pz              300    -10.090122  18 H  s         
    12      8.775072   2 C  s               147     -8.281801   9 C  px        

 Vector  186  Occ=0.000000D+00  E= 4.628986D-01
              MO Center=  4.0D-01, -3.2D-01, -1.5D-01, r^2= 2.3D+01
   Bfn.  Coefficient  Atom+Function         Bfn.  Coefficient  Atom+Function  
  ----- ------------  ---------------      ----- ------------  ---------------
   319    -14.540423  19 C  pz              226     13.630122  15 C  s         
   318    -12.326628  19 C  py              351     11.338790  21 C  px        
   539    -10.403492  32 C  s               396      9.920394  24 C  pz        
   173      9.208356  11 C  s               471     -7.750787  28 N  s         
   589      7.324858  34 N  s               437     -6.623275  26 C  s         

 Vector  187  Occ=0.000000D+00  E= 4.722733D-01
              MO Center=  2.4D-01,  5.4D-01,  4.0D-01, r^2= 2.2D+01
   Bfn.  Coefficient  Atom+Function         Bfn.  Coefficient  Atom+Function  
  ----- ------------  ---------------      ----- ------------  ---------------
   539     23.909185  32 C  s               437    -19.080423  26 C  s         
   317     13.770893  19 C  px              310     12.448230  19 C  s         
   233    -11.437435  15 C  px              276    -11.068294  17 N  s         
   174     -9.758142  11 C  s               319     -8.772053  19 C  pz        
   226      8.317411  15 C  s               283      8.009365  17 N  px        

 Vector  188  Occ=0.000000D+00  E= 4.765485D-01
              MO Center= -3.9D-02, -3.7D-02,  6.5D-02, r^2= 2.0D+01
   Bfn.  Coefficient  Atom+Function         Bfn.  Coefficient  Atom+Function  
  ----- ------------  ---------------      ----- ------------  ---------------
   319     10.535235  19 C  pz              539      8.055876  32 C  s         
   412      7.861709  25 N  s               284      7.799947  17 N  py        
    56      5.896332   5 C  s               276     -5.800404  17 N  s         
   548     -5.294741  32 C  pz              546      4.928646  32 C  px        
   564     -4.892194  33 O  s                81     -4.572612   6 O  s         

 Vector  189  Occ=0.000000D+00  E= 4.825260D-01
              MO Center=  2.8D-01,  8.1D-01,  8.5D-01, r^2= 2.2D+01
   Bfn.  Coefficient  Atom+Function         Bfn.  Coefficient  Atom+Function  
  ----- ------------  ---------------      ----- ------------  ---------------
    13     19.898296   2 C  s                56    -16.142544   5 C  s         
   300    -10.647342  18 H  s               539     10.215497  32 C  s         
   226     -9.650934  15 C  s                64     -8.430774   5 C  py        
   148     -8.028048   9 C  py              106      6.328097   7 N  s         
   344      6.347391  21 C  s               215     -6.117064  14 H  s         

 Vector  190  Occ=0.000000D+00  E= 4.860391D-01
              MO Center=  5.6D-01, -1.6D+00, -2.4D-01, r^2= 2.0D+01
   Bfn.  Coefficient  Atom+Function         Bfn.  Coefficient  Atom+Function  
  ----- ------------  ---------------      ----- ------------  ---------------
   387    -19.181923  24 C  s                56     17.615697   5 C  s         
   284    -14.886132  17 N  py              344    -12.586254  21 C  s         
    13    -12.124242   2 C  s               319    -10.701021  19 C  pz        
   310     10.278899  19 C  s               505     -9.749134  30 C  s         
   318     -9.372927  19 C  py              226      8.611124  15 C  s         

 Vector  191  Occ=0.000000D+00  E= 4.883713D-01
              MO Center=  1.9D-01,  8.1D-01,  4.7D-01, r^2= 2.3D+01
   Bfn.  Coefficient  Atom+Function         Bfn.  Coefficient  Atom+Function  
  ----- ------------  ---------------      ----- ------------  ---------------
    56     29.760643   5 C  s               174    -25.433146  11 C  s         
    13    -19.546851   2 C  s               173    -14.050117  11 C  s         
   539     11.168889  32 C  s               149     10.539565   9 C  pz        
   206     10.120121  13 H  s               276      9.227337  17 N  s         
   147      8.579354   9 C  px              226     -8.540151  15 C  s         

 Vector  192  Occ=0.000000D+00  E= 4.924572D-01
              MO Center= -7.6D-01, -8.1D-01,  4.1D-01, r^2= 2.0D+01
   Bfn.  Coefficient  Atom+Function         Bfn.  Coefficient  Atom+Function  
  ----- ------------  ---------------      ----- ------------  ---------------
   174     15.413177  11 C  s               396    -10.747413  24 C  pz        
   319      8.824071  19 C  pz              589     -8.552179  34 N  s         
   437      8.509110  26 C  s               367     -8.224495  22 H  s         
   344      7.982422  21 C  s               387      7.707530  24 C  s         
   351     -7.611108  21 C  px              284     -7.198236  17 N  py        

 Vector  193  Occ=0.000000D+00  E= 4.960377D-01
              MO Center=  1.6D-01,  2.9D-01,  7.3D-01, r^2= 1.9D+01
   Bfn.  Coefficient  Atom+Function         Bfn.  Coefficient  Atom+Function  
  ----- ------------  ---------------      ----- ------------  ---------------
    56     11.621789   5 C  s               283      8.135405  17 N  px        
    13     -7.072635   2 C  s               174     -6.084190  11 C  s         
   284      6.051167  17 N  py              276     -5.956469  17 N  s         
   251      5.718683  16 O  s               148      5.499333   9 C  py        
   318      5.432987  19 C  py              234     -5.364589  15 C  py        

 Vector  194  Occ=0.000000D+00  E= 4.987258D-01
              MO Center= -8.2D-02,  3.0D+00,  1.8D-01, r^2= 2.0D+01
   Bfn.  Coefficient  Atom+Function         Bfn.  Coefficient  Atom+Function  
  ----- ------------  ---------------      ----- ------------  ---------------
    56    -48.453241   5 C  s                13     44.331163   2 C  s         
    64    -18.785737   5 C  py               12     16.805241   2 C  s         
   233    -14.734643  15 C  px              106     14.587748   7 N  s         
    45    -13.440681   4 H  s                36    -12.550256   3 H  s         
   276     12.029394  17 N  s               437    -11.114034  26 C  s         

 Vector  195  Occ=0.000000D+00  E= 5.005631D-01
              MO Center=  1.8D-01,  1.1D+00, -1.1D-02, r^2= 2.3D+01
   Bfn.  Coefficient  Atom+Function         Bfn.  Coefficient  Atom+Function  
  ----- ------------  ---------------      ----- ------------  ---------------
   539     14.003575  32 C  s               437    -11.787051  26 C  s         
    13     11.625147   2 C  s                56     -7.860379   5 C  s         
   317      7.326131  19 C  px              319     -6.857592  19 C  pz        
    64     -6.791153   5 C  py               12      6.118408   2 C  s         
   174     -6.139963  11 C  s               412      6.024985  25 N  s         


 center of mass
 --------------
 x =  -0.01504615 y =  -0.06606632 z =  -0.04007509

 moments of inertia (a.u.)
 ------------------
        8853.300499192290          -0.000000000002           0.000000000000
          -0.000000000002        2895.409650163388           0.000000000002
           0.000000000000           0.000000000002        9940.966616107808

  Mulliken analysis of the total density
  --------------------------------------

    Atom       Charge   Shell Charges
 -----------   ------   -------------------------------------------------------
    1 H    1     0.95   0.76  0.21  0.01  0.03 -0.06
    2 C    6     6.63   2.01  0.66  0.35  0.32  2.06  1.06 -0.02  0.06  0.13
    3 H    1     0.81   0.76  0.08  0.01  0.03 -0.06
    4 H    1     0.79   0.76  0.06  0.01  0.03 -0.07
    5 C    6     4.96   2.01  0.68  0.09 -0.16  1.90  0.29 -0.09  0.24  0.01
    6 O    8     8.72   2.01  0.82  0.99  0.15  2.79  1.82  0.14  0.01 -0.02
    7 N    7     7.71   2.01  0.72  0.84 -0.03  2.46  1.45  0.17  0.05  0.05
    8 H    1     0.95   0.77  0.19 -0.02  0.05 -0.05
    9 C    6     6.55   2.01  0.66  0.25 -0.00  2.00  1.40 -0.08  0.14  0.19
   10 H    1     1.10   0.78  0.26  0.02  0.03  0.01
   11 C    6     5.79   2.01  0.66  0.31  0.15  2.04  0.52 -0.01  0.07  0.04
   12 H    1     0.93   0.77  0.19  0.01  0.03 -0.08
   13 H    1     0.90   0.77  0.20 -0.01  0.03 -0.09
   14 H    1     0.89   0.77  0.15  0.02  0.03 -0.08
   15 C    6     4.32   2.01  0.68 -0.13  0.05  1.89  0.12 -0.07  0.23 -0.46
   16 O    8     8.94   2.01  0.82  1.04  0.22  2.79  1.89  0.16  0.01  0.00
   17 N    7     7.48   2.01  0.72  0.81 -0.06  2.45  1.43  0.03  0.05  0.04
   18 H    1     0.89   0.74  0.22 -0.03  0.06 -0.10
   19 C    6     6.53   2.01  0.67  0.06  0.02  1.99  1.38  0.13  0.14  0.13
   20 H    1     0.98   0.78  0.17  0.00  0.03 -0.00
   21 C    6     5.68   2.01  0.66  0.16 -0.07  2.05  0.74  0.02  0.09  0.02
   22 H    1     1.03   0.77  0.27  0.01  0.03 -0.05
   23 H    1     0.83   0.78  0.11 -0.01  0.03 -0.07
   24 C    6     5.76   2.01  0.66  0.07 -0.14  1.99  0.63  0.20  0.14  0.19
   25 N    7     7.99   2.01  0.76  1.02  0.04  2.27  1.68  0.09  0.05  0.07
   26 C    6     4.95   2.01  0.66  0.01 -0.11  1.96  0.45  0.02  0.14 -0.19
   27 H    1     1.37   0.77  0.54  0.01  0.03  0.02
   28 N    7     7.70   2.01  0.73  0.98 -0.03  2.43  1.43 -0.02  0.06  0.12
   29 H    1     1.03   0.76  0.23 -0.00  0.05 -0.01
   30 C    6     4.97   2.01  0.66  0.04 -0.13  2.01  0.46  0.01  0.11 -0.20
   31 H    1     1.31   0.76  0.52  0.01  0.03 -0.02
   32 C    6     4.53   2.01  0.68  0.02  0.15  1.89 -0.14 -0.08  0.24 -0.22
   33 O    8     8.82   2.01  0.82  1.03  0.15  2.79  1.85  0.16  0.01 -0.00
   34 N    7     7.27   2.01  0.72  0.84 -0.15  2.47  1.25  0.09  0.04 -0.01
   35 H    1     0.92   0.73  0.19 -0.02  0.06 -0.05
   36 H    1     1.02   0.76  0.24  0.00  0.05 -0.03

       Multipole analysis of the density wrt the origin
       ------------------------------------------------

     L   x y z        total         open         nuclear
     -   - - -        -----         ----         -------
     0   0 0 0     -0.000000      0.000000    142.000000

     1   1 0 0      0.934740      0.000000     -0.000000
     1   0 1 0     -0.379816      0.000000      0.000000
     1   0 0 1      2.231221      0.000000     -0.000000

     2   2 0 0    -88.734171      0.000000   1070.232769
     2   1 1 0    -11.514024      0.000000     -4.277756
     2   1 0 1      5.016936      0.000000     12.561506
     2   0 2 0    -65.372787      0.000000   4332.294618
     2   0 1 1      3.075050      0.000000     17.168854
     2   0 0 2    -80.598356      0.000000    536.872657


 Task  times  cpu:     5365.7s     wall:     5485.5s


                                NWChem Input Module
                                -------------------


 Summary of allocated global arrays
-----------------------------------
  No active global arrays


MA_summarize_allocated_blocks: starting scan ...
MA_summarize_allocated_blocks: scan completed: 0 heap blocks, 0 stack blocks
MA usage statistics:

	allocation statistics:
					      heap	     stack
					      ----	     -----
	current number of blocks	         0	         0
	maximum number of blocks	        16	        14
	current total bytes		         0	         0
	maximum total bytes		    132840	  28811320
	maximum total K-bytes		       133	     28812
	maximum total M-bytes		         1	        29


                                     CITATION
                                     --------
                Please cite the following reference when publishing
                           results obtained with NWChem:

          E. Apra, E. J. Bylaska, W. A. de Jong, N. Govind, K. Kowalski,
       T. P. Straatsma, M. Valiev, H. J. J. van Dam, Y. Alexeev, J. Anchell,
       V. Anisimov, F. W. Aquino, R. Atta-Fynn, J. Autschbach, N. P. Bauman,
     J. C. Becca, D. E. Bernholdt, K. Bhaskaran-Nair, S. Bogatko, P. Borowski,
         J. Boschen, J. Brabec, A. Bruner, E. Cauet, Y. Chen, G. N. Chuev,
      C. J. Cramer, J. Daily, M. J. O. Deegan, T. H. Dunning Jr., M. Dupuis,
   K. G. Dyall, G. I. Fann, S. A. Fischer, A. Fonari, H. Fruchtl, L. Gagliardi,
      J. Garza, N. Gawande, S. Ghosh, K. Glaesemann, A. W. Gotz, J. Hammond,
       V. Helms, E. D. Hermes, K. Hirao, S. Hirata, M. Jacquelin, L. Jensen,
   B. G. Johnson, H. Jonsson, R. A. Kendall, M. Klemm, R. Kobayashi, V. Konkov,
      S. Krishnamoorthy, M. Krishnan, Z. Lin, R. D. Lins, R. J. Littlefield,
      A. J. Logsdail, K. Lopata, W. Ma, A. V. Marenich, J. Martin del Campo,
   D. Mejia-Rodriguez, J. E. Moore, J. M. Mullin, T. Nakajima, D. R. Nascimento,
    J. A. Nichols, P. J. Nichols, J. Nieplocha, A. Otero-de-la-Roza, B. Palmer,
    A. Panyala, T. Pirojsirikul, B. Peng, R. Peverati, J. Pittner, L. Pollack,
   R. M. Richard, P. Sadayappan, G. C. Schatz, W. A. Shelton, D. W. Silverstein,
   D. M. A. Smith, T. A. Soares, D. Song, M. Swart, H. L. Taylor, G. S. Thomas,
            V. Tipparaju, D. G. Truhlar, K. Tsemekhman, T. Van Voorhis,
      A. Vazquez-Mayagoitia, P. Verma, O. Villa, A. Vishnu, K. D. Vogiatzis,
        D. Wang, J. H. Weare, M. J. Williamson, T. L. Windus, K. Wolinski,
        A. T. Wong, Q. Wu, C. Yang, Q. Yu, M. Zacharias, Z. Zhang, Y. Zhao,
                                and R. J. Harrison
                        "NWChem: Past, present, and future
                         J. Chem. Phys. 152, 184102 (2020)
                               doi:10.1063/5.0004997

                                      AUTHORS
                                      -------
  E. Apra, E. J. Bylaska, N. Govind, K. Kowalski, M. Valiev, D. Mejia-Rodriguez,
       A. Kunitsa, N. P. Bauman, A. Panyala, W. A. de Jong, T. P. Straatsma,
   H. J. J. van Dam, D. Wang, T. L. Windus, J. Hammond, J. Autschbach, A. Woods,
    K. Bhaskaran-Nair, J. Brabec, K. Lopata, S. A. Fischer, S. Krishnamoorthy,
     M. Jacquelin, W. Ma, M. Klemm, O. Villa, Y. Chen, V. Anisimov, F. Aquino,
     S. Hirata, M. T. Hackler, E. Hermes, L. Jensen, J. E. Moore, J. C. Becca,
      V. Konjkov, T. Risthaus, M. Malagoli, A. Marenich, A. Otero-de-la-Roza,
        J. Mullin, P. Nichols, R. Peverati, J. Pittner, Y. Zhao, P.-D. Fan,
        A. Fonari, M. J. Williamson, R. J. Harrison, J. R. Rehr, M. Dupuis,
     D. Silverstein, D. M. A. Smith, J. Nieplocha, V. Tipparaju, M. Krishnan,
     B. E. Van Kuiken, A. Vazquez-Mayagoitia, M. Swart, Q. Wu, T. Van Voorhis,
     A. A. Auer, M. Nooijen, L. D. Crosby, E. Brown, G. Cisneros, G. I. Fann,
   H. Fruchtl, J. Garza, K. Hirao, R. A. Kendall, J. A. Nichols, K. Tsemekhman,
    K. Wolinski, J. Anchell, D. E. Bernholdt, P. Borowski, T. Clark, D. Clerc,
   H. Dachsel, M. J. O. Deegan, K. Dyall, D. Elwood, E. Glendening, M. Gutowski,
   A. C. Hess, J. Jaffe, B. G. Johnson, J. Ju, R. Kobayashi, R. Kutteh, Z. Lin,
   R. Littlefield, X. Long, B. Meng, T. Nakajima, S. Niu, L. Pollack, M. Rosing,
   K. Glaesemann, G. Sandrone, M. Stave, H. Taylor, G. Thomas, J. H. van Lenthe,
                               A. T. Wong, Z. Zhang.

 Total times  cpu:     5365.8s     wall:     5486.0s
