export TMOUT=5400
export TMPDIR=/tmp
export PTMPDIR=/tmp/ptmp
 argument  1 = ALA_TRP_5.nw
                                         
                                         


             Northwest Computational Chemistry Package (NWChem) 7.2.0
             --------------------------------------------------------


                    Environmental Molecular Sciences Laboratory
                       Pacific Northwest National Laboratory
                                Richland, WA 99352

                              Copyright (c) 1994-2022
                       Pacific Northwest National Laboratory
                            Battelle Memorial Institute

             NWChem is an open-source computational chemistry package
                        distributed under the terms of the
                      Educational Community License (ECL) 2.0
             A copy of the license is included with this distribution
                              in the LICENSE.TXT file

                                  ACKNOWLEDGMENT
                                  --------------

            This software and its documentation were developed at the
            EMSL at Pacific Northwest National Laboratory, a multiprogram
            national laboratory, operated for the U.S. Department of Energy
            by Battelle under Contract Number DE-AC05-76RL01830. Support
            for this work was provided by the Department of Energy Office
            of Biological and Environmental Research, Office of Basic
            Energy Sciences, and the Office of Advanced Scientific Computing.


           Job information
           ---------------

    hostname        = nova18-56
    program         = /opt/rit/el9/20230413/app/linux-rhel9-x86_64_v3/gcc-11.2.1/nwchem-7.2.0-oxtctbuhfuzyfaoziquq6bki22grib3g/bin/nwchem
    date            = Mon Jun 30 20:39:15 2025

    compiled        = Wed_May_17_23:46:39_2023
    source          = /tmp/root/spack-stage/spack-stage-nwchem-7.2.0-oxtctbuhfuzyfaoziquq6bki22grib3g/spack-src
    nwchem branch   = 7.2.0
    nwchem revision = d0d141fd
    ga revision     = 5.8.0
    use scalapack   = T
    input           = ALA_TRP_5.nw
    prefix          = ALA_TRP_5.
    data base       = ./ALA_TRP_5.db
    status          = startup
    nproc           =        1
    time left       =     -1s



           Memory information
           ------------------

    heap     =   26214396 doubles =    200.0 Mbytes
    stack    =   26214401 doubles =    200.0 Mbytes
    global   =   52428800 doubles =    400.0 Mbytes (distinct from heap & stack)
    total    =  104857597 doubles =    800.0 Mbytes
    verify   = yes
    hardfail = no 


           Directory information
           ---------------------

  0 permanent = .
  0 scratch   = .




                                NWChem Input Module
                                -------------------



 Scaling coordinates for geometry "geometry" by  1.889725989
 (inverse scale =  0.529177249)

 C1  symmetry detected

          ------
          auto-z
          ------
  no constraints, skipping    0.0000000000000000     
  no constraints, skipping    0.0000000000000000     


                             Geometry "geometry" -> ""
                             -------------------------

 Output coordinates in angstroms (scale by  1.889725989 to convert to a.u.)

  No.       Tag          Charge          X              Y              Z
 ---- ---------------- ---------- -------------- -------------- --------------
    1 H                    1.0000    -3.40723080    -4.93911629     1.15871347
    2 C                    6.0000    -3.14551650    -3.89046576     1.28835792
    3 H                    1.0000    -3.37366897    -3.58205079     2.30763986
    4 H                    1.0000    -3.70797769    -3.27583654     0.58809558
    5 C                    6.0000    -1.66629451    -3.70961972     1.04161512
    6 O                    8.0000    -0.94404770    -3.26850789     1.92550589
    7 N                    7.0000    -1.21575670    -4.03739752    -0.16750580
    8 H                    1.0000    -1.88139947    -4.38149098    -0.83963629
    9 C                    6.0000     0.18501532    -3.94767617    -0.59699131
   10 H                    1.0000     0.80799276    -4.33093797     0.21287442
   11 C                    6.0000     0.37231818    -4.87779966    -1.80509806
   12 H                    1.0000    -0.22768010    -4.52684295    -2.64544886
   13 H                    1.0000     1.42224440    -4.88589223    -2.10114950
   14 H                    1.0000     0.07462316    -5.89396946    -1.54402984
   15 C                    6.0000     0.65538397    -2.49434553    -0.86034352
   16 O                    8.0000     1.12318916    -2.16586597    -1.95096925
   17 N                    7.0000     0.50050858    -1.60674004     0.12541513
   18 H                    1.0000     0.11148065    -1.94778159     0.99937905
   19 C                    6.0000     0.85689047    -0.18373340     0.04859033
   20 H                    1.0000     0.55521046     0.19032816    -0.93088766
   21 C                    6.0000     0.04704275     0.59127236     1.09886684
   22 H                    1.0000    -0.99980942     0.29542099     1.01812969
   23 H                    1.0000     0.38858447     0.31038034     2.09635816
   24 C                    6.0000     0.10393699     2.08213108     0.95971831
   25 C                    6.0000     0.92737697     2.90277407     1.64989270
   26 H                    1.0000     1.64794348     2.56593613     2.38784739
   27 N                    7.0000     0.73303690     4.20785526     1.24357751
   28 H                    1.0000     1.25290038     4.98761988     1.61935681
   29 C                    6.0000    -0.22365095     4.29486471     0.25467574
   30 C                    6.0000    -0.75456614     5.37049723    -0.47284110
   31 H                    1.0000    -0.40974265     6.37604906    -0.28903611
   32 C                    6.0000    -1.73749296     5.11735064    -1.44452709
   33 H                    1.0000    -2.15885144     5.93353977    -2.01570950
   34 C                    6.0000    -2.17406013     3.80013476    -1.67431708
   35 H                    1.0000    -2.93132983     3.61079232    -2.42414976
   36 C                    6.0000    -1.63368371     2.72777552    -0.93775753
   37 H                    1.0000    -1.97664229     1.72120664    -1.12226089
   38 C                    6.0000    -0.64497479     2.94638106     0.04812294
   39 C                    6.0000     2.37976348     0.04258213     0.15861792
   40 O                    8.0000     2.90546776     0.52575639     1.15517983
   41 N                    7.0000     3.13004846    -0.35504715    -0.85999998
   42 H                    1.0000     4.12562508    -0.23203511    -0.80050858
   43 H                    1.0000     2.69106276    -0.81981336    -1.64320999

      Atomic Mass 
      ----------- 

      H                  1.007825
      C                 12.000000
      O                 15.994910
      N                 14.003070


 Effective nuclear repulsion energy (a.u.)    1908.4244757766

            Nuclear Dipole moment (a.u.) 
            ----------------------------
        X                 Y               Z
 ---------------- ---------------- ----------------
    -0.0000000000    -0.0000000000    -0.0000000000



                                Z-matrix (autoz)
                                -------- 

 Units are Angstrom for bonds and degrees for angles

      Type          Name      I     J     K     L     M      Value
      ----------- --------  ----- ----- ----- ----- ----- ----------
    1 Stretch                  1     2                       1.08856
    2 Stretch                  2     3                       1.08909
    3 Stretch                  2     4                       1.08835
    4 Stretch                  2     5                       1.51052
    5 Stretch                  5     6                       1.22372
    6 Stretch                  5     7                       1.33131
    7 Stretch                  7     8                       1.00660
    8 Stretch                  7     9                       1.46788
    9 Stretch                  9    10                       1.09127
   10 Stretch                  9    11                       1.53614
   11 Stretch                  9    15                       1.55009
   12 Stretch                 11    12                       1.09058
   13 Stretch                 11    13                       1.09090
   14 Stretch                 11    14                       1.09059
   15 Stretch                 15    16                       1.23134
   16 Stretch                 15    17                       1.33550
   17 Stretch                 17    18                       1.01561
   18 Stretch                 17    19                       1.46896
   19 Stretch                 19    20                       1.09101
   20 Stretch                 19    21                       1.53609
   21 Stretch                 19    39                       1.54352
   22 Stretch                 21    22                       1.09085
   23 Stretch                 21    23                       1.09112
   24 Stretch                 21    24                       1.49842
   25 Stretch                 24    25                       1.35198
   26 Stretch                 24    38                       1.46246
   27 Stretch                 25    26                       1.08501
   28 Stretch                 25    27                       1.38061
   29 Stretch                 27    28                       1.00970
   30 Stretch                 27    29                       1.37868
   31 Stretch                 29    30                       1.40290
   32 Stretch                 29    38                       1.42779
   33 Stretch                 30    31                       1.07881
   34 Stretch                 30    32                       1.40513
   35 Stretch                 32    33                       1.08165
   36 Stretch                 32    34                       1.40657
   37 Stretch                 34    35                       1.08238
   38 Stretch                 34    36                       1.40872
   39 Stretch                 36    37                       1.07928
   40 Stretch                 36    38                       1.41326
   41 Stretch                 39    40                       1.22595
   42 Stretch                 39    41                       1.32613
   43 Stretch                 41    42                       1.00491
   44 Stretch                 41    43                       1.01101
   45 Bend                     1     2     3               109.50573
   46 Bend                     1     2     4               110.06892
   47 Bend                     1     2     5               109.34887
   48 Bend                     2     5     6               120.20837
   49 Bend                     2     5     7               116.76181
   50 Bend                     3     2     4               109.51100
   51 Bend                     3     2     5               108.91248
   52 Bend                     4     2     5               109.47401
   53 Bend                     5     7     8               117.82766
   54 Bend                     5     7     9               125.00374
   55 Bend                     6     5     7               123.02595
   56 Bend                     7     9    10               107.82846
   57 Bend                     7     9    11               108.02638
   58 Bend                     7     9    15               113.36524
   59 Bend                     8     7     9               117.16618
   60 Bend                     9    11    12               110.12521
   61 Bend                     9    11    13               109.58919
   62 Bend                     9    11    14               110.03715
   63 Bend                     9    15    16               121.05610
   64 Bend                     9    15    17               117.55155
   65 Bend                    10     9    11               107.54123
   66 Bend                    10     9    15               106.38792
   67 Bend                    11     9    15               113.39599
   68 Bend                    12    11    13               108.83079
   69 Bend                    12    11    14               109.51965
   70 Bend                    13    11    14               108.70940
   71 Bend                    15    17    18               117.15612
   72 Bend                    15    17    19               125.24647
   73 Bend                    16    15    17               121.36771
   74 Bend                    17    19    20               108.17969
   75 Bend                    17    19    21               108.97058
   76 Bend                    17    19    39               112.18936
   77 Bend                    18    17    19               117.59564
   78 Bend                    19    21    22               108.57287
   79 Bend                    19    21    23               109.27797
   80 Bend                    19    21    24               114.73830
   81 Bend                    19    39    40               122.60257
   82 Bend                    19    39    41               117.35380
   83 Bend                    20    19    21               107.16182
   84 Bend                    20    19    39               106.65089
   85 Bend                    21    19    39               113.41860
   86 Bend                    21    24    25               125.42599
   87 Bend                    21    24    38               128.78601
   88 Bend                    22    21    23               107.35182
   89 Bend                    22    21    24               107.42213
   90 Bend                    23    21    24               109.21694
   91 Bend                    24    25    26               124.28071
   92 Bend                    24    25    27               109.74371
   93 Bend                    24    38    29               108.47217
   94 Bend                    24    38    36               134.56161
   95 Bend                    25    24    38               105.74713
   96 Bend                    25    27    28               123.23103
   97 Bend                    25    27    29               111.61900
   98 Bend                    26    25    27               125.95201
   99 Bend                    27    29    30               133.07564
  100 Bend                    27    29    38               104.41408
  101 Bend                    28    27    29               125.13373
  102 Bend                    29    30    31               120.35389
  103 Bend                    29    30    32               119.02615
  104 Bend                    29    38    36               116.96531
  105 Bend                    30    29    38               122.50936
  106 Bend                    30    32    33               120.11457
  107 Bend                    30    32    34               119.92080
  108 Bend                    31    30    32               120.61976
  109 Bend                    32    34    35               119.61315
  110 Bend                    32    34    36               120.55690
  111 Bend                    33    32    34               119.96463
  112 Bend                    34    36    37               119.91215
  113 Bend                    34    36    38               121.02127
  114 Bend                    35    34    36               119.82995
  115 Bend                    37    36    38               119.06646
  116 Bend                    39    41    42               118.57698
  117 Bend                    39    41    43               119.15821
  118 Bend                    40    39    41               119.99701
  119 Bend                    42    41    43               122.16158
  120 Torsion                  1     2     5     6        -120.06309
  121 Torsion                  1     2     5     7          60.63081
  122 Torsion                  2     5     7     8           0.10247
  123 Torsion                  2     5     7     9        -179.31371
  124 Torsion                  3     2     5     6          -0.43314
  125 Torsion                  3     2     5     7        -179.73923
  126 Torsion                  4     2     5     6         119.27768
  127 Torsion                  4     2     5     7         -60.02842
  128 Torsion                  5     7     9    10          43.03377
  129 Torsion                  5     7     9    11         158.98464
  130 Torsion                  5     7     9    15         -74.46887
  131 Torsion                  6     5     7     8        -179.18229
  132 Torsion                  6     5     7     9           1.40153
  133 Torsion                  7     9    11    12          64.35921
  134 Torsion                  7     9    11    13        -175.95187
  135 Torsion                  7     9    11    14         -56.46664
  136 Torsion                  7     9    15    16        -123.44423
  137 Torsion                  7     9    15    17          54.77431
  138 Torsion                  8     7     9    10        -136.38591
  139 Torsion                  8     7     9    11         -20.43503
  140 Torsion                  8     7     9    15         106.11146
  141 Torsion                  9    15    17    18           1.98843
  142 Torsion                  9    15    17    19        -178.50976
  143 Torsion                 10     9    11    12        -179.50250
  144 Torsion                 10     9    11    13         -59.81359
  145 Torsion                 10     9    11    14          59.67165
  146 Torsion                 10     9    15    16         118.21643
  147 Torsion                 10     9    15    17         -63.56504
  148 Torsion                 11     9    15    16           0.21222
  149 Torsion                 11     9    15    17         178.43076
  150 Torsion                 12    11     9    15         -62.16933
  151 Torsion                 13    11     9    15          57.51959
  152 Torsion                 14    11     9    15         177.00482
  153 Torsion                 15    17    19    20          41.31535
  154 Torsion                 15    17    19    21         157.50202
  155 Torsion                 15    17    19    39         -76.04977
  156 Torsion                 16    15    17    18        -179.79891
  157 Torsion                 16    15    17    19          -0.29711
  158 Torsion                 17    19    21    22         -48.39520
  159 Torsion                 17    19    21    23          68.40224
  160 Torsion                 17    19    21    24        -168.56703
  161 Torsion                 17    19    39    40        -107.90542
  162 Torsion                 17    19    39    41          69.60788
  163 Torsion                 18    17    19    20        -139.18483
  164 Torsion                 18    17    19    21         -22.99816
  165 Torsion                 18    17    19    39         103.45005
  166 Torsion                 19    21    24    25         -97.11074
  167 Torsion                 19    21    24    38          80.22529
  168 Torsion                 19    39    41    42        -178.88914
  169 Torsion                 19    39    41    43          -2.50224
  170 Torsion                 20    19    21    22          68.44154
  171 Torsion                 20    19    21    23        -174.76101
  172 Torsion                 20    19    21    24         -51.73029
  173 Torsion                 20    19    39    40         133.82064
  174 Torsion                 20    19    39    41         -48.66605
  175 Torsion                 21    19    39    40          16.09928
  176 Torsion                 21    19    39    41        -166.38742
  177 Torsion                 21    24    25    26           0.15681
  178 Torsion                 21    24    25    27         178.48021
  179 Torsion                 21    24    38    29        -178.24870
  180 Torsion                 21    24    38    36           1.38125
  181 Torsion                 22    21    19    39        -174.13449
  182 Torsion                 22    21    24    25         142.08249
  183 Torsion                 22    21    24    38         -40.58149
  184 Torsion                 23    21    19    39         -57.33704
  185 Torsion                 23    21    24    25          25.95274
  186 Torsion                 23    21    24    38        -156.71124
  187 Torsion                 24    21    19    39          65.69368
  188 Torsion                 24    25    27    28        -179.16839
  189 Torsion                 24    25    27    29          -0.56702
  190 Torsion                 24    38    29    27           0.17320
  191 Torsion                 24    38    29    30         179.86611
  192 Torsion                 24    38    36    34        -179.77113
  193 Torsion                 24    38    36    37           0.35731
  194 Torsion                 25    24    38    29          -0.50390
  195 Torsion                 25    24    38    36         179.12605
  196 Torsion                 25    27    29    30        -179.42438
  197 Torsion                 25    27    29    38           0.22108
  198 Torsion                 26    25    24    38        -177.68594
  199 Torsion                 26    25    27    28          -0.87975
  200 Torsion                 26    25    27    29         177.72162
  201 Torsion                 27    25    24    38           0.63747
  202 Torsion                 27    29    30    31          -0.33223
  203 Torsion                 27    29    30    32         179.50517
  204 Torsion                 27    29    38    36        -179.53098
  205 Torsion                 28    27    29    30          -0.85492
  206 Torsion                 28    27    29    38         178.79054
  207 Torsion                 29    30    32    33        -179.99755
  208 Torsion                 29    30    32    34           0.01233
  209 Torsion                 29    38    36    34          -0.16492
  210 Torsion                 29    38    36    37         179.96352
  211 Torsion                 30    29    38    36           0.16192
  212 Torsion                 30    32    34    35        -179.98861
  213 Torsion                 30    32    34    36          -0.01802
  214 Torsion                 31    30    29    38        -179.92505
  215 Torsion                 31    30    32    33          -0.16060
  216 Torsion                 31    30    32    34         179.84928
  217 Torsion                 32    30    29    38          -0.08765
  218 Torsion                 32    34    36    37         179.96891
  219 Torsion                 32    34    36    38           0.09842
  220 Torsion                 33    32    34    35           0.02126
  221 Torsion                 33    32    34    36         179.99184
  222 Torsion                 35    34    36    37          -0.06057
  223 Torsion                 35    34    36    38        -179.93105
  224 Torsion                 40    39    41    42          -1.30796
  225 Torsion                 40    39    41    43         175.07894


            XYZ format geometry
            -------------------
    43
 geometry
 H                    -3.40723080    -4.93911629     1.15871347
 C                    -3.14551650    -3.89046576     1.28835792
 H                    -3.37366897    -3.58205079     2.30763986
 H                    -3.70797769    -3.27583654     0.58809558
 C                    -1.66629451    -3.70961972     1.04161512
 O                    -0.94404770    -3.26850789     1.92550589
 N                    -1.21575670    -4.03739752    -0.16750580
 H                    -1.88139947    -4.38149098    -0.83963629
 C                     0.18501532    -3.94767617    -0.59699131
 H                     0.80799276    -4.33093797     0.21287442
 C                     0.37231818    -4.87779966    -1.80509806
 H                    -0.22768010    -4.52684295    -2.64544886
 H                     1.42224440    -4.88589223    -2.10114950
 H                     0.07462316    -5.89396946    -1.54402984
 C                     0.65538397    -2.49434553    -0.86034352
 O                     1.12318916    -2.16586597    -1.95096925
 N                     0.50050858    -1.60674004     0.12541513
 H                     0.11148065    -1.94778159     0.99937905
 C                     0.85689047    -0.18373340     0.04859033
 H                     0.55521046     0.19032816    -0.93088766
 C                     0.04704275     0.59127236     1.09886684
 H                    -0.99980942     0.29542099     1.01812969
 H                     0.38858447     0.31038034     2.09635816
 C                     0.10393699     2.08213108     0.95971831
 C                     0.92737697     2.90277407     1.64989270
 H                     1.64794348     2.56593613     2.38784739
 N                     0.73303690     4.20785526     1.24357751
 H                     1.25290038     4.98761988     1.61935681
 C                    -0.22365095     4.29486471     0.25467574
 C                    -0.75456614     5.37049723    -0.47284110
 H                    -0.40974265     6.37604906    -0.28903611
 C                    -1.73749296     5.11735064    -1.44452709
 H                    -2.15885144     5.93353977    -2.01570950
 C                    -2.17406013     3.80013476    -1.67431708
 H                    -2.93132983     3.61079232    -2.42414976
 C                    -1.63368371     2.72777552    -0.93775753
 H                    -1.97664229     1.72120664    -1.12226089
 C                    -0.64497479     2.94638106     0.04812294
 C                     2.37976348     0.04258213     0.15861792
 O                     2.90546776     0.52575639     1.15517983
 N                     3.13004846    -0.35504715    -0.85999998
 H                     4.12562508    -0.23203511    -0.80050858
 H                     2.69106276    -0.81981336    -1.64320999

 ==============================================================================
                                internuclear distances
 ------------------------------------------------------------------------------
       center one      |      center two      | atomic units |  angstroms
 ------------------------------------------------------------------------------
    2 C                |   1 H                |     2.05709  |     1.08856
    3 H                |   2 C                |     2.05807  |     1.08909
    4 H                |   2 C                |     2.05668  |     1.08835
    5 C                |   2 C                |     2.85448  |     1.51052
    6 O                |   5 C                |     2.31249  |     1.22372
    7 N                |   5 C                |     2.51582  |     1.33131
    8 H                |   7 N                |     1.90219  |     1.00660
    9 C                |   7 N                |     2.77389  |     1.46788
   10 H                |   9 C                |     2.06220  |     1.09127
   11 C                |   9 C                |     2.90289  |     1.53614
   12 H                |  11 C                |     2.06089  |     1.09058
   13 H                |  11 C                |     2.06150  |     1.09090
   14 H                |  11 C                |     2.06091  |     1.09059
   15 C                |   9 C                |     2.92924  |     1.55009
   16 O                |  15 C                |     2.32690  |     1.23134
   17 N                |  15 C                |     2.52372  |     1.33550
   18 H                |  17 N                |     1.91923  |     1.01561
   19 C                |  17 N                |     2.77594  |     1.46896
   20 H                |  19 C                |     2.06172  |     1.09101
   21 C                |  19 C                |     2.90279  |     1.53609
   22 H                |  21 C                |     2.06140  |     1.09085
   23 H                |  21 C                |     2.06192  |     1.09112
   24 C                |  21 C                |     2.83160  |     1.49842
   25 C                |  24 C                |     2.55487  |     1.35198
   26 H                |  25 C                |     2.05038  |     1.08501
   27 N                |  25 C                |     2.60898  |     1.38061
   28 H                |  27 N                |     1.90806  |     1.00970
   29 C                |  27 N                |     2.60532  |     1.37868
   30 C                |  29 C                |     2.65110  |     1.40290
   31 H                |  30 C                |     2.03865  |     1.07881
   32 C                |  30 C                |     2.65532  |     1.40513
   33 H                |  32 C                |     2.04401  |     1.08165
   34 C                |  32 C                |     2.65804  |     1.40657
   35 H                |  34 C                |     2.04541  |     1.08238
   36 C                |  34 C                |     2.66209  |     1.40872
   37 H                |  36 C                |     2.03954  |     1.07928
   38 C                |  24 C                |     2.76366  |     1.46246
   38 C                |  29 C                |     2.69813  |     1.42779
   38 C                |  36 C                |     2.67067  |     1.41326
   39 C                |  19 C                |     2.91684  |     1.54352
   40 O                |  39 C                |     2.31671  |     1.22595
   41 N                |  39 C                |     2.50602  |     1.32613
   42 H                |  41 N                |     1.89900  |     1.00491
   43 H                |  41 N                |     1.91053  |     1.01101
 ------------------------------------------------------------------------------
                         number of included internuclear distances:         44
 ==============================================================================



 ==============================================================================
                                 internuclear angles
 ------------------------------------------------------------------------------
        center 1       |       center 2       |       center 3       |  degrees
 ------------------------------------------------------------------------------
    1 H                |   2 C                |   3 H                |   109.51
    1 H                |   2 C                |   4 H                |   110.07
    1 H                |   2 C                |   5 C                |   109.35
    3 H                |   2 C                |   4 H                |   109.51
    3 H                |   2 C                |   5 C                |   108.91
    4 H                |   2 C                |   5 C                |   109.47
    2 C                |   5 C                |   6 O                |   120.21
    2 C                |   5 C                |   7 N                |   116.76
    6 O                |   5 C                |   7 N                |   123.03
    5 C                |   7 N                |   8 H                |   117.83
    5 C                |   7 N                |   9 C                |   125.00
    8 H                |   7 N                |   9 C                |   117.17
    7 N                |   9 C                |  10 H                |   107.83
    7 N                |   9 C                |  11 C                |   108.03
    7 N                |   9 C                |  15 C                |   113.37
   10 H                |   9 C                |  11 C                |   107.54
   10 H                |   9 C                |  15 C                |   106.39
   11 C                |   9 C                |  15 C                |   113.40
    9 C                |  11 C                |  12 H                |   110.13
    9 C                |  11 C                |  13 H                |   109.59
    9 C                |  11 C                |  14 H                |   110.04
   12 H                |  11 C                |  13 H                |   108.83
   12 H                |  11 C                |  14 H                |   109.52
   13 H                |  11 C                |  14 H                |   108.71
    9 C                |  15 C                |  16 O                |   121.06
    9 C                |  15 C                |  17 N                |   117.55
   16 O                |  15 C                |  17 N                |   121.37
   15 C                |  17 N                |  18 H                |   117.16
   15 C                |  17 N                |  19 C                |   125.25
   18 H                |  17 N                |  19 C                |   117.60
   17 N                |  19 C                |  20 H                |   108.18
   17 N                |  19 C                |  21 C                |   108.97
   17 N                |  19 C                |  39 C                |   112.19
   20 H                |  19 C                |  21 C                |   107.16
   20 H                |  19 C                |  39 C                |   106.65
   21 C                |  19 C                |  39 C                |   113.42
   19 C                |  21 C                |  22 H                |   108.57
   19 C                |  21 C                |  23 H                |   109.28
   19 C                |  21 C                |  24 C                |   114.74
   22 H                |  21 C                |  23 H                |   107.35
   22 H                |  21 C                |  24 C                |   107.42
   23 H                |  21 C                |  24 C                |   109.22
   21 C                |  24 C                |  25 C                |   125.43
   21 C                |  24 C                |  38 C                |   128.79
   25 C                |  24 C                |  38 C                |   105.75
   24 C                |  25 C                |  26 H                |   124.28
   24 C                |  25 C                |  27 N                |   109.74
   26 H                |  25 C                |  27 N                |   125.95
   25 C                |  27 N                |  28 H                |   123.23
   25 C                |  27 N                |  29 C                |   111.62
   28 H                |  27 N                |  29 C                |   125.13
   27 N                |  29 C                |  30 C                |   133.08
   27 N                |  29 C                |  38 C                |   104.41
   30 C                |  29 C                |  38 C                |   122.51
   29 C                |  30 C                |  31 H                |   120.35
   29 C                |  30 C                |  32 C                |   119.03
   31 H                |  30 C                |  32 C                |   120.62
   30 C                |  32 C                |  33 H                |   120.11
   30 C                |  32 C                |  34 C                |   119.92
   33 H                |  32 C                |  34 C                |   119.96
   32 C                |  34 C                |  35 H                |   119.61
   32 C                |  34 C                |  36 C                |   120.56
   35 H                |  34 C                |  36 C                |   119.83
   34 C                |  36 C                |  37 H                |   119.91
   34 C                |  36 C                |  38 C                |   121.02
   37 H                |  36 C                |  38 C                |   119.07
   24 C                |  38 C                |  29 C                |   108.47
   24 C                |  38 C                |  36 C                |   134.56
   29 C                |  38 C                |  36 C                |   116.97
   19 C                |  39 C                |  40 O                |   122.60
   19 C                |  39 C                |  41 N                |   117.35
   40 O                |  39 C                |  41 N                |   120.00
   39 C                |  41 N                |  42 H                |   118.58
   39 C                |  41 N                |  43 H                |   119.16
   42 H                |  41 N                |  43 H                |   122.16
 ------------------------------------------------------------------------------
                            number of included internuclear angles:         75
 ==============================================================================



  library name resolved from: environment
  library file name is: </opt/rit/el9/20230413/app/linux-rhel9-x86_64_v3/gcc-11.2.1/nwchem-7.2.0-oxtctbuhfuzyfaoziquq6bki22grib3g/share/nwchem/libraries/>
  


 Summary of "ao basis" -> "" (cartesian)
 ------------------------------------------------------------------------------
       Tag                 Description            Shells   Functions and Types
 ---------------- ------------------------------  ------  ---------------------
 *                        aug-cc-pvdz                 on all atoms 


                      Basis "ao basis" -> "ao basis" (cartesian)
                      -----
  H (Hydrogen)
  ------------
            Exponent  Coefficients 
       -------------- ---------------------------------------------------------
  1 S  1.30100000E+01  0.019685
  1 S  1.96200000E+00  0.137977
  1 S  4.44600000E-01  0.478148

  2 S  1.22000000E-01  1.000000

  3 S  2.97400000E-02  1.000000

  4 P  7.27000000E-01  1.000000

  5 P  1.41000000E-01  1.000000

  C (Carbon)
  ----------
            Exponent  Coefficients 
       -------------- ---------------------------------------------------------
  1 S  6.66500000E+03  0.000692
  1 S  1.00000000E+03  0.005329
  1 S  2.28000000E+02  0.027077
  1 S  6.47100000E+01  0.101718
  1 S  2.10600000E+01  0.274740
  1 S  7.49500000E+00  0.448564
  1 S  2.79700000E+00  0.285074
  1 S  5.21500000E-01  0.015204

  2 S  6.66500000E+03 -0.000146
  2 S  1.00000000E+03 -0.001154
  2 S  2.28000000E+02 -0.005725
  2 S  6.47100000E+01 -0.023312
  2 S  2.10600000E+01 -0.063955
  2 S  7.49500000E+00 -0.149981
  2 S  2.79700000E+00 -0.127262
  2 S  5.21500000E-01  0.544529

  3 S  1.59600000E-01  1.000000

  4 S  4.69000000E-02  1.000000

  5 P  9.43900000E+00  0.038109
  5 P  2.00200000E+00  0.209480
  5 P  5.45600000E-01  0.508557

  6 P  1.51700000E-01  1.000000

  7 P  4.04100000E-02  1.000000

  8 D  5.50000000E-01  1.000000

  9 D  1.51000000E-01  1.000000

  O (Oxygen)
  ----------
            Exponent  Coefficients 
       -------------- ---------------------------------------------------------
  1 S  1.17200000E+04  0.000710
  1 S  1.75900000E+03  0.005470
  1 S  4.00800000E+02  0.027837
  1 S  1.13700000E+02  0.104800
  1 S  3.70300000E+01  0.283062
  1 S  1.32700000E+01  0.448719
  1 S  5.02500000E+00  0.270952
  1 S  1.01300000E+00  0.015458

  2 S  1.17200000E+04 -0.000160
  2 S  1.75900000E+03 -0.001263
  2 S  4.00800000E+02 -0.006267
  2 S  1.13700000E+02 -0.025716
  2 S  3.70300000E+01 -0.070924
  2 S  1.32700000E+01 -0.165411
  2 S  5.02500000E+00 -0.116955
  2 S  1.01300000E+00  0.557368

  3 S  3.02300000E-01  1.000000

  4 S  7.89600000E-02  1.000000

  5 P  1.77000000E+01  0.043018
  5 P  3.85400000E+00  0.228913
  5 P  1.04600000E+00  0.508728

  6 P  2.75300000E-01  1.000000

  7 P  6.85600000E-02  1.000000

  8 D  1.18500000E+00  1.000000

  9 D  3.32000000E-01  1.000000

  N (Nitrogen)
  ------------
            Exponent  Coefficients 
       -------------- ---------------------------------------------------------
  1 S  9.04600000E+03  0.000700
  1 S  1.35700000E+03  0.005389
  1 S  3.09300000E+02  0.027406
  1 S  8.77300000E+01  0.103207
  1 S  2.85600000E+01  0.278723
  1 S  1.02100000E+01  0.448540
  1 S  3.83800000E+00  0.278238
  1 S  7.46600000E-01  0.015440

  2 S  9.04600000E+03 -0.000153
  2 S  1.35700000E+03 -0.001208
  2 S  3.09300000E+02 -0.005992
  2 S  8.77300000E+01 -0.024544
  2 S  2.85600000E+01 -0.067459
  2 S  1.02100000E+01 -0.158078
  2 S  3.83800000E+00 -0.121831
  2 S  7.46600000E-01  0.549003

  3 S  2.24800000E-01  1.000000

  4 S  6.12400000E-02  1.000000

  5 P  1.35500000E+01  0.039919
  5 P  2.91700000E+00  0.217169
  5 P  7.97300000E-01  0.510319

  6 P  2.18500000E-01  1.000000

  7 P  5.61100000E-02  1.000000

  8 D  8.17000000E-01  1.000000

  9 D  2.30000000E-01  1.000000



 Summary of "ao basis" -> "ao basis" (cartesian)
 ------------------------------------------------------------------------------
       Tag                 Description            Shells   Functions and Types
 ---------------- ------------------------------  ------  ---------------------
 H                        aug-cc-pvdz                5        9   3s2p
 C                        aug-cc-pvdz                9       25   4s3p2d
 O                        aug-cc-pvdz                9       25   4s3p2d
 N                        aug-cc-pvdz                9       25   4s3p2d


                                 NWChem SCF Module
                                 -----------------



  ao basis        = "ao basis"
  functions       =   755
  atoms           =    43
  closed shells   =    84
  open shells     =     0
  charge          =   0.00
  wavefunction    = RHF 
  input vectors   = atomic
  output vectors  = ./ALA_TRP_5.movecs
  use symmetry    = F
  symmetry adapt  = F


 Summary of "ao basis" -> "ao basis" (cartesian)
 ------------------------------------------------------------------------------
       Tag                 Description            Shells   Functions and Types
 ---------------- ------------------------------  ------  ---------------------
 H                        aug-cc-pvdz                5        9   3s2p
 C                        aug-cc-pvdz                9       25   4s3p2d
 O                        aug-cc-pvdz                9       25   4s3p2d
 N                        aug-cc-pvdz                9       25   4s3p2d



 Forming initial guess at       1.3s


 !! The overlap matrix has  17 vectors deemed linearly dependent with
    eigenvalues:
 2.26D-07 9.95D-07 1.14D-06 1.37D-06 1.86D-06 1.98D-06 2.22D-06 2.71D-06
 2.94D-06 3.63D-06 3.82D-06 4.68D-06 5.25D-06 6.39D-06 6.82D-06 8.65D-06
 9.76D-06


      Superposition of Atomic Density Guess
      -------------------------------------

 Sum of atomic energies:       -1054.17033381

      Non-variational initial energy
      ------------------------------

 Total energy =   -1070.125900
 1-e energy   =   -5222.703203
 2-e energy   =    2244.152827
 HOMO         =      -0.235689
 LUMO         =      -0.029708


 Starting SCF solution at    1341.1s



 ----------------------------------------------
         Quadratically convergent ROHF

 Convergence threshold     :          1.000E-04
 Maximum no. of iterations :           30
 Final Fock-matrix accuracy:          1.000E-10
 ----------------------------------------------


              iter       energy          gnorm     gmax       time
             ----- ------------------- --------- --------- --------
                 1    -1059.6870858344  2.55D+00  1.58D-01   2762.7
                 2    -1060.0534147913  9.60D-01  4.61D-02   5621.3
                 3    -1060.1312774168  6.50D-02  4.28D-03   9712.0
                 4    -1060.1319259126  2.05D-03  8.88D-05  16465.8
                 5    -1060.1319265632  5.21D-06  6.23D-07  27207.9


       Final RHF  results 
       ------------------ 

         Total SCF energy =  -1060.131926563173
      One-electron energy =  -5239.650338614719
      Two-electron energy =   2271.093936274961
 Nuclear repulsion energy =   1908.424475776584

        Time for solution =  25874.1s


             Final eigenvalues
             -----------------

              1      
    1  -20.5473
    2  -20.5379
    3  -20.5123
    4  -15.6218
    5  -15.6038
    6  -15.5959
    7  -15.5742
    8  -11.3771
    9  -11.3675
   10  -11.3447
   11  -11.3122
   12  -11.2894
   13  -11.2711
   14  -11.2636
   15  -11.2591
   16  -11.2494
   17  -11.2394
   18  -11.2375
   19  -11.2366
   20  -11.2357
   21  -11.2316
   22  -11.2282
   23  -11.2190
   24   -1.4135
   25   -1.3958
   26   -1.3728
   27   -1.2898
   28   -1.2694
   29   -1.2429
   30   -1.2034
   31   -1.1222
   32   -1.0880
   33   -1.0712
   34   -1.0226
   35   -1.0081
   36   -0.9907
   37   -0.9766
   38   -0.9132
   39   -0.8884
   40   -0.8392
   41   -0.8314
   42   -0.8075
   43   -0.8012
   44   -0.7767
   45   -0.7517
   46   -0.7303
   47   -0.7283
   48   -0.7108
   49   -0.7017
   50   -0.6893
   51   -0.6761
   52   -0.6637
   53   -0.6605
   54   -0.6407
   55   -0.6341
   56   -0.6131
   57   -0.6043
   58   -0.6019
   59   -0.5909
   60   -0.5865
   61   -0.5839
   62   -0.5767
   63   -0.5707
   64   -0.5613
   65   -0.5573
   66   -0.5478
   67   -0.5454
   68   -0.5424
   69   -0.5339
   70   -0.5276
   71   -0.5218
   72   -0.5138
   73   -0.4911
   74   -0.4702
   75   -0.4590
   76   -0.4568
   77   -0.4426
   78   -0.4338
   79   -0.4079
   80   -0.3963
   81   -0.3886
   82   -0.3681
   83   -0.2944
   84   -0.2758
   85    0.0216
   86    0.0351
   87    0.0371
   88    0.0399
   89    0.0439
   90    0.0457
   91    0.0526
   92    0.0557
   93    0.0591
   94    0.0625

                       ROHF Final Molecular Orbital Analysis
                       -------------------------------------

 Vector   24  Occ=2.000000D+00  E=-1.413460D+00
              MO Center= -1.0D+00, -3.4D+00,  1.2D+00, r^2= 1.7D+00
   Bfn.  Coefficient  Atom+Function         Bfn.  Coefficient  Atom+Function  
  ----- ------------  ---------------      ----- ------------  ---------------
    80      0.341856   6 O  s                79      0.337207   6 O  s         
    54      0.237079   5 C  s                12      0.191714   2 C  s         

 Vector   25  Occ=2.000000D+00  E=-1.395841D+00
              MO Center=  8.4D-01, -2.2D+00, -1.2D+00, r^2= 2.1D+00
   Bfn.  Coefficient  Atom+Function         Bfn.  Coefficient  Atom+Function  
  ----- ------------  ---------------      ----- ------------  ---------------
   250      0.359236  16 O  s               249      0.338550  16 O  s         
   224      0.230426  15 C  s         

 Vector   26  Occ=2.000000D+00  E=-1.372766D+00
              MO Center=  2.7D+00,  2.1D-01,  5.9D-01, r^2= 1.3D+00
   Bfn.  Coefficient  Atom+Function         Bfn.  Coefficient  Atom+Function  
  ----- ------------  ---------------      ----- ------------  ---------------
   690      0.379311  40 O  s               689      0.349279  40 O  s         
   664      0.242479  39 C  s         

 Vector   27  Occ=2.000000D+00  E=-1.289827D+00
              MO Center=  4.8D-01,  3.9D+00,  1.0D+00, r^2= 1.3D+00
   Bfn.  Coefficient  Atom+Function         Bfn.  Coefficient  Atom+Function  
  ----- ------------  ---------------      ----- ------------  ---------------
   445      0.499838  27 N  s               444      0.333180  27 N  s         
   478      0.172849  29 C  s               410      0.163101  25 C  s         

 Vector   28  Occ=2.000000D+00  E=-1.269418D+00
              MO Center= -1.0D+00, -3.8D+00,  1.1D-01, r^2= 1.9D+00
   Bfn.  Coefficient  Atom+Function         Bfn.  Coefficient  Atom+Function  
  ----- ------------  ---------------      ----- ------------  ---------------
   105      0.407166   7 N  s               104      0.340392   7 N  s         
    80     -0.217076   6 O  s                59     -0.183202   5 C  pz        
    79     -0.182023   6 O  s               128      0.156830   8 H  s         

 Vector   29  Occ=2.000000D+00  E=-1.242857D+00
              MO Center=  6.2D-01, -1.6D+00, -1.4D-01, r^2= 2.2D+00
   Bfn.  Coefficient  Atom+Function         Bfn.  Coefficient  Atom+Function  
  ----- ------------  ---------------      ----- ------------  ---------------
   275      0.422900  17 N  s               274      0.338637  17 N  s         
   250     -0.204439  16 O  s               309     -0.185482  19 C  s         
   229      0.170827  15 C  pz              249     -0.165063  16 O  s         

 Vector   30  Occ=2.000000D+00  E=-1.203447D+00
              MO Center=  2.9D+00, -2.7D-01, -4.9D-01, r^2= 1.6D+00
   Bfn.  Coefficient  Atom+Function         Bfn.  Coefficient  Atom+Function  
  ----- ------------  ---------------      ----- ------------  ---------------
   715      0.395510  41 N  s               714      0.367817  41 N  s         
   690     -0.211651  40 O  s               669     -0.193554  39 C  pz        
   689     -0.176210  40 O  s               747      0.164267  43 H  s         
   738      0.157994  42 H  s         

 Vector   31  Occ=2.000000D+00  E=-1.122188D+00
              MO Center= -1.1D+00,  4.0D+00, -6.4D-01, r^2= 3.0D+00
   Bfn.  Coefficient  Atom+Function         Bfn.  Coefficient  Atom+Function  
  ----- ------------  ---------------      ----- ------------  ---------------
   445      0.253676  27 N  s               537     -0.183940  32 C  s         
   571     -0.184528  34 C  s               605     -0.179024  36 C  s         
   503     -0.164818  30 C  s               412     -0.154663  25 C  s         
   639     -0.154479  38 C  s         

 Vector   32  Occ=2.000000D+00  E=-1.088034D+00
              MO Center=  8.7D-02,  4.6D-01,  4.4D-01, r^2= 9.6D+00
   Bfn.  Coefficient  Atom+Function         Bfn.  Coefficient  Atom+Function  
  ----- ------------  ---------------      ----- ------------  ---------------
   342      0.202878  21 C  s               385      0.193361  24 C  s         

 Vector   33  Occ=2.000000D+00  E=-1.071249D+00
              MO Center= -4.8D-01, -2.6D+00, -1.2D-01, r^2= 1.2D+01
   Bfn.  Coefficient  Atom+Function         Bfn.  Coefficient  Atom+Function  
  ----- ------------  ---------------      ----- ------------  ---------------
   138      0.216112   9 C  s               172      0.182476  11 C  s         
   225      0.181388  15 C  s               145     -0.175566   9 C  py        

 Vector   34  Occ=2.000000D+00  E=-1.022558D+00
              MO Center= -1.2D-01,  1.3D+00,  7.8D-02, r^2= 1.1D+01
   Bfn.  Coefficient  Atom+Function         Bfn.  Coefficient  Atom+Function  
  ----- ------------  ---------------      ----- ------------  ---------------
   308      0.194806  19 C  s               639     -0.152748  38 C  s         

 Vector   35  Occ=2.000000D+00  E=-1.008082D+00
              MO Center= -2.0D+00, -3.9D+00,  4.6D-01, r^2= 6.2D+00
   Bfn.  Coefficient  Atom+Function         Bfn.  Coefficient  Atom+Function  
  ----- ------------  ---------------      ----- ------------  ---------------
    11      0.306097   2 C  s               172      0.176915  11 C  s         
    55      0.162744   5 C  s                57     -0.158843   5 C  px        

 Vector   36  Occ=2.000000D+00  E=-9.907084D-01
              MO Center= -9.3D-01,  4.0D+00, -4.3D-01, r^2= 4.2D+00
   Bfn.  Coefficient  Atom+Function         Bfn.  Coefficient  Atom+Function  
  ----- ------------  ---------------      ----- ------------  ---------------
   573      0.317640  34 C  s               571     -0.233872  34 C  s         
   505     -0.216296  30 C  s               478      0.212797  29 C  s         
   445     -0.175996  27 N  s               596     -0.161223  35 H  s         

 Vector   37  Occ=2.000000D+00  E=-9.765828D-01
              MO Center= -3.6D-01,  2.8D+00, -1.0D-01, r^2= 8.8D+00
   Bfn.  Coefficient  Atom+Function         Bfn.  Coefficient  Atom+Function  
  ----- ------------  ---------------      ----- ------------  ---------------
   607      0.233582  36 C  s               539     -0.202714  32 C  s         
   412     -0.187132  25 C  s               641      0.183966  38 C  s         
   537      0.174990  32 C  s               605     -0.173251  36 C  s         
   410      0.170413  25 C  s         

 Vector   38  Occ=2.000000D+00  E=-9.131715D-01
              MO Center=  2.3D-01, -1.3D+00, -1.3D-01, r^2= 1.3D+01
   Bfn.  Coefficient  Atom+Function         Bfn.  Coefficient  Atom+Function  
  ----- ------------  ---------------      ----- ------------  ---------------
   139      0.227513   9 C  s               145      0.218911   9 C  py        
   342      0.195487  21 C  s               172     -0.187179  11 C  s         
   314     -0.159446  19 C  px        

 Vector   39  Occ=2.000000D+00  E=-8.883525D-01
              MO Center=  7.1D-01, -1.5D+00, -2.2D-01, r^2= 1.0D+01
   Bfn.  Coefficient  Atom+Function         Bfn.  Coefficient  Atom+Function  
  ----- ------------  ---------------      ----- ------------  ---------------
   309      0.304895  19 C  s               314      0.274239  19 C  px        
   139      0.234458   9 C  s               670      0.178698  39 C  px        
   145      0.165663   9 C  py              172     -0.162392  11 C  s         

 Vector   40  Occ=2.000000D+00  E=-8.392133D-01
              MO Center= -6.5D-01,  3.9D+00, -1.5D-01, r^2= 5.6D+00
   Bfn.  Coefficient  Atom+Function         Bfn.  Coefficient  Atom+Function  
  ----- ------------  ---------------      ----- ------------  ---------------
   505      0.217683  30 C  s               539     -0.206552  32 C  s         
   630     -0.180098  37 H  s               503     -0.175781  30 C  s         
   528     -0.170929  31 H  s               573     -0.170109  34 C  s         
   605     -0.168652  36 C  s               435     -0.155486  26 H  s         

 Vector   41  Occ=2.000000D+00  E=-8.313993D-01
              MO Center= -8.4D-01, -3.4D+00,  6.2D-02, r^2= 5.7D+00
   Bfn.  Coefficient  Atom+Function         Bfn.  Coefficient  Atom+Function  
  ----- ------------  ---------------      ----- ------------  ---------------
   109      0.306157   7 N  pz              139      0.231913   9 C  s         
   128     -0.209945   8 H  s                54      0.206258   5 C  s         
   309      0.170391  19 C  s                80     -0.159466   6 O  s         
   105     -0.158743   7 N  s         

 Vector   42  Occ=2.000000D+00  E=-8.074588D-01
              MO Center=  3.8D-01, -1.7D+00, -9.0D-02, r^2= 8.8D+00
   Bfn.  Coefficient  Atom+Function         Bfn.  Coefficient  Atom+Function  
  ----- ------------  ---------------      ----- ------------  ---------------
   309      0.249105  19 C  s               279     -0.204920  17 N  pz        
   128      0.191869   8 H  s               109     -0.168251   7 N  pz        
    55     -0.162659   5 C  s         

 Vector   43  Occ=2.000000D+00  E=-8.012141D-01
              MO Center= -8.3D-01,  3.8D+00, -3.4D-01, r^2= 5.9D+00
   Bfn.  Coefficient  Atom+Function         Bfn.  Coefficient  Atom+Function  
  ----- ------------  ---------------      ----- ------------  ---------------
   539      0.399943  32 C  s               573     -0.334205  34 C  s         
   646      0.215525  38 C  py              641      0.210863  38 C  s         
   562     -0.183585  33 H  s               445     -0.172547  27 N  s         
   537     -0.169642  32 C  s               639     -0.162205  38 C  s         
   596      0.156996  35 H  s         

 Vector   44  Occ=2.000000D+00  E=-7.766500D-01
              MO Center=  1.7D+00, -7.7D-01, -2.0D-01, r^2= 4.6D+00
   Bfn.  Coefficient  Atom+Function         Bfn.  Coefficient  Atom+Function  
  ----- ------------  ---------------      ----- ------------  ---------------
   225      0.236012  15 C  s               279     -0.231379  17 N  pz        
   719     -0.224503  41 N  pz              298     -0.221065  18 H  s         
   314     -0.202270  19 C  px              664     -0.187057  39 C  s         
   328     -0.170653  19 C  dxz             275     -0.167058  17 N  s         
   690      0.157420  40 O  s               747      0.157424  43 H  s         

 Vector   45  Occ=2.000000D+00  E=-7.517212D-01
              MO Center=  2.7D-03,  1.1D+00,  1.4D-01, r^2= 1.4D+01
   Bfn.  Coefficient  Atom+Function         Bfn.  Coefficient  Atom+Function  
  ----- ------------  ---------------      ----- ------------  ---------------
   539      0.227649  32 C  s               505     -0.204597  30 C  s         
   145     -0.195658   9 C  py              448      0.166464  27 N  py        
   385      0.163679  24 C  s               445      0.159775  27 N  s         
   649      0.159719  38 C  py              650     -0.152440  38 C  pz        

 Vector   46  Occ=2.000000D+00  E=-7.303458D-01
              MO Center=  1.1D-01,  1.5D-01, -3.1D-01, r^2= 1.6D+01
   Bfn.  Coefficient  Atom+Function         Bfn.  Coefficient  Atom+Function  
  ----- ------------  ---------------      ----- ------------  ---------------
   145      0.214405   9 C  py              225     -0.206114  15 C  s         
   505     -0.203832  30 C  s               139      0.198621   9 C  s         
   649      0.169731  38 C  py              228     -0.163684  15 C  py        
   144      0.150187   9 C  px        

 Vector   47  Occ=2.000000D+00  E=-7.283443D-01
              MO Center=  1.6D+00, -1.0D+00, -3.2D-01, r^2= 6.6D+00
   Bfn.  Coefficient  Atom+Function         Bfn.  Coefficient  Atom+Function  
  ----- ------------  ---------------      ----- ------------  ---------------
   225      0.260768  15 C  s               747     -0.257141  43 H  s         
   719      0.244959  41 N  pz              667      0.203689  39 C  px        
   139     -0.187879   9 C  s               145     -0.182366   9 C  py        
   314     -0.169685  19 C  px              665      0.159646  39 C  s         

 Vector   48  Occ=2.000000D+00  E=-7.108061D-01
              MO Center=  1.3D-01,  2.7D+00,  2.8D-01, r^2= 1.1D+01
   Bfn.  Coefficient  Atom+Function         Bfn.  Coefficient  Atom+Function  
  ----- ------------  ---------------      ----- ------------  ---------------
   468      0.243945  28 H  s               448      0.240239  27 N  py        
   572      0.220032  34 C  s               630     -0.187411  37 H  s         

 Vector   49  Occ=2.000000D+00  E=-7.016848D-01
              MO Center= -1.1D+00, -3.2D+00,  6.6D-01, r^2= 7.0D+00
   Bfn.  Coefficient  Atom+Function         Bfn.  Coefficient  Atom+Function  
  ----- ------------  ---------------      ----- ------------  ---------------
    82     -0.233627   6 O  px               14      0.213992   2 C  px        
    17      0.214992   2 C  px               59      0.195065   5 C  pz        
    80     -0.156632   6 O  s                85     -0.155759   6 O  px        

 Vector   50  Occ=2.000000D+00  E=-6.893260D-01
              MO Center= -3.9D-01, -3.6D+00,  2.5D-01, r^2= 4.9D+00
   Bfn.  Coefficient  Atom+Function         Bfn.  Coefficient  Atom+Function  
  ----- ------------  ---------------      ----- ------------  ---------------
   141      0.211596   9 C  px               80      0.193784   6 O  s         
   162      0.192686  10 H  s                82      0.190673   6 O  px        
   144      0.190082   9 C  px              107     -0.168393   7 N  px        
    84      0.162447   6 O  pz               12     -0.156913   2 C  s         

 Vector   51  Occ=2.000000D+00  E=-6.761498D-01
              MO Center=  1.5D+00,  2.9D-01,  1.2D-01, r^2= 8.5D+00
   Bfn.  Coefficient  Atom+Function         Bfn.  Coefficient  Atom+Function  
  ----- ------------  ---------------      ----- ------------  ---------------
   717      0.249231  41 N  px              738      0.215111  42 H  s         
   309      0.181036  19 C  s               314      0.177118  19 C  px        
   669      0.170914  39 C  pz              692     -0.166100  40 O  px        
   690     -0.164618  40 O  s               539     -0.161045  32 C  s         

 Vector   52  Occ=2.000000D+00  E=-6.637003D-01
              MO Center=  7.0D-01, -1.3D-01, -1.9D-01, r^2= 1.2D+01
   Bfn.  Coefficient  Atom+Function         Bfn.  Coefficient  Atom+Function  
  ----- ------------  ---------------      ----- ------------  ---------------
   278      0.205793  17 N  py              312     -0.189701  19 C  py        
   229     -0.179402  15 C  pz              250     -0.178018  16 O  s         
   254      0.175069  16 O  pz              315     -0.166012  19 C  py        
   572     -0.165953  34 C  s         

 Vector   53  Occ=2.000000D+00  E=-6.605266D-01
              MO Center=  1.6D-01,  1.8D+00, -3.6D-02, r^2= 1.3D+01
   Bfn.  Coefficient  Atom+Function         Bfn.  Coefficient  Atom+Function  
  ----- ------------  ---------------      ----- ------------  ---------------
   539      0.244271  32 C  s               572      0.191934  34 C  s         
   573     -0.179804  34 C  s               649      0.176977  38 C  py        
   646     -0.164584  38 C  py              505     -0.155712  30 C  s         
   309     -0.154221  19 C  s               434     -0.151289  26 H  s         

 Vector   54  Occ=2.000000D+00  E=-6.407145D-01
              MO Center= -1.1D+00,  3.8D+00, -6.7D-01, r^2= 7.6D+00
   Bfn.  Coefficient  Atom+Function         Bfn.  Coefficient  Atom+Function  
  ----- ------------  ---------------      ----- ------------  ---------------
   573      0.341982  34 C  s               595     -0.229612  35 H  s         
   641     -0.213043  38 C  s               596     -0.207384  35 H  s         
   576      0.196466  34 C  pz              538      0.191537  32 C  s         
   574      0.182994  34 C  px              434     -0.158215  26 H  s         
   542      0.158709  32 C  pz        

 Vector   55  Occ=2.000000D+00  E=-6.340983D-01
              MO Center= -2.0D+00, -3.5D+00,  8.1D-01, r^2= 5.7D+00
   Bfn.  Coefficient  Atom+Function         Bfn.  Coefficient  Atom+Function  
  ----- ------------  ---------------      ----- ------------  ---------------
   139      0.312154   9 C  s                15      0.281618   2 C  py        
     1     -0.221060   1 H  s                44      0.217055   4 H  s         
    83      0.186964   6 O  py               58      0.185259   5 C  py        
   225     -0.153677  15 C  s         

 Vector   56  Occ=2.000000D+00  E=-6.131332D-01
              MO Center=  5.1D-01, -2.4D+00, -8.4D-01, r^2= 7.3D+00
   Bfn.  Coefficient  Atom+Function         Bfn.  Coefficient  Atom+Function  
  ----- ------------  ---------------      ----- ------------  ---------------
   254      0.307397  16 O  pz              145     -0.212196   9 C  py        
   229     -0.209087  15 C  pz              139     -0.197421   9 C  s         
   257      0.169898  16 O  pz              250     -0.162885  16 O  s         
   298      0.162389  18 H  s               160      0.157326   9 C  dyz       
   299      0.154167  18 H  s         

 Vector   57  Occ=2.000000D+00  E=-6.043088D-01
              MO Center= -6.7D-01, -3.1D+00,  5.9D-01, r^2= 7.5D+00
   Bfn.  Coefficient  Atom+Function         Bfn.  Coefficient  Atom+Function  
  ----- ------------  ---------------      ----- ------------  ---------------
    84     -0.280344   6 O  pz               57      0.262213   5 C  px        
    14     -0.196108   2 C  px              309      0.173410  19 C  s         
    80     -0.164126   6 O  s               128      0.159331   8 H  s         
    17     -0.158082   2 C  px               87     -0.157868   6 O  pz        
   144      0.154140   9 C  px        

 Vector   58  Occ=2.000000D+00  E=-6.019255D-01
              MO Center=  2.3D-01,  2.3D+00,  1.4D-01, r^2= 1.1D+01
   Bfn.  Coefficient  Atom+Function         Bfn.  Coefficient  Atom+Function  
  ----- ------------  ---------------      ----- ------------  ---------------
   507      0.213106  30 C  py              630     -0.190831  37 H  s         
   505     -0.187497  30 C  s               694      0.184080  40 O  pz        
   482     -0.175508  29 C  py              528      0.173676  31 H  s         
   609      0.173418  36 C  py              669     -0.169060  39 C  pz        
   527      0.167410  31 H  s               485     -0.161240  29 C  py        

 Vector   59  Occ=2.000000D+00  E=-5.908881D-01
              MO Center= -3.4D-01, -9.0D-01,  5.7D-01, r^2= 1.7D+01
   Bfn.  Coefficient  Atom+Function         Bfn.  Coefficient  Atom+Function  
  ----- ------------  ---------------      ----- ------------  ---------------
   694      0.195247  40 O  pz               36      0.193567   3 H  s         
    16      0.184740   2 C  pz               84      0.177106   6 O  pz        
    35      0.162999   3 H  s               309      0.154704  19 C  s         

 Vector   60  Occ=2.000000D+00  E=-5.864888D-01
              MO Center= -1.0D+00, -2.3D+00,  5.5D-01, r^2= 1.6D+01
   Bfn.  Coefficient  Atom+Function         Bfn.  Coefficient  Atom+Function  
  ----- ------------  ---------------      ----- ------------  ---------------
    16      0.289114   2 C  pz               35      0.266002   3 H  s         
    36      0.219615   3 H  s               175      0.178571  11 C  px        
   205      0.165794  13 H  s               694     -0.160144  40 O  pz        
   206      0.156110  13 H  s         

 Vector   61  Occ=2.000000D+00  E=-5.839311D-01
              MO Center= -9.7D-01,  3.8D+00, -5.0D-01, r^2= 5.4D+00
   Bfn.  Coefficient  Atom+Function         Bfn.  Coefficient  Atom+Function  
  ----- ------------  ---------------      ----- ------------  ---------------
   641      0.281820  38 C  s               527      0.183930  31 H  s         
   528      0.178886  31 H  s               541     -0.178696  32 C  py        
   412     -0.177421  25 C  s               629     -0.170799  37 H  s         
   505     -0.163752  30 C  s               507      0.163428  30 C  py        
   630     -0.162004  37 H  s               575      0.161171  34 C  py        

 Vector   62  Occ=2.000000D+00  E=-5.767082D-01
              MO Center=  3.4D-01,  3.1D+00,  6.7D-01, r^2= 6.3D+00
   Bfn.  Coefficient  Atom+Function         Bfn.  Coefficient  Atom+Function  
  ----- ------------  ---------------      ----- ------------  ---------------
   447      0.234819  27 N  px              449     -0.231688  27 N  pz        
   452     -0.201533  27 N  pz              450      0.198916  27 N  px        
   318     -0.169681  19 C  py              309     -0.152242  19 C  s         
   483     -0.151261  29 C  pz              481      0.150249  29 C  px        

 Vector   63  Occ=2.000000D+00  E=-5.706700D-01
              MO Center=  1.8D-01,  4.1D-01,  1.6D-02, r^2= 1.4D+01
   Bfn.  Coefficient  Atom+Function         Bfn.  Coefficient  Atom+Function  
  ----- ------------  ---------------      ----- ------------  ---------------
   434      0.180329  26 H  s               413      0.155708  25 C  px        
   435      0.152858  26 H  s               174      0.151488  11 C  s         

 Vector   64  Occ=2.000000D+00  E=-5.613349D-01
              MO Center=  2.6D-01, -3.0D+00, -4.7D-01, r^2= 1.2D+01
   Bfn.  Coefficient  Atom+Function         Bfn.  Coefficient  Atom+Function  
  ----- ------------  ---------------      ----- ------------  ---------------
   176      0.294151  11 C  py              214     -0.254157  14 H  s         
   215     -0.205451  14 H  s               142     -0.151284   9 C  py        
   333     -0.150125  20 H  s         

 Vector   65  Occ=2.000000D+00  E=-5.572692D-01
              MO Center=  1.2D-01, -1.7D+00, -3.4D-01, r^2= 1.6D+01
   Bfn.  Coefficient  Atom+Function         Bfn.  Coefficient  Atom+Function  
  ----- ------------  ---------------      ----- ------------  ---------------
   206      0.264700  13 H  s               139      0.241002   9 C  s         
   175      0.233256  11 C  px              205      0.189045  13 H  s         
   225     -0.176151  15 C  s               226      0.171224  15 C  s         
   196     -0.169359  12 H  s               231      0.157460  15 C  py        

 Vector   66  Occ=2.000000D+00  E=-5.478282D-01
              MO Center= -9.0D-02, -1.9D+00, -3.7D-01, r^2= 1.4D+01
   Bfn.  Coefficient  Atom+Function         Bfn.  Coefficient  Atom+Function  
  ----- ------------  ---------------      ----- ------------  ---------------
   309      0.203865  19 C  s               227      0.184221  15 C  px        
   252      0.175908  16 O  px              254      0.175957  16 O  pz        
   206      0.150087  13 H  s         

 Vector   67  Occ=2.000000D+00  E=-5.453809D-01
              MO Center= -6.0D-01, -2.3D+00,  1.2D-01, r^2= 1.5D+01
   Bfn.  Coefficient  Atom+Function         Bfn.  Coefficient  Atom+Function  
  ----- ------------  ---------------      ----- ------------  ---------------
    83      0.170411   6 O  py               44     -0.164939   4 H  s         
    16      0.162334   2 C  pz              205     -0.161869  13 H  s         
   177      0.155059  11 C  pz        

 Vector   68  Occ=2.000000D+00  E=-5.423671D-01
              MO Center=  6.3D-01, -3.7D-01,  2.1D-01, r^2= 1.3D+01
   Bfn.  Coefficient  Atom+Function         Bfn.  Coefficient  Atom+Function  
  ----- ------------  ---------------      ----- ------------  ---------------
   693      0.194004  40 O  py              718      0.178526  41 N  py        
   668      0.175474  39 C  py        

 Vector   69  Occ=2.000000D+00  E=-5.339460D-01
              MO Center=  1.2D-01,  1.1D-01, -2.5D-01, r^2= 1.5D+01
   Bfn.  Coefficient  Atom+Function         Bfn.  Coefficient  Atom+Function  
  ----- ------------  ---------------      ----- ------------  ---------------
   539      0.212252  32 C  s               346     -0.182827  21 C  py        
   349     -0.172405  21 C  py              562     -0.167685  33 H  s         
   275     -0.165973  17 N  s               176      0.159132  11 C  py        

 Vector   70  Occ=2.000000D+00  E=-5.276347D-01
              MO Center=  2.8D-01,  1.7D-01,  9.5D-02, r^2= 1.2D+01
   Bfn.  Coefficient  Atom+Function         Bfn.  Coefficient  Atom+Function  
  ----- ------------  ---------------      ----- ------------  ---------------
   345      0.232545  21 C  px              366     -0.221651  22 H  s         
   367     -0.185176  22 H  s         

 Vector   71  Occ=2.000000D+00  E=-5.218189D-01
              MO Center=  7.9D-02, -2.5D+00, -6.3D-01, r^2= 1.1D+01
   Bfn.  Coefficient  Atom+Function         Bfn.  Coefficient  Atom+Function  
  ----- ------------  ---------------      ----- ------------  ---------------
   174      0.276727  11 C  s               143      0.272449   9 C  pz        
   177     -0.249898  11 C  pz              180     -0.237706  11 C  pz        
   162      0.234604  10 H  s               173     -0.203813  11 C  s         
   196      0.201394  12 H  s               179     -0.187755  11 C  py        
   215     -0.158723  14 H  s         

 Vector   72  Occ=2.000000D+00  E=-5.138288D-01
              MO Center= -2.4D-01,  1.4D+00, -3.4D-01, r^2= 1.2D+01
   Bfn.  Coefficient  Atom+Function         Bfn.  Coefficient  Atom+Function  
  ----- ------------  ---------------      ----- ------------  ---------------
   313      0.244847  19 C  pz              332     -0.214583  20 H  s         
   596     -0.200840  35 H  s               347     -0.198419  21 C  pz        
   309     -0.190000  19 C  s               573      0.188799  34 C  s         
   562      0.182152  33 H  s               343      0.175223  21 C  s         
   349     -0.170840  21 C  py              350     -0.164934  21 C  pz        

 Vector   73  Occ=2.000000D+00  E=-4.911276D-01
              MO Center= -6.8D-01,  2.4D+00, -9.1D-02, r^2= 7.5D+00
   Bfn.  Coefficient  Atom+Function         Bfn.  Coefficient  Atom+Function  
  ----- ------------  ---------------      ----- ------------  ---------------
   596     -0.282503  35 H  s               573      0.276099  34 C  s         
   376      0.224842  23 H  s               367     -0.217654  22 H  s         
   595     -0.196101  35 H  s               630      0.183138  37 H  s         
   375      0.175266  23 H  s               642      0.171255  38 C  px        
   347      0.165233  21 C  pz              317      0.161779  19 C  px        

 Vector   74  Occ=2.000000D+00  E=-4.701982D-01
              MO Center= -6.3D-01,  2.9D+00, -9.6D-02, r^2= 7.5D+00
   Bfn.  Coefficient  Atom+Function         Bfn.  Coefficient  Atom+Function  
  ----- ------------  ---------------      ----- ------------  ---------------
   630      0.283535  37 H  s               643      0.273120  38 C  py        
   482     -0.249299  29 C  py              528      0.237068  31 H  s         
   646      0.192455  38 C  py              575      0.188704  34 C  py        
   376     -0.185496  23 H  s               507      0.174285  30 C  py        
   609     -0.173260  36 C  py              629      0.174042  37 H  s         

 Vector   75  Occ=2.000000D+00  E=-4.590227D-01
              MO Center= -7.1D-02, -2.6D+00, -1.9D-01, r^2= 7.2D+00
   Bfn.  Coefficient  Atom+Function         Bfn.  Coefficient  Atom+Function  
  ----- ------------  ---------------      ----- ------------  ---------------
   253      0.367167  16 O  py              256      0.297858  16 O  py        
    83     -0.260771   6 O  py              139      0.204825   9 C  s         
    86     -0.201213   6 O  py               82      0.195366   6 O  px        
   108      0.194823   7 N  py              111      0.179019   7 N  py        
    85      0.152679   6 O  px              275     -0.151817  17 N  s         

 Vector   76  Occ=2.000000D+00  E=-4.568213D-01
              MO Center= -1.0D+00,  3.9D+00, -5.4D-01, r^2= 4.9D+00
   Bfn.  Coefficient  Atom+Function         Bfn.  Coefficient  Atom+Function  
  ----- ------------  ---------------      ----- ------------  ---------------
   574     -0.174171  34 C  px              576      0.173438  34 C  pz        
   449     -0.168523  27 N  pz              540     -0.166699  32 C  px        
   447      0.163260  27 N  px              542      0.163596  32 C  pz        

 Vector   77  Occ=2.000000D+00  E=-4.426128D-01
              MO Center= -1.1D+00, -3.3D+00,  1.2D+00, r^2= 3.7D+00
   Bfn.  Coefficient  Atom+Function         Bfn.  Coefficient  Atom+Function  
  ----- ------------  ---------------      ----- ------------  ---------------
    82      0.404106   6 O  px               85      0.321590   6 O  px        
    84     -0.306115   6 O  pz               87     -0.259516   6 O  pz        
    17      0.211203   2 C  px               14      0.209675   2 C  px        
   225      0.199114  15 C  s               105     -0.191318   7 N  s         
   276     -0.176653  17 N  s                13     -0.164052   2 C  s         

 Vector   78  Occ=2.000000D+00  E=-4.337613D-01
              MO Center=  1.8D+00, -6.9D-01,  2.0D-01, r^2= 5.7D+00
   Bfn.  Coefficient  Atom+Function         Bfn.  Coefficient  Atom+Function  
  ----- ------------  ---------------      ----- ------------  ---------------
   692      0.381470  40 O  px              695      0.306620  40 O  px        
   252     -0.242127  16 O  px              277      0.224750  17 N  px        
   280      0.223129  17 N  px              694     -0.196623  40 O  pz        
   255     -0.187816  16 O  px              684     -0.188464  39 C  dxz       
    56      0.177393   5 C  s               367      0.161640  22 H  s         

 Vector   79  Occ=2.000000D+00  E=-4.078697D-01
              MO Center= -1.4D-01, -3.1D+00, -3.1D-01, r^2= 5.0D+00
   Bfn.  Coefficient  Atom+Function         Bfn.  Coefficient  Atom+Function  
  ----- ------------  ---------------      ----- ------------  ---------------
   108      0.339932   7 N  py              111      0.314068   7 N  py        
   253     -0.303396  16 O  py              145     -0.240456   9 C  py        
   256     -0.240490  16 O  py               83     -0.220047   6 O  py        
   142     -0.186711   9 C  py               86     -0.177020   6 O  py        
   228      0.157408  15 C  py        

 Vector   80  Occ=2.000000D+00  E=-3.963344D-01
              MO Center=  2.9D+00,  1.8D-03, -1.9D-02, r^2= 2.5D+00
   Bfn.  Coefficient  Atom+Function         Bfn.  Coefficient  Atom+Function  
  ----- ------------  ---------------      ----- ------------  ---------------
   718      0.404260  41 N  py              693     -0.345767  40 O  py        
   721      0.346127  41 N  py              696     -0.274572  40 O  py        
   284      0.176832  17 N  py              694      0.177585  40 O  pz        
   719     -0.172012  41 N  pz              722     -0.160497  41 N  pz        

 Vector   81  Occ=2.000000D+00  E=-3.885974D-01
              MO Center=  1.2D+00, -3.3D-01,  2.7D-02, r^2= 6.6D+00
   Bfn.  Coefficient  Atom+Function         Bfn.  Coefficient  Atom+Function  
  ----- ------------  ---------------      ----- ------------  ---------------
   277      0.320600  17 N  px              692     -0.297098  40 O  px        
   280      0.295523  17 N  px              695     -0.232373  40 O  px        
   252     -0.213610  16 O  px              367     -0.185228  22 H  s         
   665     -0.175038  39 C  s               255     -0.170646  16 O  px        
   311     -0.150269  19 C  px        

 Vector   82  Occ=2.000000D+00  E=-3.681326D-01
              MO Center= -1.7D-01,  2.8D+00,  1.1D-01, r^2= 7.0D+00
   Bfn.  Coefficient  Atom+Function         Bfn.  Coefficient  Atom+Function  
  ----- ------------  ---------------      ----- ------------  ---------------
   309      0.333860  19 C  s               315      0.203028  19 C  py        
   388     -0.170340  24 C  px              390      0.164478  24 C  pz        
   642     -0.156628  38 C  px              506      0.153500  30 C  px        
   644      0.152283  38 C  pz        

 Vector   83  Occ=2.000000D+00  E=-2.944135D-01
              MO Center= -8.8D-01,  3.9D+00, -3.6D-01, r^2= 4.2D+00
   Bfn.  Coefficient  Atom+Function         Bfn.  Coefficient  Atom+Function  
  ----- ------------  ---------------      ----- ------------  ---------------
   574     -0.212002  34 C  px              576      0.205818  34 C  pz        
   481      0.192899  29 C  px              483     -0.189334  29 C  pz        
   577     -0.166337  34 C  px              642      0.164561  38 C  px        
   579      0.163693  34 C  pz              644     -0.158088  38 C  pz        

 Vector   84  Occ=2.000000D+00  E=-2.757802D-01
              MO Center= -4.0D-01,  3.4D+00,  2.0D-01, r^2= 5.5D+00
   Bfn.  Coefficient  Atom+Function         Bfn.  Coefficient  Atom+Function  
  ----- ------------  ---------------      ----- ------------  ---------------
   309      0.219944  19 C  s               388     -0.199613  24 C  px        
   390      0.194881  24 C  pz              391     -0.174226  24 C  px        
   415      0.169559  25 C  pz              413     -0.166503  25 C  px        
   608      0.165510  36 C  px              610     -0.160741  36 C  pz        
   393      0.159149  24 C  pz        

 Vector   85  Occ=0.000000D+00  E= 2.164345D-02
              MO Center= -3.2D+00, -5.1D+00, -8.5D-01, r^2= 1.9D+01
   Bfn.  Coefficient  Atom+Function         Bfn.  Coefficient  Atom+Function  
  ----- ------------  ---------------      ----- ------------  ---------------
   234      3.184216  15 C  py              226     -2.641425  15 C  s         
    63      2.292167   5 C  px              106      2.302743   7 N  s         
   147      2.190110   9 C  px              140     -1.791003   9 C  s         
    12     -1.740228   2 C  s               216      1.697038  14 H  s         
     3      1.636397   1 H  s                46      1.387009   4 H  s         

 Vector   86  Occ=0.000000D+00  E= 3.505787D-02
              MO Center= -1.9D+00, -9.7D-01, -1.2D+00, r^2= 5.1D+01
   Bfn.  Coefficient  Atom+Function         Bfn.  Coefficient  Atom+Function  
  ----- ------------  ---------------      ----- ------------  ---------------
   649      5.104683  38 C  py              650     -4.825467  38 C  pz        
[...]
  ----- ------------  ---------------      ----- ------------  ---------------
   573     20.117301  34 C  s               641    -16.293181  38 C  s         
   174     15.785690  11 C  s               226    -12.247101  15 C  s         
   412     12.005558  25 C  s               505    -10.930336  30 C  s         
   173      9.916242  11 C  s               106      8.777190   7 N  s         
   489     -7.473576  29 C  pz              215     -7.407116  14 H  s         

 Vector  217  Occ=0.000000D+00  E= 4.547679D-01
              MO Center= -3.2D-01, -1.2D+00, -1.5D-01, r^2= 2.5D+01
   Bfn.  Coefficient  Atom+Function         Bfn.  Coefficient  Atom+Function  
  ----- ------------  ---------------      ----- ------------  ---------------
   318     19.477479  19 C  py              446     14.256524  27 N  s         
   396     13.482600  24 C  pz              387    -12.891947  24 C  s         
   412    -12.815064  25 C  s               106     12.234506   7 N  s         
   147     10.738138   9 C  px              310      9.260463  19 C  s         
   666      9.265833  39 C  s               344     -9.027216  21 C  s         

 Vector  218  Occ=0.000000D+00  E= 4.585196D-01
              MO Center= -4.7D-01, -2.3D-01, -3.4D-01, r^2= 2.6D+01
   Bfn.  Coefficient  Atom+Function         Bfn.  Coefficient  Atom+Function  
  ----- ------------  ---------------      ----- ------------  ---------------
   174     16.540031  11 C  s               716    -13.894654  41 N  s         
   387    -10.341266  24 C  s                12      9.181302   2 C  s         
   234      8.768741  15 C  py              140     -8.161087   9 C  s         
    13      7.840623   2 C  s                45     -7.331933   4 H  s         
   226     -7.316253  15 C  s               318      7.087146  19 C  py        

 Vector  219  Occ=0.000000D+00  E= 4.634289D-01
              MO Center= -6.5D-01,  4.8D-01, -3.7D-01, r^2= 2.9D+01
   Bfn.  Coefficient  Atom+Function         Bfn.  Coefficient  Atom+Function  
  ----- ------------  ---------------      ----- ------------  ---------------
   226     17.153889  15 C  s               276    -15.878663  17 N  s         
   666     11.530507  39 C  s               140      8.889279   9 C  s         
   446      8.834045  27 N  s               716     -8.195871  41 N  s         
   505     -7.654581  30 C  s                13     -6.619425   2 C  s         
   310      6.040273  19 C  s               614     -5.230007  36 C  px        

 Vector  220  Occ=0.000000D+00  E= 4.661372D-01
              MO Center= -2.4D-01, -5.7D-01, -1.8D-01, r^2= 2.6D+01
   Bfn.  Coefficient  Atom+Function         Bfn.  Coefficient  Atom+Function  
  ----- ------------  ---------------      ----- ------------  ---------------
   226     19.955930  15 C  s               174    -16.686351  11 C  s         
   140     12.456847   9 C  s               148     -9.708783   9 C  py        
   317     -9.698292  19 C  px              387     -8.298826  24 C  s         
   649     -8.193411  38 C  py              318      8.044759  19 C  py        
    13     -7.977782   2 C  s               573     -7.998767  34 C  s         

 Vector  221  Occ=0.000000D+00  E= 4.683743D-01
              MO Center=  5.8D-01, -2.8D-01,  7.6D-02, r^2= 2.6D+01
   Bfn.  Coefficient  Atom+Function         Bfn.  Coefficient  Atom+Function  
  ----- ------------  ---------------      ----- ------------  ---------------
   649     21.655647  38 C  py              395    -16.400682  24 C  py        
   319     15.765813  19 C  pz              573    -15.606524  34 C  s         
   234     14.472216  15 C  py              716    -14.420648  41 N  s         
   344     13.427309  21 C  s               147     13.310633   9 C  px        
   353    -13.093861  21 C  pz              487     12.219979  29 C  px        

 Vector  222  Occ=0.000000D+00  E= 4.700169D-01
              MO Center= -3.5D-01,  5.9D-02, -4.6D-01, r^2= 3.1D+01
   Bfn.  Coefficient  Atom+Function         Bfn.  Coefficient  Atom+Function  
  ----- ------------  ---------------      ----- ------------  ---------------
   174     18.073764  11 C  s               666     11.053149  39 C  s         
   716    -10.952885  41 N  s               276    -10.571720  17 N  s         
   234      7.533425  15 C  py              352      7.172851  21 C  py        
   310      6.502673  19 C  s               173      6.401510  11 C  s         
    56     -6.011523   5 C  s               387     -6.025200  24 C  s         

 Vector  223  Occ=0.000000D+00  E= 4.713772D-01
              MO Center=  7.5D-03,  1.8D+00,  3.9D-01, r^2= 2.6D+01
   Bfn.  Coefficient  Atom+Function         Bfn.  Coefficient  Atom+Function  
  ----- ------------  ---------------      ----- ------------  ---------------
   539     17.838374  32 C  s               650    -12.213818  38 C  pz        
   573    -11.136814  34 C  s               505    -10.718752  30 C  s         
   641     10.173328  38 C  s               489     10.005649  29 C  pz        
   487      9.762464  29 C  px              649      9.562108  38 C  py        
   454     -9.441500  27 N  py              648     -7.467967  38 C  px        

 Vector  224  Occ=0.000000D+00  E= 4.806896D-01
              MO Center= -2.4D-01, -1.6D+00, -1.0D+00, r^2= 2.8D+01
   Bfn.  Coefficient  Atom+Function         Bfn.  Coefficient  Atom+Function  
  ----- ------------  ---------------      ----- ------------  ---------------
   174     16.176588  11 C  s               197    -10.146275  12 H  s         
   226     -9.410558  15 C  s               352     -8.855973  21 C  py        
   573      8.705649  34 C  s               319     -7.663537  19 C  pz        
   650      7.306929  38 C  pz              649     -7.117920  38 C  py        
   300     -6.713198  18 H  s               648      6.245234  38 C  px        

 Vector  225  Occ=0.000000D+00  E= 4.820669D-01
              MO Center= -2.6D-01, -9.4D-01,  2.3D-01, r^2= 2.4D+01
   Bfn.  Coefficient  Atom+Function         Bfn.  Coefficient  Atom+Function  
  ----- ------------  ---------------      ----- ------------  ---------------
   106     14.253205   7 N  s               234     11.963833  15 C  py        
   226    -10.398182  15 C  s               412     -9.066084  25 C  s         
   641      8.865608  38 C  s               300      8.666592  18 H  s         
    12      8.347294   2 C  s               505      7.562090  30 C  s         
   607      6.628633  36 C  s               344     -6.543776  21 C  s         

 Vector  226  Occ=0.000000D+00  E= 4.851904D-01
              MO Center=  4.1D-01, -3.6D-01, -1.8D-02, r^2= 2.5D+01
   Bfn.  Coefficient  Atom+Function         Bfn.  Coefficient  Atom+Function  
  ----- ------------  ---------------      ----- ------------  ---------------
   446     15.879150  27 N  s               412    -15.139989  25 C  s         
   226     14.143599  15 C  s               641     12.678621  38 C  s         
   666     11.319940  39 C  s               387    -10.846650  24 C  s         
   505    -10.857520  30 C  s               480    -10.424089  29 C  s         
   344    -10.195925  21 C  s               367      8.500400  22 H  s         

 Vector  227  Occ=0.000000D+00  E= 4.890865D-01
              MO Center=  2.9D-01,  5.6D-02, -9.6D-02, r^2= 2.7D+01
   Bfn.  Coefficient  Atom+Function         Bfn.  Coefficient  Atom+Function  
  ----- ------------  ---------------      ----- ------------  ---------------
   396     10.035775  24 C  pz              641      9.697557  38 C  s         
    12      8.410177   2 C  s               174      7.955677  11 C  s         
   480     -7.598415  29 C  s               649     -7.226388  38 C  py        
   394      6.946561  24 C  px              226     -6.887781  15 C  s         
   716     -6.843119  41 N  s               505     -6.715110  30 C  s         

 Vector  228  Occ=0.000000D+00  E= 4.925786D-01
              MO Center=  6.7D-02,  7.1D-01, -5.7D-01, r^2= 2.6D+01
   Bfn.  Coefficient  Atom+Function         Bfn.  Coefficient  Atom+Function  
  ----- ------------  ---------------      ----- ------------  ---------------
   226     11.000285  15 C  s               505     -8.554005  30 C  s         
    13     -7.182330   2 C  s               140      7.148999   9 C  s         
   539      6.915824  32 C  s               113     -6.742215   7 N  px        
   234     -6.497967  15 C  py              480     -6.457536  29 C  s         
   174     -6.111687  11 C  s               420      6.017771  25 C  py        

 Vector  229  Occ=0.000000D+00  E= 4.953467D-01
              MO Center=  4.7D-01, -5.8D-01, -1.9D-01, r^2= 2.4D+01
   Bfn.  Coefficient  Atom+Function         Bfn.  Coefficient  Atom+Function  
  ----- ------------  ---------------      ----- ------------  ---------------
   318     12.094100  19 C  py              276     11.989515  17 N  s         
   319     11.885911  19 C  pz              573    -10.701358  34 C  s         
   446      9.351333  27 N  s               480     -8.365065  29 C  s         
   641      8.050788  38 C  s               310      7.679261  19 C  s         
   539      7.405215  32 C  s               505     -6.571143  30 C  s         

 Vector  230  Occ=0.000000D+00  E= 4.974985D-01
              MO Center=  2.8D-02, -1.1D-01, -1.1D-01, r^2= 2.3D+01
   Bfn.  Coefficient  Atom+Function         Bfn.  Coefficient  Atom+Function  
  ----- ------------  ---------------      ----- ------------  ---------------
   716     -8.006104  41 N  s               174      7.755284  11 C  s         
   675     -6.065111  39 C  pz              276     -5.687948  17 N  s         
   368      5.400430  22 H  s               505      4.995924  30 C  s         
   649      4.876512  38 C  py              641     -4.749566  38 C  s         
    56     -4.627083   5 C  s               300      4.397916  18 H  s         

 Vector  231  Occ=0.000000D+00  E= 4.980158D-01
              MO Center= -1.5D-01, -6.8D-02,  1.6D-01, r^2= 2.3D+01
   Bfn.  Coefficient  Atom+Function         Bfn.  Coefficient  Atom+Function  
  ----- ------------  ---------------      ----- ------------  ---------------
    56     15.848913   5 C  s               344     15.603717  21 C  s         
   649     14.481124  38 C  py              641    -13.269408  38 C  s         
   319    -11.695258  19 C  pz              395    -11.151605  24 C  py        
   412     11.160993  25 C  s               317     11.080755  19 C  px        
   396    -10.475294  24 C  pz              650     -9.363553  38 C  pz        

 Vector  232  Occ=0.000000D+00  E= 5.021820D-01
              MO Center= -5.6D-01, -1.3D+00,  2.4D-01, r^2= 2.6D+01
   Bfn.  Coefficient  Atom+Function         Bfn.  Coefficient  Atom+Function  
  ----- ------------  ---------------      ----- ------------  ---------------
   412     11.154250  25 C  s                13     10.954575   2 C  s         
   226    -10.263687  15 C  s               505    -10.247965  30 C  s         
   539      9.300183  32 C  s               140     -9.224217   9 C  s         
   650     -8.665346  38 C  pz              387      8.568569  24 C  s         
   420      8.340855  25 C  py              607     -8.255308  36 C  s         


 center of mass
 --------------
 x =   0.04738790 y =   0.07617175 z =   0.02350182

 moments of inertia (a.u.)
 ------------------
       13578.039941099798           0.000000000001           0.000000000001
           0.000000000001        4485.052601286834           0.000000000000
           0.000000000001           0.000000000000       14900.750136638762

  Mulliken analysis of the total density
  --------------------------------------

    Atom       Charge   Shell Charges
 -----------   ------   -------------------------------------------------------
    1 H    1     0.87   0.76  0.12  0.00  0.03 -0.05
    2 C    6     6.24   2.01  0.66  0.24  0.07  2.07  1.03  0.00  0.06  0.10
    3 H    1     0.96   0.76  0.21  0.01  0.03 -0.05
    4 H    1     0.86   0.76  0.13  0.00  0.03 -0.06
    5 C    6     5.14   2.01  0.68  0.07 -0.04  1.89  0.33 -0.05  0.24  0.00
    6 O    8     8.77   2.01  0.82  1.00  0.16  2.80  1.86  0.13  0.02 -0.01
    7 N    7     7.55   2.01  0.72  0.81 -0.09  2.45  1.44  0.11  0.05  0.04
    8 H    1     0.97   0.77  0.21 -0.02  0.05 -0.04
    9 C    6     6.69   2.01  0.66  0.09 -0.02  1.99  1.69 -0.10  0.14  0.23
   10 H    1     1.00   0.78  0.16  0.01  0.03  0.01
   11 C    6     5.68   2.01  0.66  0.18  0.25  2.04  0.49 -0.03  0.07 -0.00
   12 H    1     0.91   0.77  0.16  0.02  0.03 -0.07
   13 H    1     0.97   0.77  0.25  0.00  0.03 -0.08
   14 H    1     0.96   0.77  0.23  0.01  0.03 -0.09
   15 C    6     4.53   2.01  0.68 -0.05  0.01  1.88  0.08  0.10  0.23 -0.41
   16 O    8     8.82   2.01  0.82  1.02  0.16  2.79  1.87  0.15  0.01 -0.01
   17 N    7     7.57   2.01  0.72  0.92 -0.14  2.45  1.45  0.07  0.05  0.04
   18 H    1     0.92   0.73  0.29 -0.03  0.06 -0.13
   19 C    6     6.59   2.01  0.66  0.10  0.02  2.00  1.26  0.35  0.14  0.05
   20 H    1     1.07   0.79  0.27 -0.04  0.03  0.03
   21 C    6     5.45   2.01  0.66 -0.01 -0.03  2.05  0.71 -0.06  0.10  0.02
   22 H    1     0.97   0.79  0.27 -0.03  0.03 -0.09
   23 H    1     1.08   0.78  0.32  0.01  0.03 -0.06
   24 C    6     6.39   2.01  0.65  0.16 -0.23  2.05  1.03  0.39  0.12  0.22
   25 C    6     4.66   2.01  0.67 -0.03 -0.18  1.98  0.29  0.02  0.12 -0.21
   26 H    1     1.37   0.76  0.59 -0.01  0.03 -0.01
   27 N    7     8.19   2.01  0.72  1.18  0.04  2.44  1.52  0.04  0.06  0.18
   28 H    1     1.05   0.77  0.23 -0.00  0.05 -0.01
   29 C    6     5.50   2.01  0.66  0.16 -0.15  2.00  0.47  0.22  0.15 -0.03
   30 C    6     5.25   2.01  0.65  0.22 -0.44  2.02  0.70  0.18  0.09 -0.16
   31 H    1     1.51   0.78  0.70 -0.01  0.03 -0.00
   32 C    6     5.54   2.01  0.66  0.13 -0.33  2.00  0.84  0.36  0.09 -0.22
   33 H    1     1.56   0.78  0.73 -0.00  0.03  0.02
   34 C    6     5.12   2.01  0.66  0.13 -0.55  2.01  0.79  0.26  0.09 -0.27
   35 H    1     1.57   0.78  0.76 -0.03  0.03  0.03
   36 C    6     5.20   2.01  0.66  0.09 -0.34  2.00  0.78  0.13  0.09 -0.22
   37 H    1     1.71   0.79  0.84  0.05  0.03  0.01
   38 C    6     6.34   2.01  0.66  0.27 -0.31  2.02  1.29  0.23  0.12  0.05
   39 C    6     4.43   2.01  0.68 -0.02  0.08  1.89 -0.17 -0.06  0.24 -0.21
   40 O    8     8.82   2.01  0.82  1.03  0.16  2.79  1.85  0.15  0.01 -0.00
   41 N    7     7.31   2.01  0.72  0.85 -0.12  2.46  1.26  0.10  0.04 -0.01
   42 H    1     1.01   0.76  0.23 -0.00  0.05 -0.03
   43 H    1     0.90   0.73  0.18 -0.00  0.06 -0.07

       Multipole analysis of the density wrt the origin
       ------------------------------------------------

     L   x y z        total         open         nuclear
     -   - - -        -----         ----         -------
     0   0 0 0     -0.000000      0.000000    168.000000

     1   1 0 0     -1.158749      0.000000     -0.000000
     1   0 1 0     -1.433218      0.000000     -0.000000
     1   0 0 1     -0.576866      0.000000     -0.000000

     2   2 0 0    -96.641178      0.000000   1612.404716
     2   1 1 0     12.131873      0.000000     30.788769
     2   1 0 1      0.177819      0.000000     -5.558753
     2   0 2 0    -77.272321      0.000000   6518.494269
     2   0 1 1      7.241504      0.000000     14.869335
     2   0 0 2   -109.184488      0.000000    882.517191


 Task  times  cpu:    27209.4s     wall:    27343.0s


                                NWChem Input Module
                                -------------------


 Summary of allocated global arrays
-----------------------------------
  No active global arrays


MA_summarize_allocated_blocks: starting scan ...
MA_summarize_allocated_blocks: scan completed: 0 heap blocks, 0 stack blocks
MA usage statistics:

	allocation statistics:
					      heap	     stack
					      ----	     -----
	current number of blocks	         0	         0
	maximum number of blocks	        16	        14
	current total bytes		         0	         0
	maximum total bytes		    162032	  33964456
	maximum total K-bytes		       163	     33965
	maximum total M-bytes		         1	        34


                                     CITATION
                                     --------
                Please cite the following reference when publishing
                           results obtained with NWChem:

          E. Apra, E. J. Bylaska, W. A. de Jong, N. Govind, K. Kowalski,
       T. P. Straatsma, M. Valiev, H. J. J. van Dam, Y. Alexeev, J. Anchell,
       V. Anisimov, F. W. Aquino, R. Atta-Fynn, J. Autschbach, N. P. Bauman,
     J. C. Becca, D. E. Bernholdt, K. Bhaskaran-Nair, S. Bogatko, P. Borowski,
         J. Boschen, J. Brabec, A. Bruner, E. Cauet, Y. Chen, G. N. Chuev,
      C. J. Cramer, J. Daily, M. J. O. Deegan, T. H. Dunning Jr., M. Dupuis,
   K. G. Dyall, G. I. Fann, S. A. Fischer, A. Fonari, H. Fruchtl, L. Gagliardi,
      J. Garza, N. Gawande, S. Ghosh, K. Glaesemann, A. W. Gotz, J. Hammond,
       V. Helms, E. D. Hermes, K. Hirao, S. Hirata, M. Jacquelin, L. Jensen,
   B. G. Johnson, H. Jonsson, R. A. Kendall, M. Klemm, R. Kobayashi, V. Konkov,
      S. Krishnamoorthy, M. Krishnan, Z. Lin, R. D. Lins, R. J. Littlefield,
      A. J. Logsdail, K. Lopata, W. Ma, A. V. Marenich, J. Martin del Campo,
   D. Mejia-Rodriguez, J. E. Moore, J. M. Mullin, T. Nakajima, D. R. Nascimento,
    J. A. Nichols, P. J. Nichols, J. Nieplocha, A. Otero-de-la-Roza, B. Palmer,
    A. Panyala, T. Pirojsirikul, B. Peng, R. Peverati, J. Pittner, L. Pollack,
   R. M. Richard, P. Sadayappan, G. C. Schatz, W. A. Shelton, D. W. Silverstein,
   D. M. A. Smith, T. A. Soares, D. Song, M. Swart, H. L. Taylor, G. S. Thomas,
            V. Tipparaju, D. G. Truhlar, K. Tsemekhman, T. Van Voorhis,
      A. Vazquez-Mayagoitia, P. Verma, O. Villa, A. Vishnu, K. D. Vogiatzis,
        D. Wang, J. H. Weare, M. J. Williamson, T. L. Windus, K. Wolinski,
        A. T. Wong, Q. Wu, C. Yang, Q. Yu, M. Zacharias, Z. Zhang, Y. Zhao,
                                and R. J. Harrison
                        "NWChem: Past, present, and future
                         J. Chem. Phys. 152, 184102 (2020)
                               doi:10.1063/5.0004997

                                      AUTHORS
                                      -------
  E. Apra, E. J. Bylaska, N. Govind, K. Kowalski, M. Valiev, D. Mejia-Rodriguez,
       A. Kunitsa, N. P. Bauman, A. Panyala, W. A. de Jong, T. P. Straatsma,
   H. J. J. van Dam, D. Wang, T. L. Windus, J. Hammond, J. Autschbach, A. Woods,
    K. Bhaskaran-Nair, J. Brabec, K. Lopata, S. A. Fischer, S. Krishnamoorthy,
     M. Jacquelin, W. Ma, M. Klemm, O. Villa, Y. Chen, V. Anisimov, F. Aquino,
     S. Hirata, M. T. Hackler, E. Hermes, L. Jensen, J. E. Moore, J. C. Becca,
      V. Konjkov, T. Risthaus, M. Malagoli, A. Marenich, A. Otero-de-la-Roza,
        J. Mullin, P. Nichols, R. Peverati, J. Pittner, Y. Zhao, P.-D. Fan,
        A. Fonari, M. J. Williamson, R. J. Harrison, J. R. Rehr, M. Dupuis,
     D. Silverstein, D. M. A. Smith, J. Nieplocha, V. Tipparaju, M. Krishnan,
     B. E. Van Kuiken, A. Vazquez-Mayagoitia, M. Swart, Q. Wu, T. Van Voorhis,
     A. A. Auer, M. Nooijen, L. D. Crosby, E. Brown, G. Cisneros, G. I. Fann,
   H. Fruchtl, J. Garza, K. Hirao, R. A. Kendall, J. A. Nichols, K. Tsemekhman,
    K. Wolinski, J. Anchell, D. E. Bernholdt, P. Borowski, T. Clark, D. Clerc,
   H. Dachsel, M. J. O. Deegan, K. Dyall, D. Elwood, E. Glendening, M. Gutowski,
   A. C. Hess, J. Jaffe, B. G. Johnson, J. Ju, R. Kobayashi, R. Kutteh, Z. Lin,
   R. Littlefield, X. Long, B. Meng, T. Nakajima, S. Niu, L. Pollack, M. Rosing,
   K. Glaesemann, G. Sandrone, M. Stave, H. Taylor, G. Thomas, J. H. van Lenthe,
                               A. T. Wong, Z. Zhang.

 Total times  cpu:    27209.5s     wall:    27343.6s
