export TMOUT=5400
export TMPDIR=/tmp
export PTMPDIR=/tmp/ptmp
 argument  1 = ALA_ALA_3.nw
                                         
                                         


             Northwest Computational Chemistry Package (NWChem) 7.2.0
             --------------------------------------------------------


                    Environmental Molecular Sciences Laboratory
                       Pacific Northwest National Laboratory
                                Richland, WA 99352

                              Copyright (c) 1994-2022
                       Pacific Northwest National Laboratory
                            Battelle Memorial Institute

             NWChem is an open-source computational chemistry package
                        distributed under the terms of the
                      Educational Community License (ECL) 2.0
             A copy of the license is included with this distribution
                              in the LICENSE.TXT file

                                  ACKNOWLEDGMENT
                                  --------------

            This software and its documentation were developed at the
            EMSL at Pacific Northwest National Laboratory, a multiprogram
            national laboratory, operated for the U.S. Department of Energy
            by Battelle under Contract Number DE-AC05-76RL01830. Support
            for this work was provided by the Department of Energy Office
            of Biological and Environmental Research, Office of Basic
            Energy Sciences, and the Office of Advanced Scientific Computing.


           Job information
           ---------------

    hostname        = nova18-21
    program         = /opt/rit/el9/20230413/app/linux-rhel9-x86_64_v3/gcc-11.2.1/nwchem-7.2.0-oxtctbuhfuzyfaoziquq6bki22grib3g/bin/nwchem
    date            = Tue Jun 24 13:50:09 2025

    compiled        = Wed_May_17_23:46:39_2023
    source          = /tmp/root/spack-stage/spack-stage-nwchem-7.2.0-oxtctbuhfuzyfaoziquq6bki22grib3g/spack-src
    nwchem branch   = 7.2.0
    nwchem revision = d0d141fd
    ga revision     = 5.8.0
    use scalapack   = T
    input           = ALA_ALA_3.nw
    prefix          = ALA_ALA_3.
    data base       = ./ALA_ALA_3.db
    status          = startup
    nproc           =        8
    time left       =     -1s



           Memory information
           ------------------

    heap     =   26214394 doubles =    200.0 Mbytes
    stack    =   26214399 doubles =    200.0 Mbytes
    global   =   52428800 doubles =    400.0 Mbytes (distinct from heap & stack)
    total    =  104857593 doubles =    800.0 Mbytes
    verify   = yes
    hardfail = no 


           Directory information
           ---------------------

  0 permanent = .
  0 scratch   = .




                                NWChem Input Module
                                -------------------



 Scaling coordinates for geometry "geometry" by  1.889725989
 (inverse scale =  0.529177249)

 C1  symmetry detected

          ------
          auto-z
          ------
  no constraints, skipping    0.0000000000000000     
  no constraints, skipping    0.0000000000000000     


                             Geometry "geometry" -> ""
                             -------------------------

 Output coordinates in angstroms (scale by  1.889725989 to convert to a.u.)

  No.       Tag          Charge          X              Y              Z
 ---- ---------------- ---------- -------------- -------------- --------------
    1 H                    1.0000    -1.92356459     4.57132845    -0.23716081
    2 C                    6.0000    -0.90359608     4.83992718     0.02872820
    3 H                    1.0000    -0.83915095     5.05281193     1.09331681
    4 H                    1.0000    -0.59541010     5.71699546    -0.53961204
    5 C                    6.0000     0.01981938     3.69197750    -0.30754315
    6 O                    8.0000     0.93190266     3.85113926    -1.10747416
    7 N                    7.0000    -0.22593798     2.53431526     0.30162221
    8 H                    1.0000    -1.01987779     2.47068291     0.91976420
    9 C                    6.0000     0.53597844     1.30265001     0.09150062
   10 H                    1.0000     0.88000355     1.27237947    -0.94381161
   11 C                    6.0000     1.76648744     1.31500531     1.01215525
   12 H                    1.0000     2.38116674     2.18940093     0.79497409
   13 H                    1.0000     1.45044621     1.34745701     2.05560042
   14 H                    1.0000     2.36457303     0.41851175     0.84636642
   15 C                    6.0000    -0.34180953     0.06145860     0.33731190
   16 O                    8.0000    -1.38121548     0.14828316     0.99159378
   17 N                    7.0000     0.08797371    -1.09647145    -0.16869932
   18 H                    1.0000     0.97181422    -1.11629261    -0.65721347
   19 C                    6.0000    -0.59472839    -2.38124461    -0.01463846
   20 H                    1.0000    -1.09425975    -2.40474479     0.95550079
   21 C                    6.0000    -1.65765388    -2.51428624    -1.11522800
   22 H                    1.0000    -1.18233179    -2.49342365    -2.09689783
   23 H                    1.0000    -2.19842073    -3.45381717    -1.00025908
   24 H                    1.0000    -2.36873048    -1.68971495    -1.04352540
   25 C                    6.0000     0.41333464    -3.54600341    -0.05447391
   26 O                    8.0000     1.53442243    -3.39862497    -0.52968309
   27 N                    7.0000     0.03285998    -4.72129394     0.43005802
   28 H                    1.0000    -0.89074677    -4.83962889     0.81260266
   29 H                    1.0000     0.69235018    -5.48108066     0.39712143

      Atomic Mass 
      ----------- 

      H                  1.007825
      C                 12.000000
      O                 15.994910
      N                 14.003070


 Effective nuclear repulsion energy (a.u.)     916.8482584175

            Nuclear Dipole moment (a.u.) 
            ----------------------------
        X                 Y               Z
 ---------------- ---------------- ----------------
     0.0000000000    -0.0000000000     0.0000000000



                                Z-matrix (autoz)
                                -------- 

 Units are Angstrom for bonds and degrees for angles

      Type          Name      I     J     K     L     M      Value
      ----------- --------  ----- ----- ----- ----- ----- ----------
    1 Stretch                  1     2                       1.08774
    2 Stretch                  2     3                       1.08758
    3 Stretch                  2     4                       1.08960
    4 Stretch                  2     5                       1.51115
    5 Stretch                  5     6                       1.22357
    6 Stretch                  5     7                       1.33104
    7 Stretch                  7     8                       1.00821
    8 Stretch                  7     9                       1.46344
    9 Stretch                  9    10                       1.09139
   10 Stretch                  9    11                       1.53685
   11 Stretch                  9    15                       1.53996
   12 Stretch                 11    12                       1.09067
   13 Stretch                 11    13                       1.09074
   14 Stretch                 11    14                       1.09036
   15 Stretch                 15    16                       1.23125
   16 Stretch                 15    17                       1.33475
   17 Stretch                 17    18                       1.01006
   18 Stretch                 17    19                       1.46303
   19 Stretch                 19    20                       1.09145
   20 Stretch                 19    21                       1.53584
   21 Stretch                 19    25                       1.54092
   22 Stretch                 21    22                       1.09089
   23 Stretch                 21    23                       1.09012
   24 Stretch                 21    24                       1.09119
   25 Stretch                 25    26                       1.22653
   26 Stretch                 25    27                       1.32697
   27 Stretch                 27    28                       1.00667
   28 Stretch                 27    29                       1.00662
   29 Bend                     1     2     3               110.07038
   30 Bend                     1     2     4               109.66286
   31 Bend                     1     2     5               109.33059
   32 Bend                     2     5     6               120.14399
   33 Bend                     2     5     7               116.48975
   34 Bend                     3     2     4               109.64895
   35 Bend                     3     2     5               109.28766
   36 Bend                     4     2     5               108.81848
   37 Bend                     5     7     8               118.74324
   38 Bend                     5     7     9               124.76114
   39 Bend                     6     5     7               123.36528
   40 Bend                     7     9    10               108.88423
   41 Bend                     7     9    11               108.90962
   42 Bend                     7     9    15               111.01756
   43 Bend                     8     7     9               116.41673
   44 Bend                     9    11    12               109.77931
   45 Bend                     9    11    13               109.95753
   46 Bend                     9    11    14               109.96751
   47 Bend                     9    15    16               120.60893
   48 Bend                     9    15    17               117.07532
   49 Bend                    10     9    11               108.42779
   50 Bend                    10     9    15               107.98328
   51 Bend                    11     9    15               111.54573
   52 Bend                    12    11    13               109.26490
   53 Bend                    12    11    14               108.64765
   54 Bend                    13    11    14               109.19908
   55 Bend                    15    17    18               118.82508
   56 Bend                    15    17    19               124.86531
   57 Bend                    16    15    17               122.30680
   58 Bend                    17    19    20               109.03077
   59 Bend                    17    19    21               108.87831
   60 Bend                    17    19    25               110.84209
   61 Bend                    18    17    19               116.23297
   62 Bend                    19    21    22               109.97728
   63 Bend                    19    21    23               110.02293
   64 Bend                    19    21    24               109.78243
   65 Bend                    19    25    26               121.14085
   66 Bend                    19    25    27               118.19481
   67 Bend                    20    19    21               108.56273
   68 Bend                    20    19    25               107.82521
   69 Bend                    21    19    25               111.63865
   70 Bend                    22    21    23               109.11899
   71 Bend                    22    21    24               109.18494
   72 Bend                    23    21    24               108.72860
   73 Bend                    25    27    28               120.39356
   74 Bend                    25    27    29               117.95112
   75 Bend                    26    25    27               120.66189
   76 Bend                    28    27    29               121.65471
   77 Torsion                  1     2     5     6         119.76207
   78 Torsion                  1     2     5     7         -59.89050
   79 Torsion                  2     5     7     8           2.14700
   80 Torsion                  2     5     7     9         178.79452
   81 Torsion                  3     2     5     6        -119.70293
   82 Torsion                  3     2     5     7          60.64450
   83 Torsion                  4     2     5     6           0.00841
   84 Torsion                  4     2     5     7        -179.64416
   85 Torsion                  5     7     9    10         -32.88547
   86 Torsion                  5     7     9    11          85.17036
   87 Torsion                  5     7     9    15        -151.63537
   88 Torsion                  6     5     7     8        -177.49327
   89 Torsion                  6     5     7     9          -0.84574
   90 Torsion                  7     9    11    12         -58.70721
   91 Torsion                  7     9    11    13          61.53194
   92 Torsion                  7     9    11    14        -178.19149
   93 Torsion                  7     9    15    16         -19.40299
   94 Torsion                  7     9    15    17         161.66055
   95 Torsion                  8     7     9    10         143.83250
   96 Torsion                  8     7     9    11         -98.11167
   97 Torsion                  8     7     9    15          25.08260
   98 Torsion                  9    15    17    18           1.99047
   99 Torsion                  9    15    17    19         178.68013
  100 Torsion                 10     9    11    12          59.63604
  101 Torsion                 10     9    11    13         179.87519
  102 Torsion                 10     9    11    14         -59.84825
  103 Torsion                 10     9    15    16        -138.69419
  104 Torsion                 10     9    15    17          42.36935
  105 Torsion                 11     9    15    16         102.26227
  106 Torsion                 11     9    15    17         -76.67419
  107 Torsion                 12    11     9    15         178.41488
  108 Torsion                 13    11     9    15         -61.34597
  109 Torsion                 14    11     9    15          58.93059
  110 Torsion                 15    17    19    20         -32.78982
  111 Torsion                 15    17    19    21          85.49416
  112 Torsion                 15    17    19    25        -151.33170
  113 Torsion                 16    15    17    18        -176.92652
  114 Torsion                 16    15    17    19          -0.23687
  115 Torsion                 17    19    21    22          61.41970
  116 Torsion                 17    19    21    23        -178.35531
  117 Torsion                 17    19    21    24         -58.73504
  118 Torsion                 17    19    25    26         -18.88546
  119 Torsion                 17    19    25    27         161.67989
  120 Torsion                 18    17    19    20         143.97708
  121 Torsion                 18    17    19    21         -97.73894
  122 Torsion                 18    17    19    25          25.43520
  123 Torsion                 19    25    27    28          -0.08269
  124 Torsion                 19    25    27    29         179.63729
  125 Torsion                 20    19    21    22         179.99792
  126 Torsion                 20    19    21    23         -59.77710
  127 Torsion                 20    19    21    24          59.84317
  128 Torsion                 20    19    25    26        -138.15486
  129 Torsion                 20    19    25    27          42.41050
  130 Torsion                 21    19    25    26         102.68125
  131 Torsion                 21    19    25    27         -76.75339
  132 Torsion                 22    21    19    25         -61.27649
  133 Torsion                 23    21    19    25          58.94849
  134 Torsion                 24    21    19    25         178.56876
  135 Torsion                 26    25    27    28        -179.52016
  136 Torsion                 26    25    27    29           0.19982


            XYZ format geometry
            -------------------
    29
 geometry
 H                    -1.92356459     4.57132845    -0.23716081
 C                    -0.90359608     4.83992718     0.02872820
 H                    -0.83915095     5.05281193     1.09331681
 H                    -0.59541010     5.71699546    -0.53961204
 C                     0.01981938     3.69197750    -0.30754315
 O                     0.93190266     3.85113926    -1.10747416
 N                    -0.22593798     2.53431526     0.30162221
 H                    -1.01987779     2.47068291     0.91976420
 C                     0.53597844     1.30265001     0.09150062
 H                     0.88000355     1.27237947    -0.94381161
 C                     1.76648744     1.31500531     1.01215525
 H                     2.38116674     2.18940093     0.79497409
 H                     1.45044621     1.34745701     2.05560042
 H                     2.36457303     0.41851175     0.84636642
 C                    -0.34180953     0.06145860     0.33731190
 O                    -1.38121548     0.14828316     0.99159378
 N                     0.08797371    -1.09647145    -0.16869932
 H                     0.97181422    -1.11629261    -0.65721347
 C                    -0.59472839    -2.38124461    -0.01463846
 H                    -1.09425975    -2.40474479     0.95550079
 C                    -1.65765388    -2.51428624    -1.11522800
 H                    -1.18233179    -2.49342365    -2.09689783
 H                    -2.19842073    -3.45381717    -1.00025908
 H                    -2.36873048    -1.68971495    -1.04352540
 C                     0.41333464    -3.54600341    -0.05447391
 O                     1.53442243    -3.39862497    -0.52968309
 N                     0.03285998    -4.72129394     0.43005802
 H                    -0.89074677    -4.83962889     0.81260266
 H                     0.69235018    -5.48108066     0.39712143

 ==============================================================================
                                internuclear distances
 ------------------------------------------------------------------------------
       center one      |      center two      | atomic units |  angstroms
 ------------------------------------------------------------------------------
    2 C                |   1 H                |     2.05553  |     1.08774
    3 H                |   2 C                |     2.05522  |     1.08758
    4 H                |   2 C                |     2.05905  |     1.08960
    5 C                |   2 C                |     2.85565  |     1.51115
    6 O                |   5 C                |     2.31221  |     1.22357
    7 N                |   5 C                |     2.51530  |     1.33104
    8 H                |   7 N                |     1.90524  |     1.00821
    9 C                |   7 N                |     2.76551  |     1.46344
   10 H                |   9 C                |     2.06244  |     1.09139
   11 C                |   9 C                |     2.90423  |     1.53685
   12 H                |  11 C                |     2.06107  |     1.09067
   13 H                |  11 C                |     2.06120  |     1.09074
   14 H                |  11 C                |     2.06049  |     1.09036
   15 C                |   9 C                |     2.91011  |     1.53996
   16 O                |  15 C                |     2.32673  |     1.23125
   17 N                |  15 C                |     2.52232  |     1.33475
   18 H                |  17 N                |     1.90873  |     1.01006
   19 C                |  17 N                |     2.76473  |     1.46303
   20 H                |  19 C                |     2.06253  |     1.09145
   21 C                |  19 C                |     2.90232  |     1.53584
   22 H                |  21 C                |     2.06148  |     1.09089
   23 H                |  21 C                |     2.06003  |     1.09012
   24 H                |  21 C                |     2.06204  |     1.09119
   25 C                |  19 C                |     2.91192  |     1.54092
   26 O                |  25 C                |     2.31781  |     1.22653
   27 N                |  25 C                |     2.50760  |     1.32697
   28 H                |  27 N                |     1.90234  |     1.00667
   29 H                |  27 N                |     1.90224  |     1.00662
 ------------------------------------------------------------------------------
                         number of included internuclear distances:         28
 ==============================================================================



 ==============================================================================
                                 internuclear angles
 ------------------------------------------------------------------------------
        center 1       |       center 2       |       center 3       |  degrees
 ------------------------------------------------------------------------------
    1 H                |   2 C                |   3 H                |   110.07
    1 H                |   2 C                |   4 H                |   109.66
    1 H                |   2 C                |   5 C                |   109.33
    3 H                |   2 C                |   4 H                |   109.65
    3 H                |   2 C                |   5 C                |   109.29
    4 H                |   2 C                |   5 C                |   108.82
    2 C                |   5 C                |   6 O                |   120.14
    2 C                |   5 C                |   7 N                |   116.49
    6 O                |   5 C                |   7 N                |   123.37
    5 C                |   7 N                |   8 H                |   118.74
    5 C                |   7 N                |   9 C                |   124.76
    8 H                |   7 N                |   9 C                |   116.42
    7 N                |   9 C                |  10 H                |   108.88
    7 N                |   9 C                |  11 C                |   108.91
    7 N                |   9 C                |  15 C                |   111.02
   10 H                |   9 C                |  11 C                |   108.43
   10 H                |   9 C                |  15 C                |   107.98
   11 C                |   9 C                |  15 C                |   111.55
    9 C                |  11 C                |  12 H                |   109.78
    9 C                |  11 C                |  13 H                |   109.96
    9 C                |  11 C                |  14 H                |   109.97
   12 H                |  11 C                |  13 H                |   109.26
   12 H                |  11 C                |  14 H                |   108.65
   13 H                |  11 C                |  14 H                |   109.20
    9 C                |  15 C                |  16 O                |   120.61
    9 C                |  15 C                |  17 N                |   117.08
   16 O                |  15 C                |  17 N                |   122.31
   15 C                |  17 N                |  18 H                |   118.83
   15 C                |  17 N                |  19 C                |   124.87
   18 H                |  17 N                |  19 C                |   116.23
   17 N                |  19 C                |  20 H                |   109.03
   17 N                |  19 C                |  21 C                |   108.88
   17 N                |  19 C                |  25 C                |   110.84
   20 H                |  19 C                |  21 C                |   108.56
   20 H                |  19 C                |  25 C                |   107.83
   21 C                |  19 C                |  25 C                |   111.64
   19 C                |  21 C                |  22 H                |   109.98
   19 C                |  21 C                |  23 H                |   110.02
   19 C                |  21 C                |  24 H                |   109.78
   22 H                |  21 C                |  23 H                |   109.12
   22 H                |  21 C                |  24 H                |   109.18
   23 H                |  21 C                |  24 H                |   108.73
   19 C                |  25 C                |  26 O                |   121.14
   19 C                |  25 C                |  27 N                |   118.19
   26 O                |  25 C                |  27 N                |   120.66
   25 C                |  27 N                |  28 H                |   120.39
   25 C                |  27 N                |  29 H                |   117.95
   28 H                |  27 N                |  29 H                |   121.65
 ------------------------------------------------------------------------------
                            number of included internuclear angles:         48
 ==============================================================================



  library name resolved from: environment
  library file name is: </opt/rit/el9/20230413/app/linux-rhel9-x86_64_v3/gcc-11.2.1/nwchem-7.2.0-oxtctbuhfuzyfaoziquq6bki22grib3g/share/nwchem/libraries/>
  


 Summary of "ao basis" -> "" (cartesian)
 ------------------------------------------------------------------------------
       Tag                 Description            Shells   Functions and Types
 ---------------- ------------------------------  ------  ---------------------
 *                        aug-cc-pvdz                 on all atoms 


                      Basis "ao basis" -> "ao basis" (cartesian)
                      -----
  H (Hydrogen)
  ------------
            Exponent  Coefficients 
       -------------- ---------------------------------------------------------
  1 S  1.30100000E+01  0.019685
  1 S  1.96200000E+00  0.137977
  1 S  4.44600000E-01  0.478148

  2 S  1.22000000E-01  1.000000

  3 S  2.97400000E-02  1.000000

  4 P  7.27000000E-01  1.000000

  5 P  1.41000000E-01  1.000000

  C (Carbon)
  ----------
            Exponent  Coefficients 
       -------------- ---------------------------------------------------------
  1 S  6.66500000E+03  0.000692
  1 S  1.00000000E+03  0.005329
  1 S  2.28000000E+02  0.027077
  1 S  6.47100000E+01  0.101718
  1 S  2.10600000E+01  0.274740
  1 S  7.49500000E+00  0.448564
  1 S  2.79700000E+00  0.285074
  1 S  5.21500000E-01  0.015204

  2 S  6.66500000E+03 -0.000146
  2 S  1.00000000E+03 -0.001154
  2 S  2.28000000E+02 -0.005725
  2 S  6.47100000E+01 -0.023312
  2 S  2.10600000E+01 -0.063955
  2 S  7.49500000E+00 -0.149981
  2 S  2.79700000E+00 -0.127262
  2 S  5.21500000E-01  0.544529

  3 S  1.59600000E-01  1.000000

  4 S  4.69000000E-02  1.000000

  5 P  9.43900000E+00  0.038109
  5 P  2.00200000E+00  0.209480
  5 P  5.45600000E-01  0.508557

  6 P  1.51700000E-01  1.000000

  7 P  4.04100000E-02  1.000000

  8 D  5.50000000E-01  1.000000

  9 D  1.51000000E-01  1.000000

  O (Oxygen)
  ----------
            Exponent  Coefficients 
       -------------- ---------------------------------------------------------
  1 S  1.17200000E+04  0.000710
  1 S  1.75900000E+03  0.005470
  1 S  4.00800000E+02  0.027837
  1 S  1.13700000E+02  0.104800
  1 S  3.70300000E+01  0.283062
  1 S  1.32700000E+01  0.448719
  1 S  5.02500000E+00  0.270952
  1 S  1.01300000E+00  0.015458

  2 S  1.17200000E+04 -0.000160
  2 S  1.75900000E+03 -0.001263
  2 S  4.00800000E+02 -0.006267
  2 S  1.13700000E+02 -0.025716
  2 S  3.70300000E+01 -0.070924
  2 S  1.32700000E+01 -0.165411
  2 S  5.02500000E+00 -0.116955
  2 S  1.01300000E+00  0.557368

  3 S  3.02300000E-01  1.000000

  4 S  7.89600000E-02  1.000000

  5 P  1.77000000E+01  0.043018
  5 P  3.85400000E+00  0.228913
  5 P  1.04600000E+00  0.508728

  6 P  2.75300000E-01  1.000000

  7 P  6.85600000E-02  1.000000

  8 D  1.18500000E+00  1.000000

  9 D  3.32000000E-01  1.000000

  N (Nitrogen)
  ------------
            Exponent  Coefficients 
       -------------- ---------------------------------------------------------
  1 S  9.04600000E+03  0.000700
  1 S  1.35700000E+03  0.005389
  1 S  3.09300000E+02  0.027406
  1 S  8.77300000E+01  0.103207
  1 S  2.85600000E+01  0.278723
  1 S  1.02100000E+01  0.448540
  1 S  3.83800000E+00  0.278238
  1 S  7.46600000E-01  0.015440

  2 S  9.04600000E+03 -0.000153
  2 S  1.35700000E+03 -0.001208
  2 S  3.09300000E+02 -0.005992
  2 S  8.77300000E+01 -0.024544
  2 S  2.85600000E+01 -0.067459
  2 S  1.02100000E+01 -0.158078
  2 S  3.83800000E+00 -0.121831
  2 S  7.46600000E-01  0.549003

  3 S  2.24800000E-01  1.000000

  4 S  6.12400000E-02  1.000000

  5 P  1.35500000E+01  0.039919
  5 P  2.91700000E+00  0.217169
  5 P  7.97300000E-01  0.510319

  6 P  2.18500000E-01  1.000000

  7 P  5.61100000E-02  1.000000

  8 D  8.17000000E-01  1.000000

  9 D  2.30000000E-01  1.000000



 Summary of "ao basis" -> "ao basis" (cartesian)
 ------------------------------------------------------------------------------
       Tag                 Description            Shells   Functions and Types
 ---------------- ------------------------------  ------  ---------------------
 H                        aug-cc-pvdz                5        9   3s2p
 C                        aug-cc-pvdz                9       25   4s3p2d
 O                        aug-cc-pvdz                9       25   4s3p2d
 N                        aug-cc-pvdz                9       25   4s3p2d


                                 NWChem SCF Module
                                 -----------------



  ao basis        = "ao basis"
  functions       =   485
  atoms           =    29
  closed shells   =    54
  open shells     =     0
  charge          =   0.00
  wavefunction    = RHF 
  input vectors   = atomic
  output vectors  = ./ALA_ALA_3.movecs
  use symmetry    = F
  symmetry adapt  = F


 Summary of "ao basis" -> "ao basis" (cartesian)
 ------------------------------------------------------------------------------
       Tag                 Description            Shells   Functions and Types
 ---------------- ------------------------------  ------  ---------------------
 H                        aug-cc-pvdz                5        9   3s2p
 C                        aug-cc-pvdz                9       25   4s3p2d
 O                        aug-cc-pvdz                9       25   4s3p2d
 N                        aug-cc-pvdz                9       25   4s3p2d



 Forming initial guess at       0.9s


 !! The overlap matrix has   2 vectors deemed linearly dependent with
    eigenvalues:
 3.30D-06 5.66D-06


      Superposition of Atomic Density Guess
      -------------------------------------

 Sum of atomic energies:        -696.03477360

      Non-variational initial energy
      ------------------------------

 Total energy =    -704.981351
 1-e energy   =   -2765.661418
 2-e energy   =    1143.831808
 HOMO         =      -0.315315
 LUMO         =       0.008933


 Starting SCF solution at     111.2s



 ----------------------------------------------
         Quadratically convergent ROHF

 Convergence threshold     :          1.000E-04
 Maximum no. of iterations :           30
 Final Fock-matrix accuracy:          1.000E-10
 ----------------------------------------------


              iter       energy          gnorm     gmax       time
             ----- ------------------- --------- --------- --------
                 1     -699.4370897136  2.35D+00  1.40D-01    206.6
                 2     -699.7315359267  7.69D-01  4.30D-02    463.9
                 3     -699.7835602575  6.11D-02  5.78D-03    825.8
                 4     -699.7841459410  3.53D-03  4.32D-04   1267.5
                 5     -699.7841483384  6.22D-06  4.01D-07   2082.7


       Final RHF  results 
       ------------------ 

         Total SCF energy =   -699.784148338373
      One-electron energy =  -2775.832354994603
      Two-electron energy =   1159.199948238700
 Nuclear repulsion energy =    916.848258417530

        Time for solution =   1974.7s


             Final eigenvalues
             -----------------

              1      
    1  -20.5456
    2  -20.5381
    3  -20.5147
    4  -15.6184
    5  -15.6083
    6  -15.5896
    7  -11.3795
    8  -11.3697
    9  -11.3470
   10  -11.3122
   11  -11.2970
   12  -11.2489
   13  -11.2360
   14  -11.2346
   15   -1.4082
   16   -1.3959
   17   -1.3764
   18   -1.2542
   19   -1.2450
   20   -1.2382
   21   -1.0758
   22   -1.0412
   23   -0.9862
   24   -0.9235
   25   -0.8912
   26   -0.8310
   27   -0.8003
   28   -0.7861
   29   -0.7690
   30   -0.7248
   31   -0.6856
   32   -0.6731
   33   -0.6577
   34   -0.6525
   35   -0.6339
   36   -0.6251
   37   -0.6102
   38   -0.6061
   39   -0.5916
   40   -0.5799
   41   -0.5615
   42   -0.5602
   43   -0.5530
   44   -0.5440
   45   -0.5390
   46   -0.5245
   47   -0.5178
   48   -0.4942
   49   -0.4437
   50   -0.4353
   51   -0.4329
   52   -0.4130
   53   -0.4070
   54   -0.3876
   55    0.0217
   56    0.0375
   57    0.0411
   58    0.0456
   59    0.0497
   60    0.0543
   61    0.0590
   62    0.0646
   63    0.0697
   64    0.0753

                       ROHF Final Molecular Orbital Analysis
                       -------------------------------------

 Vector   15  Occ=2.000000D+00  E=-1.408159D+00
              MO Center=  8.4D-01, -3.2D+00, -2.0D-01, r^2= 2.4D+00
   Bfn.  Coefficient  Atom+Function         Bfn.  Coefficient  Atom+Function  
  ----- ------------  ---------------      ----- ------------  ---------------
   420      0.351233  26 O  s               419      0.329808  26 O  s         
   394      0.235144  25 C  s         

 Vector   16  Occ=2.000000D+00  E=-1.395901D+00
              MO Center= -6.6D-01, -2.2D-01,  5.4D-01, r^2= 3.2D+00
   Bfn.  Coefficient  Atom+Function         Bfn.  Coefficient  Atom+Function  
  ----- ------------  ---------------      ----- ------------  ---------------
   250      0.343215  16 O  s               249      0.326470  16 O  s         
   224      0.227751  15 C  s         

 Vector   17  Occ=2.000000D+00  E=-1.376406D+00
              MO Center=  4.8D-01,  3.5D+00, -6.6D-01, r^2= 1.6D+00
   Bfn.  Coefficient  Atom+Function         Bfn.  Coefficient  Atom+Function  
  ----- ------------  ---------------      ----- ------------  ---------------
    79      0.343829   6 O  s                80      0.345339   6 O  s         
    54      0.242348   5 C  s                12      0.165703   2 C  s         

 Vector   18  Occ=2.000000D+00  E=-1.254229D+00
              MO Center= -1.7D-01, -1.1D+00,  1.7D-02, r^2= 1.8D+00
   Bfn.  Coefficient  Atom+Function         Bfn.  Coefficient  Atom+Function  
  ----- ------------  ---------------      ----- ------------  ---------------
   275      0.421268  17 N  s               274      0.339836  17 N  s         
   250     -0.216565  16 O  s               249     -0.181939  16 O  s         
   298      0.150291  18 H  s         

 Vector   19  Occ=2.000000D+00  E=-1.245024D+00
              MO Center=  2.2D-01, -4.3D+00,  2.5D-01, r^2= 1.6D+00
   Bfn.  Coefficient  Atom+Function         Bfn.  Coefficient  Atom+Function  
  ----- ------------  ---------------      ----- ------------  ---------------
   445      0.398160  27 N  s               444      0.367887  27 N  s         
   420     -0.212404  26 O  s               419     -0.179961  26 O  s         
   468      0.169946  28 H  s               477      0.155493  29 H  s         

 Vector   20  Occ=2.000000D+00  E=-1.238244D+00
              MO Center=  1.2D-02,  2.6D+00,  6.5D-02, r^2= 1.8D+00
   Bfn.  Coefficient  Atom+Function         Bfn.  Coefficient  Atom+Function  
  ----- ------------  ---------------      ----- ------------  ---------------
   105      0.431421   7 N  s               104      0.342715   7 N  s         
    80     -0.212855   6 O  s                79     -0.185931   6 O  s         
   128      0.153200   8 H  s         

 Vector   21  Occ=2.000000D+00  E=-1.075848D+00
              MO Center= -2.1D-01, -5.4D-01, -5.6D-02, r^2= 7.1D+00
   Bfn.  Coefficient  Atom+Function         Bfn.  Coefficient  Atom+Function  
  ----- ------------  ---------------      ----- ------------  ---------------
   308      0.209833  19 C  s               139     -0.173741   9 C  s         
   138     -0.170855   9 C  s               342      0.169221  21 C  s         

 Vector   22  Occ=2.000000D+00  E=-1.041238D+00
              MO Center= -1.0D-01,  4.0D-01, -1.2D-02, r^2= 9.6D+00
   Bfn.  Coefficient  Atom+Function         Bfn.  Coefficient  Atom+Function  
  ----- ------------  ---------------      ----- ------------  ---------------
   225     -0.179450  15 C  s               138     -0.174889   9 C  s         
   342     -0.172438  21 C  s                12      0.170764   2 C  s         
   172     -0.168127  11 C  s         

 Vector   23  Occ=2.000000D+00  E=-9.862095D-01
              MO Center= -2.8D-01,  3.7D+00,  1.6D-01, r^2= 5.1D+00
   Bfn.  Coefficient  Atom+Function         Bfn.  Coefficient  Atom+Function  
  ----- ------------  ---------------      ----- ------------  ---------------
    56      0.372212   5 C  s                11     -0.316858   2 C  s         
    13     -0.262665   2 C  s               144     -0.177582   9 C  px        
   225     -0.165553  15 C  s               172     -0.163223  11 C  s         
    55     -0.150662   5 C  s         

 Vector   24  Occ=2.000000D+00  E=-9.234518D-01
              MO Center= -6.1D-01, -1.9D+00, -3.9D-01, r^2= 5.9D+00
   Bfn.  Coefficient  Atom+Function         Bfn.  Coefficient  Atom+Function  
  ----- ------------  ---------------      ----- ------------  ---------------
   314      0.294840  19 C  px              342     -0.264987  21 C  s         
   225      0.214615  15 C  s               144      0.193604   9 C  px        
   139     -0.185876   9 C  s               145      0.163675   9 C  py        

 Vector   25  Occ=2.000000D+00  E=-8.912433D-01
              MO Center=  5.3D-01,  1.6D-01,  3.7D-01, r^2= 8.9D+00
   Bfn.  Coefficient  Atom+Function         Bfn.  Coefficient  Atom+Function  
  ----- ------------  ---------------      ----- ------------  ---------------
   144      0.251683   9 C  px              172      0.221420  11 C  s         
   309     -0.216091  19 C  s               138     -0.159255   9 C  s         

 Vector   26  Occ=2.000000D+00  E=-8.310359D-01
              MO Center=  4.3D-02, -1.8D+00,  1.6D-01, r^2= 1.0D+01
   Bfn.  Coefficient  Atom+Function         Bfn.  Coefficient  Atom+Function  
  ----- ------------  ---------------      ----- ------------  ---------------
   448      0.248501  27 N  py              225      0.202837  15 C  s         
   278      0.202275  17 N  py              394      0.174731  25 C  s         
   309      0.166537  19 C  s               108      0.154684   7 N  py        
   477     -0.151038  29 H  s         

 Vector   27  Occ=2.000000D+00  E=-8.003368D-01
              MO Center= -1.6D-01, -1.6D+00, -2.7D-03, r^2= 5.3D+00
   Bfn.  Coefficient  Atom+Function         Bfn.  Coefficient  Atom+Function  
  ----- ------------  ---------------      ----- ------------  ---------------
   275     -0.269453  17 N  s               298     -0.268993  18 H  s         
   225      0.263411  15 C  s               277     -0.229726  17 N  px        
   396      0.179330  25 C  s               314      0.173007  19 C  px        
   333      0.168164  20 H  s               279      0.166599  17 N  pz        
   332      0.167093  20 H  s         

 Vector   28  Occ=2.000000D+00  E=-7.860856D-01
              MO Center= -6.2D-03,  1.9D+00,  1.3D-01, r^2= 4.8D+00
   Bfn.  Coefficient  Atom+Function         Bfn.  Coefficient  Atom+Function  
  ----- ------------  ---------------      ----- ------------  ---------------
   128      0.281991   8 H  s               225      0.282108  15 C  s         
   139     -0.260759   9 C  s               105      0.251746   7 N  s         
   144      0.229798   9 C  px              109      0.222592   7 N  pz        
    55     -0.196130   5 C  s               107     -0.186596   7 N  px        
    54     -0.166487   5 C  s               163     -0.166623  10 H  s         

 Vector   29  Occ=2.000000D+00  E=-7.690145D-01
              MO Center= -1.8D-03, -2.9D+00,  2.5D-01, r^2= 8.0D+00
   Bfn.  Coefficient  Atom+Function         Bfn.  Coefficient  Atom+Function  
  ----- ------------  ---------------      ----- ------------  ---------------
   447      0.325887  27 N  px              468     -0.285071  28 H  s         
   477      0.187552  29 H  s         

 Vector   30  Occ=2.000000D+00  E=-7.247961D-01
              MO Center= -2.7D-02, -5.7D-01,  2.4D-01, r^2= 1.4D+01
   Bfn.  Coefficient  Atom+Function         Bfn.  Coefficient  Atom+Function  
  ----- ------------  ---------------      ----- ------------  ---------------
   477     -0.229067  29 H  s               145      0.226069   9 C  py        
   142      0.205060   9 C  py              448      0.194286  27 N  py        
   228     -0.190127  15 C  py              447     -0.180348  27 N  px        

 Vector   31  Occ=2.000000D+00  E=-6.856437D-01
              MO Center= -7.2D-02, -1.5D+00,  5.9D-02, r^2= 7.8D+00
   Bfn.  Coefficient  Atom+Function         Bfn.  Coefficient  Atom+Function  
  ----- ------------  ---------------      ----- ------------  ---------------
   422      0.228605  26 O  px              332      0.188243  20 H  s         
   420      0.168191  26 O  s               398     -0.166841  25 C  py        
   311     -0.160700  19 C  px              252     -0.156815  16 O  px        
   250      0.151794  16 O  s         

 Vector   32  Occ=2.000000D+00  E=-6.731260D-01
              MO Center=  5.9D-02,  4.2D-01, -1.3D-01, r^2= 1.3D+01
   Bfn.  Coefficient  Atom+Function         Bfn.  Coefficient  Atom+Function  
  ----- ------------  ---------------      ----- ------------  ---------------
    80      0.184249   6 O  s                82      0.170928   6 O  px        
    56     -0.160601   5 C  s               278      0.160461  17 N  py        
   448     -0.157021  27 N  py              312     -0.153246  19 C  py        
   398      0.150604  25 C  py        

 Vector   33  Occ=2.000000D+00  E=-6.576974D-01
              MO Center= -6.4D-02,  1.2D-02, -7.1D-02, r^2= 8.3D+00
   Bfn.  Coefficient  Atom+Function         Bfn.  Coefficient  Atom+Function  
  ----- ------------  ---------------      ----- ------------  ---------------
   277      0.188867  17 N  px              107      0.182498   7 N  px        
   143      0.170821   9 C  pz              162     -0.165428  10 H  s         
   343      0.158887  21 C  s               313      0.151085  19 C  pz        

 Vector   34  Occ=2.000000D+00  E=-6.524792D-01
              MO Center= -4.8D-02,  1.2D+00, -2.0D-02, r^2= 1.1D+01
   Bfn.  Coefficient  Atom+Function         Bfn.  Coefficient  Atom+Function  
  ----- ------------  ---------------      ----- ------------  ---------------
    58      0.217246   5 C  py               56      0.208992   5 C  s         
   252     -0.197916  16 O  px               13     -0.184895   2 C  s         
   422     -0.184075  26 O  px              250      0.157593  16 O  s         
    82     -0.152770   6 O  px        

 Vector   35  Occ=2.000000D+00  E=-6.338798D-01
              MO Center= -9.5D-02, -2.0D+00, -2.9D-01, r^2= 7.6D+00
   Bfn.  Coefficient  Atom+Function         Bfn.  Coefficient  Atom+Function  
  ----- ------------  ---------------      ----- ------------  ---------------
   315      0.228750  19 C  py              343      0.216870  21 C  s         
   424      0.205755  26 O  pz              309     -0.196628  19 C  s         
   397      0.189069  25 C  px              345     -0.168432  21 C  px        
   384      0.162122  24 H  s               395      0.160997  25 C  s         
   278     -0.159372  17 N  py              396     -0.154352  25 C  s         

 Vector   36  Occ=2.000000D+00  E=-6.251054D-01
              MO Center=  3.4D-02,  2.5D+00,  4.8D-02, r^2= 8.0D+00
   Bfn.  Coefficient  Atom+Function         Bfn.  Coefficient  Atom+Function  
  ----- ------------  ---------------      ----- ------------  ---------------
   139      0.524043   9 C  s               173     -0.384430  11 C  s         
   225     -0.255322  15 C  s                59      0.211185   5 C  pz        
   145     -0.189732   9 C  py               16      0.186116   2 C  pz        
    82      0.183345   6 O  px              109      0.163546   7 N  pz        
   226      0.156819  15 C  s                35      0.155160   3 H  s         

 Vector   37  Occ=2.000000D+00  E=-6.102415D-01
              MO Center= -2.0D-02, -9.0D-01, -6.1D-02, r^2= 9.5D+00
   Bfn.  Coefficient  Atom+Function         Bfn.  Coefficient  Atom+Function  
  ----- ------------  ---------------      ----- ------------  ---------------
   343      0.256954  21 C  s               309     -0.218900  19 C  s         
   422      0.214604  26 O  px              397     -0.171055  25 C  px        
   396     -0.169596  25 C  s               385     -0.164825  24 H  s         
   252      0.160420  16 O  px        

 Vector   38  Occ=2.000000D+00  E=-6.061064D-01
              MO Center= -1.9D-01,  9.7D-01,  2.1D-01, r^2= 9.7D+00
   Bfn.  Coefficient  Atom+Function         Bfn.  Coefficient  Atom+Function  
  ----- ------------  ---------------      ----- ------------  ---------------
   254      0.216144  16 O  pz               56     -0.187065   5 C  s         
   227      0.186406  15 C  px              309     -0.178383  19 C  s         
     1      0.155749   1 H  s               196     -0.150624  12 H  s         

 Vector   39  Occ=2.000000D+00  E=-5.916481D-01
              MO Center= -1.6D-01, -1.7D+00, -2.1D-01, r^2= 1.0D+01
   Bfn.  Coefficient  Atom+Function         Bfn.  Coefficient  Atom+Function  
  ----- ------------  ---------------      ----- ------------  ---------------
   399      0.191382  25 C  pz              422      0.185029  26 O  px        
   252     -0.166181  16 O  px              366      0.159801  22 H  s         
   449      0.154046  27 N  pz              347     -0.152905  21 C  pz        

 Vector   40  Occ=2.000000D+00  E=-5.799359D-01
              MO Center=  5.4D-01,  2.0D+00,  1.4D-01, r^2= 9.8D+00
   Bfn.  Coefficient  Atom+Function         Bfn.  Coefficient  Atom+Function  
  ----- ------------  ---------------      ----- ------------  ---------------
   214      0.216650  14 H  s                57      0.197889   5 C  px        
    15      0.195332   2 C  py              176     -0.188194  11 C  py        
   215      0.180245  14 H  s                84      0.176780   6 O  pz        

 Vector   41  Occ=2.000000D+00  E=-5.614809D-01
              MO Center= -7.8D-02,  3.1D+00, -1.4D-01, r^2= 7.6D+00
   Bfn.  Coefficient  Atom+Function         Bfn.  Coefficient  Atom+Function  
  ----- ------------  ---------------      ----- ------------  ---------------
    14     -0.242659   2 C  px                1      0.222264   1 H  s         
    45     -0.211483   4 H  s                84      0.190628   6 O  pz        
    57      0.169531   5 C  px               44     -0.165167   4 H  s         
   109      0.156237   7 N  pz               82     -0.152521   6 O  px        

 Vector   42  Occ=2.000000D+00  E=-5.601838D-01
              MO Center= -7.5D-01,  8.7D-01, -2.4D-01, r^2= 1.5D+01
   Bfn.  Coefficient  Atom+Function         Bfn.  Coefficient  Atom+Function  
  ----- ------------  ---------------      ----- ------------  ---------------
   346      0.252947  21 C  py               44      0.219140   4 H  s         
   375     -0.214310  23 H  s                13     -0.206420   2 C  s         
   385      0.205176  24 H  s                45      0.202759   4 H  s         
   226      0.202625  15 C  s                16     -0.189869   2 C  pz        
   376     -0.174410  23 H  s               384      0.168315  24 H  s         

 Vector   43  Occ=2.000000D+00  E=-5.530096D-01
              MO Center= -5.8D-01, -1.7D+00, -4.8D-01, r^2= 1.0D+01
   Bfn.  Coefficient  Atom+Function         Bfn.  Coefficient  Atom+Function  
  ----- ------------  ---------------      ----- ------------  ---------------
   384      0.264859  24 H  s               345     -0.239380  21 C  px        
   424     -0.213670  26 O  pz              397     -0.173841  25 C  px        
   346      0.172886  21 C  py              385      0.171102  24 H  s         
   449     -0.166064  27 N  pz        

 Vector   44  Occ=2.000000D+00  E=-5.440365D-01
              MO Center=  5.8D-01,  1.8D-01,  3.7D-01, r^2= 8.9D+00
   Bfn.  Coefficient  Atom+Function         Bfn.  Coefficient  Atom+Function  
  ----- ------------  ---------------      ----- ------------  ---------------
   196      0.282550  12 H  s               176      0.261834  11 C  py        
   333      0.249082  20 H  s               197      0.243609  12 H  s         
   309     -0.219820  19 C  s               376     -0.172702  23 H  s         
   367      0.152646  22 H  s         

 Vector   45  Occ=2.000000D+00  E=-5.389888D-01
              MO Center= -6.1D-01,  3.4D-01, -2.3D-01, r^2= 1.2D+01
   Bfn.  Coefficient  Atom+Function         Bfn.  Coefficient  Atom+Function  
  ----- ------------  ---------------      ----- ------------  ---------------
   333      0.236719  20 H  s               367      0.227781  22 H  s         
   226      0.192112  15 C  s               276     -0.180239  17 N  s         
   375     -0.178326  23 H  s               366      0.176184  22 H  s         
    44     -0.174070   4 H  s               345      0.172522  21 C  px        
   376     -0.156848  23 H  s                16      0.153768   2 C  pz        

 Vector   46  Occ=2.000000D+00  E=-5.244778D-01
              MO Center=  7.1D-01,  1.3D+00,  4.9D-01, r^2= 6.4D+00
   Bfn.  Coefficient  Atom+Function         Bfn.  Coefficient  Atom+Function  
  ----- ------------  ---------------      ----- ------------  ---------------
   206      0.271420  13 H  s               163      0.244985  10 H  s         
   205      0.242854  13 H  s               214     -0.203396  14 H  s         
   177      0.195892  11 C  pz              175     -0.189885  11 C  px        
   162      0.183102  10 H  s               215     -0.161029  14 H  s         
   107     -0.151646   7 N  px        

 Vector   47  Occ=2.000000D+00  E=-5.178074D-01
              MO Center= -5.0D-01,  4.5D-02,  3.3D-02, r^2= 9.9D+00
   Bfn.  Coefficient  Atom+Function         Bfn.  Coefficient  Atom+Function  
  ----- ------------  ---------------      ----- ------------  ---------------
   313     -0.222155  19 C  pz              254      0.215193  16 O  pz        
   347      0.205819  21 C  pz              163      0.193750  10 H  s         
   257      0.164070  16 O  pz              332     -0.163551  20 H  s         
   333     -0.158706  20 H  s               226     -0.156699  15 C  s         
   215     -0.150842  14 H  s               366     -0.151462  22 H  s         

 Vector   48  Occ=2.000000D+00  E=-4.942095D-01
              MO Center=  3.4D-01,  2.4D+00, -4.6D-02, r^2= 6.0D+00
   Bfn.  Coefficient  Atom+Function         Bfn.  Coefficient  Atom+Function  
  ----- ------------  ---------------      ----- ------------  ---------------
    84      0.230971   6 O  pz              143     -0.221858   9 C  pz        
   177      0.186661  11 C  pz               82      0.175819   6 O  px        
    87      0.169444   6 O  pz              162      0.164912  10 H  s         

 Vector   49  Occ=2.000000D+00  E=-4.437107D-01
              MO Center=  8.0D-01, -3.1D+00, -3.2D-01, r^2= 3.2D+00
   Bfn.  Coefficient  Atom+Function         Bfn.  Coefficient  Atom+Function  
  ----- ------------  ---------------      ----- ------------  ---------------
   423      0.480465  26 O  py              426      0.384850  26 O  py        
   309      0.314334  19 C  s               139     -0.235050   9 C  s         
   395     -0.221459  25 C  s               415     -0.174498  25 C  dyy       
   445      0.169304  27 N  s               225      0.165514  15 C  s         
   311     -0.161507  19 C  px              401     -0.161499  25 C  py        

 Vector   50  Occ=2.000000D+00  E=-4.353244D-01
              MO Center=  2.2D-01, -2.6D+00,  2.1D-01, r^2= 7.2D+00
   Bfn.  Coefficient  Atom+Function         Bfn.  Coefficient  Atom+Function  
  ----- ------------  ---------------      ----- ------------  ---------------
   449     -0.321634  27 N  pz              424      0.307838  26 O  pz        
   452     -0.277913  27 N  pz              253     -0.273894  16 O  py        
   427      0.239463  26 O  pz              256     -0.223346  16 O  py        

 Vector   51  Occ=2.000000D+00  E=-4.328585D-01
              MO Center= -2.4D-01, -1.1D+00,  4.1D-01, r^2= 7.6D+00
   Bfn.  Coefficient  Atom+Function         Bfn.  Coefficient  Atom+Function  
  ----- ------------  ---------------      ----- ------------  ---------------
   253      0.410909  16 O  py              256      0.335929  16 O  py        
   449     -0.229809  27 N  pz              309      0.217376  19 C  s         
   452     -0.194377  27 N  pz              424      0.180795  26 O  pz        
   423      0.177137  26 O  py        

 Vector   52  Occ=2.000000D+00  E=-4.129860D-01
              MO Center=  4.8D-01,  3.7D+00, -7.4D-01, r^2= 2.7D+00
   Bfn.  Coefficient  Atom+Function         Bfn.  Coefficient  Atom+Function  
  ----- ------------  ---------------      ----- ------------  ---------------
    83      0.506449   6 O  py               13      0.487488   2 C  s         
    86      0.403812   6 O  py               56     -0.344919   5 C  s         
    64     -0.254738   5 C  py              105      0.233247   7 N  s         
    82     -0.196792   6 O  px              145     -0.195610   9 C  py        
    17     -0.179499   2 C  px               18      0.176099   2 C  py        

 Vector   53  Occ=2.000000D+00  E=-4.069770D-01
              MO Center= -3.8D-01, -5.8D-01,  1.1D-01, r^2= 4.8D+00
   Bfn.  Coefficient  Atom+Function         Bfn.  Coefficient  Atom+Function  
  ----- ------------  ---------------      ----- ------------  ---------------
   279      0.356513  17 N  pz              282      0.328343  17 N  pz        
   254     -0.268290  16 O  pz              257     -0.209232  16 O  pz        
   277      0.202776  17 N  px              280      0.188161  17 N  px        
   344     -0.164479  21 C  s               252     -0.152581  16 O  px        

 Vector   54  Occ=2.000000D+00  E=-3.875870D-01
              MO Center=  2.5D-01,  2.4D+00, -9.9D-02, r^2= 3.9D+00
   Bfn.  Coefficient  Atom+Function         Bfn.  Coefficient  Atom+Function  
  ----- ------------  ---------------      ----- ------------  ---------------
   109      0.327702   7 N  pz              112      0.295122   7 N  pz        
   139      0.275989   9 C  s               107      0.260730   7 N  px        
   110      0.249091   7 N  px               84     -0.246932   6 O  pz        
   174      0.242787  11 C  s                82     -0.202895   6 O  px        
    87     -0.190297   6 O  pz               85     -0.156438   6 O  px        

 Vector   55  Occ=0.000000D+00  E= 2.173912D-02
              MO Center= -1.3D+00, -5.8D+00,  9.5D-01, r^2= 1.5D+01
   Bfn.  Coefficient  Atom+Function         Bfn.  Coefficient  Atom+Function  
  ----- ------------  ---------------      ----- ------------  ---------------
   446      3.831580  27 N  s               396     -2.992449  25 C  s         
   226     -2.750937  15 C  s               234      2.621651  15 C  py        
   404      2.516952  25 C  py              318      2.190531  19 C  py        
   310     -2.013460  19 C  s               470      1.899184  28 H  s         
   479      1.614788  29 H  s               174     -1.314145  11 C  s         

 Vector   56  Occ=0.000000D+00  E= 3.746448D-02
              MO Center= -1.9D+00,  2.6D+00,  3.8D-01, r^2= 3.4D+01
   Bfn.  Coefficient  Atom+Function         Bfn.  Coefficient  Atom+Function  
  ----- ------------  ---------------      ----- ------------  ---------------
   174      4.635167  11 C  s               148      3.616196   9 C  py        
    64      3.273751   5 C  py               56      2.618573   5 C  s         
   106     -2.534727   7 N  s                 3     -1.912501   1 H  s         
    63     -1.788820   5 C  px              344      1.650872  21 C  s         
    37     -1.641861   3 H  s               386     -1.583533  24 H  s         

 Vector   57  Occ=0.000000D+00  E= 4.110784D-02
              MO Center= -1.2D+00, -1.3D+00,  2.4D-01, r^2= 3.7D+01
   Bfn.  Coefficient  Atom+Function         Bfn.  Coefficient  Atom+Function  
  ----- ------------  ---------------      ----- ------------  ---------------
   319      2.946711  19 C  pz              377      2.838537  23 H  s         
   334     -2.459671  20 H  s               343     -2.386359  21 C  s         
   234      1.869705  15 C  py              376      1.714416  23 H  s         
   207     -1.652663  13 H  s               386      1.491453  24 H  s         
   148      1.481920   9 C  py              367      1.410938  22 H  s         

 Vector   58  Occ=0.000000D+00  E= 4.564345D-02
              MO Center= -2.0D-01, -3.8D+00,  1.8D-03, r^2= 3.0D+01
   Bfn.  Coefficient  Atom+Function         Bfn.  Coefficient  Atom+Function  
  ----- ------------  ---------------      ----- ------------  ---------------
   334      2.852350  20 H  s               479     -2.695482  29 H  s         
   368     -2.321209  22 H  s               174     -1.757681  11 C  s         
   226      1.742294  15 C  s               233      1.747770  15 C  px        
   234      1.738974  15 C  py              276     -1.613859  17 N  s         
   470      1.551788  28 H  s               319     -1.324284  19 C  pz        

 Vector   59  Occ=0.000000D+00  E= 4.966699D-02
              MO Center=  8.9D-01,  1.2D+00,  6.5D-01, r^2= 3.8D+01
   Bfn.  Coefficient  Atom+Function         Bfn.  Coefficient  Atom+Function  
  ----- ------------  ---------------      ----- ------------  ---------------
    64      4.098404   5 C  py              148      3.106978   9 C  py        
   173     -2.156052  11 C  s               344     -2.133949  21 C  s         
   276      1.987795  17 N  s                12      1.906515   2 C  s         
    63     -1.914930   5 C  px               13     -1.866731   2 C  s         
   216      1.788554  14 H  s               215      1.669307  14 H  s         

 Vector   60  Occ=0.000000D+00  E= 5.427449D-02
              MO Center= -1.6D+00,  3.4D-01,  3.2D-01, r^2= 4.1D+01
   Bfn.  Coefficient  Atom+Function         Bfn.  Coefficient  Atom+Function  
  ----- ------------  ---------------      ----- ------------  ---------------
   226      5.965970  15 C  s               377     -5.051052  23 H  s         
   334      3.431060  20 H  s               149      3.110758   9 C  pz        
   276     -3.123460  17 N  s               396     -2.936641  25 C  s         
   174     -2.799343  11 C  s                 3      2.575377   1 H  s         
    37     -2.575463   3 H  s               319     -2.403385  19 C  pz        

 Vector   61  Occ=0.000000D+00  E= 5.895068D-02
              MO Center=  7.0D-02,  1.6D+00,  6.0D-03, r^2= 4.5D+01
   Bfn.  Coefficient  Atom+Function         Bfn.  Coefficient  Atom+Function  
  ----- ------------  ---------------      ----- ------------  ---------------
    46      3.497332   4 H  s               470      2.413002  28 H  s         
    56      2.381591   5 C  s               164      2.330192  10 H  s         
   130     -2.237593   8 H  s                13     -2.062633   2 C  s         
   344      2.051643  21 C  s               479     -1.918773  29 H  s         
   198      1.826262  12 H  s               207     -1.729287  13 H  s         

 Vector   62  Occ=0.000000D+00  E= 6.456582D-02
              MO Center=  5.6D-02, -2.4D-01, -6.6D-01, r^2= 3.8D+01
   Bfn.  Coefficient  Atom+Function         Bfn.  Coefficient  Atom+Function  
  ----- ------------  ---------------      ----- ------------  ---------------
   368      4.410029  22 H  s               377     -3.500720  23 H  s         
   386     -2.679041  24 H  s               164      2.563185  10 H  s         
    37      2.500351   3 H  s               174      2.489140  11 C  s         
   351     -2.430486  21 C  px              216     -2.325938  14 H  s         
   149      2.273283   9 C  pz              198     -1.996571  12 H  s         

 Vector   63  Occ=0.000000D+00  E= 6.965750D-02
              MO Center= -5.5D-02,  1.6D+00,  1.6D-01, r^2= 4.7D+01
   Bfn.  Coefficient  Atom+Function         Bfn.  Coefficient  Atom+Function  
  ----- ------------  ---------------      ----- ------------  ---------------
    64      5.251043   5 C  py               13     -4.608356   2 C  s         
    46     -4.440628   4 H  s               334     -3.943369  20 H  s         
   148      3.666042   9 C  py               56     -3.632560   5 C  s         
   470      3.189138  28 H  s               106      2.816672   7 N  s         
   198      2.797239  12 H  s               396      2.418687  25 C  s         

 Vector   64  Occ=0.000000D+00  E= 7.532057D-02
              MO Center= -6.8D-01,  1.7D-01,  1.2D+00, r^2= 4.0D+01
   Bfn.  Coefficient  Atom+Function         Bfn.  Coefficient  Atom+Function  
  ----- ------------  ---------------      ----- ------------  ---------------
   207      4.397271  13 H  s               234     -4.332365  15 C  py        
   276     -4.023684  17 N  s               334     -3.710238  20 H  s         
     3      3.347847   1 H  s               396      2.925387  25 C  s         
   470      2.892604  28 H  s               368      2.758953  22 H  s         
    37     -2.459354   3 H  s                13      2.181388   2 C  s         

 Vector   65  Occ=0.000000D+00  E= 7.581032D-02
              MO Center= -4.3D-01,  7.6D-01, -5.3D-02, r^2= 4.1D+01
   Bfn.  Coefficient  Atom+Function         Bfn.  Coefficient  Atom+Function  
  ----- ------------  ---------------      ----- ------------  ---------------
    13      5.595939   2 C  s               386      4.469678  24 H  s         
   216     -3.992557  14 H  s               377     -3.557326  23 H  s         
   226     -3.177147  15 C  s               344     -2.935967  21 C  s         
   404      2.917291  25 C  py              140     -2.820794   9 C  s         
   148     -2.535498   9 C  py               46      2.454471   4 H  s         

 Vector   66  Occ=0.000000D+00  E= 8.376746D-02
              MO Center= -2.3D-01,  1.5D-01, -6.3D-01, r^2= 3.8D+01
   Bfn.  Coefficient  Atom+Function         Bfn.  Coefficient  Atom+Function  
  ----- ------------  ---------------      ----- ------------  ---------------
   377      5.458084  23 H  s               226     -5.023494  15 C  s         
   164      4.711543  10 H  s               216     -3.886010  14 H  s         
   368     -3.863673  22 H  s                56     -3.708085   5 C  s         
   140     -3.568404   9 C  s               344      3.261375  21 C  s         
    13      3.033168   2 C  s               207      2.915231  13 H  s         

 Vector   67  Occ=0.000000D+00  E= 8.671284D-02
              MO Center=  7.8D-01,  7.7D-01,  4.4D-01, r^2= 3.7D+01
   Bfn.  Coefficient  Atom+Function         Bfn.  Coefficient  Atom+Function  
  ----- ------------  ---------------      ----- ------------  ---------------
   198      6.697043  12 H  s               334      4.461844  20 H  s         
   386     -4.384698  24 H  s               226     -4.080133  15 C  s         
   130      3.219100   8 H  s               207     -3.150047  13 H  s         
   368      3.003384  22 H  s               106      2.855400   7 N  s         
    13     -2.796419   2 C  s                37     -2.774340   3 H  s         

 Vector   68  Occ=0.000000D+00  E= 9.649178D-02
              MO Center= -7.6D-01,  2.0D+00,  8.5D-01, r^2= 3.6D+01
   Bfn.  Coefficient  Atom+Function         Bfn.  Coefficient  Atom+Function  
  ----- ------------  ---------------      ----- ------------  ---------------
   396      7.522492  25 C  s               130      6.777450   8 H  s         
   344     -6.249343  21 C  s               234     -6.016320  15 C  py        
   216      5.932069  14 H  s               148     -4.108017   9 C  py        
   300     -3.958240  18 H  s               226     -3.827079  15 C  s         
     3     -3.642079   1 H  s                46      3.519908   4 H  s         

 Vector   69  Occ=0.000000D+00  E= 1.039199D-01
              MO Center=  7.3D-01, -1.2D+00, -1.7D+00, r^2= 3.1D+01
   Bfn.  Coefficient  Atom+Function         Bfn.  Coefficient  Atom+Function  
  ----- ------------  ---------------      ----- ------------  ---------------
   396    -13.322506  25 C  s               344     13.231341  21 C  s         
   300      7.282110  18 H  s               234      6.968970  15 C  py        
   319      6.818085  19 C  pz              164     -6.453232  10 H  s         
   446      4.990956  27 N  s               386      4.820393  24 H  s         
   276      4.763328  17 N  s                13      3.615899   2 C  s         

 Vector   70  Occ=0.000000D+00  E= 1.076228D-01
              MO Center= -3.5D-01,  1.0D+00,  3.3D-01, r^2= 3.7D+01
   Bfn.  Coefficient  Atom+Function         Bfn.  Coefficient  Atom+Function  
  ----- ------------  ---------------      ----- ------------  ---------------
    56    -20.599313   5 C  s                13     19.838191   2 C  s         
   344     11.718115  21 C  s                64     -7.031005   5 C  py        
   174      7.015133  11 C  s               396     -5.636652  25 C  s         
    63      5.222055   5 C  px               21     -4.839805   2 C  py        
   226     -4.613347  15 C  s               404     -4.560740  25 C  py        

 Vector   71  Occ=0.000000D+00  E= 1.186931D-01
              MO Center=  5.1D-01, -1.2D+00,  3.8D-01, r^2= 3.4D+01
   Bfn.  Coefficient  Atom+Function         Bfn.  Coefficient  Atom+Function  
  ----- ------------  ---------------      ----- ------------  ---------------
   396     16.519964  25 C  s               174     12.755154  11 C  s         
   446    -12.321385  27 N  s                56     11.810861   5 C  s         
    13    -11.393144   2 C  s               234     -8.358331  15 C  py        
   300      7.979738  18 H  s               148      7.605619   9 C  py        
   344     -6.911439  21 C  s               226     -5.566592  15 C  s         

 Vector   72  Occ=0.000000D+00  E= 1.250386D-01
              MO Center= -7.1D-01, -1.6D+00,  1.8D-01, r^2= 3.0D+01
   Bfn.  Coefficient  Atom+Function         Bfn.  Coefficient  Atom+Function  
  ----- ------------  ---------------      ----- ------------  ---------------
   344     17.571166  21 C  s               226    -12.615596  15 C  s         
   234     10.905798  15 C  py              318      9.369816  19 C  py        
   317      8.997278  19 C  px              319      8.239561  19 C  pz        
    13     -7.152863   2 C  s                56      6.994931   5 C  s         
   351      4.465383  21 C  px              353      4.091485  21 C  pz        

 Vector   73  Occ=0.000000D+00  E= 1.277966D-01
              MO Center= -4.2D-01, -1.2D+00,  4.5D-01, r^2= 3.7D+01
   Bfn.  Coefficient  Atom+Function         Bfn.  Coefficient  Atom+Function  
  ----- ------------  ---------------      ----- ------------  ---------------
    56    -18.148581   5 C  s               226    -16.623868  15 C  s         
    13     16.504455   2 C  s               396     11.315340  25 C  s         
   318     10.032105  19 C  py              234      9.070193  15 C  py        
   140     -7.562703   9 C  s                64     -6.620368   5 C  py        
   276      6.180231  17 N  s               174      5.288984  11 C  s         

 Vector   74  Occ=0.000000D+00  E= 1.305851D-01
              MO Center= -6.3D-01,  6.6D-01, -1.5D+00, r^2= 2.8D+01
   Bfn.  Coefficient  Atom+Function         Bfn.  Coefficient  Atom+Function  
  ----- ------------  ---------------      ----- ------------  ---------------
    56     23.689335   5 C  s               174     19.097519  11 C  s         
    13    -13.901521   2 C  s               226    -11.278493  15 C  s         
   149    -10.670378   9 C  pz              147     -7.847209   9 C  px        
   310     -6.859077  19 C  s               318     -6.550714  19 C  py        
   234     -6.475948  15 C  py               63     -6.187723   5 C  px        

 Vector   75  Occ=0.000000D+00  E= 1.359004D-01
              MO Center=  3.5D-03, -2.1D+00,  8.0D-02, r^2= 3.3D+01
   Bfn.  Coefficient  Atom+Function         Bfn.  Coefficient  Atom+Function  
  ----- ------------  ---------------      ----- ------------  ---------------
   396     24.279223  25 C  s               344    -12.396119  21 C  s         
   446    -12.067038  27 N  s                13     11.182655   2 C  s         
    64     -7.756415   5 C  py              403     -7.021256  25 C  px        
    56     -6.327559   5 C  s               226     -5.452001  15 C  s         
   317     -5.049790  19 C  px              319     -4.350223  19 C  pz        

 Vector   76  Occ=0.000000D+00  E= 1.418411D-01
              MO Center=  4.3D-01, -9.1D-01,  1.7D-02, r^2= 3.1D+01
   Bfn.  Coefficient  Atom+Function         Bfn.  Coefficient  Atom+Function  
  ----- ------------  ---------------      ----- ------------  ---------------
    13     13.284028   2 C  s               174    -13.152003  11 C  s         
    56     -9.551188   5 C  s                64     -8.880136   5 C  py        
   147      8.598346   9 C  px              318      5.755648  19 C  py        
   396      5.771390  25 C  s               234      5.411674  15 C  py        
   276     -5.009856  17 N  s               183      4.939139  11 C  pz        

 Vector   77  Occ=0.000000D+00  E= 1.477110D-01
              MO Center= -3.8D-01, -1.5D+00,  7.7D-01, r^2= 3.1D+01
   Bfn.  Coefficient  Atom+Function         Bfn.  Coefficient  Atom+Function  
  ----- ------------  ---------------      ----- ------------  ---------------
   174     14.355938  11 C  s               148     10.193796   9 C  py        
    64      8.235819   5 C  py              318     -7.087877  19 C  py        
   147     -6.790314   9 C  px               56     -6.543937   5 C  s         
   276      6.185887  17 N  s               404      5.962787  25 C  py        
   334     -5.317793  20 H  s               284      4.665979  17 N  py        

 Vector   78  Occ=0.000000D+00  E= 1.533249D-01
              MO Center= -5.3D-03,  2.0D+00,  1.5D+00, r^2= 2.7D+01
   Bfn.  Coefficient  Atom+Function         Bfn.  Coefficient  Atom+Function  
  ----- ------------  ---------------      ----- ------------  ---------------
   226     19.167139  15 C  s               106    -13.429774   7 N  s         
   174    -11.828303  11 C  s               148     10.549094   9 C  py        
   140     10.108083   9 C  s                56      9.948614   5 C  s         
   276     -9.242506  17 N  s               149      6.885558   9 C  pz        
   310      6.613342  19 C  s               233      5.951772  15 C  px        

 Vector   79  Occ=0.000000D+00  E= 1.542666D-01
              MO Center= -4.8D-01, -6.7D-02, -8.3D-01, r^2= 3.1D+01
   Bfn.  Coefficient  Atom+Function         Bfn.  Coefficient  Atom+Function  
  ----- ------------  ---------------      ----- ------------  ---------------
   318      9.507216  19 C  py               64      6.883174   5 C  py        
   344      6.270738  21 C  s               148      5.523715   9 C  py        
   396      5.443193  25 C  s               114      5.258247   7 N  py        
   276     -4.986898  17 N  s               140      4.651250   9 C  s         
    56     -4.449502   5 C  s               234      4.090314  15 C  py        

 Vector   80  Occ=0.000000D+00  E= 1.571821D-01
              MO Center=  1.8D-01,  5.8D-01, -3.8D-01, r^2= 3.1D+01
   Bfn.  Coefficient  Atom+Function         Bfn.  Coefficient  Atom+Function  
  ----- ------------  ---------------      ----- ------------  ---------------
    56     12.334701   5 C  s               226     -9.713793  15 C  s         
   344      8.433655  21 C  s               140     -7.477369   9 C  s         
   300     -7.251209  18 H  s               396     -6.419607  25 C  s         
   114     -5.961831   7 N  py              148     -5.581249   9 C  py        
   164      5.487209  10 H  s               310     -5.140442  19 C  s         

 Vector   81  Occ=0.000000D+00  E= 1.593808D-01
              MO Center=  4.8D-01,  8.8D-02,  6.3D-01, r^2= 3.1D+01
   Bfn.  Coefficient  Atom+Function         Bfn.  Coefficient  Atom+Function  
  ----- ------------  ---------------      ----- ------------  ---------------
    64    -13.727336   5 C  py               13     13.163680   2 C  s         
   148    -13.127933   9 C  py              396    -10.665538  25 C  s         
   318     -8.287922  19 C  py              226      8.008567  15 C  s         
   446      6.468135  27 N  s               276     -5.728028  17 N  s         
    63      5.532394   5 C  px              284     -4.284970  17 N  py        

 Vector   82  Occ=0.000000D+00  E= 1.634394D-01
              MO Center=  5.1D-02,  1.1D+00, -4.3D-01, r^2= 3.0D+01
   Bfn.  Coefficient  Atom+Function         Bfn.  Coefficient  Atom+Function  
  ----- ------------  ---------------      ----- ------------  ---------------
   148      9.013355   9 C  py              344      7.208191  21 C  s         
   284      6.148850  17 N  py              174     -5.441107  11 C  s         
   216     -4.871720  14 H  s               234      4.801788  15 C  py        
   106     -3.983505   7 N  s                63     -3.883575   5 C  px        
   317      3.878278  19 C  px              300      3.834716  18 H  s         

 Vector   83  Occ=0.000000D+00  E= 1.676995D-01
              MO Center=  3.5D-02,  9.5D-01, -6.2D-01, r^2= 2.8D+01
   Bfn.  Coefficient  Atom+Function         Bfn.  Coefficient  Atom+Function  
  ----- ------------  ---------------      ----- ------------  ---------------
   174      8.203709  11 C  s                56      6.364458   5 C  s         
   147     -4.897796   9 C  px              300     -4.769502  18 H  s         
   233      3.852643  15 C  px              276     -3.628553  17 N  s         
   183     -3.384167  11 C  pz              368      3.155553  22 H  s         
   148     -3.113796   9 C  py              319     -2.982400  19 C  pz        

 Vector   84  Occ=0.000000D+00  E= 1.721355D-01
              MO Center= -7.0D-01, -2.1D+00, -3.1D-01, r^2= 2.7D+01
   Bfn.  Coefficient  Atom+Function         Bfn.  Coefficient  Atom+Function  
  ----- ------------  ---------------      ----- ------------  ---------------
   344     11.128003  21 C  s               234      9.280681  15 C  py        
   396     -8.398416  25 C  s                56     -6.977943   5 C  s         
   317      6.473638  19 C  px              377      6.298160  23 H  s         
   352      5.290571  21 C  py              319      4.929917  19 C  pz        
   233      4.355201  15 C  px              351      4.259649  21 C  px        

 Vector   85  Occ=0.000000D+00  E= 1.750104D-01
              MO Center=  2.0D-02, -1.6D+00,  6.4D-01, r^2= 2.7D+01
   Bfn.  Coefficient  Atom+Function         Bfn.  Coefficient  Atom+Function  
  ----- ------------  ---------------      ----- ------------  ---------------
   396     11.664557  25 C  s               344     -7.506090  21 C  s         
   317     -5.149464  19 C  px              234      3.776314  15 C  py        
   343     -3.682747  21 C  s               376      3.540394  23 H  s         
   310      3.400438  19 C  s               174     -3.295988  11 C  s         
   318      2.958473  19 C  py              377      2.946257  23 H  s         

 Vector   86  Occ=0.000000D+00  E= 1.768195D-01
              MO Center= -3.4D-01,  2.1D+00,  1.1D-01, r^2= 2.8D+01
   Bfn.  Coefficient  Atom+Function         Bfn.  Coefficient  Atom+Function  
  ----- ------------  ---------------      ----- ------------  ---------------
   276      7.626576  17 N  s               174      7.023170  11 C  s         
   300      5.430569  18 H  s                64      4.001599   5 C  py        
   344     -3.948126  21 C  s               149     -3.825625   9 C  pz        
   164     -3.805285  10 H  s                65     -3.766782   5 C  pz        
   235      3.674513  15 C  pz              317     -3.673138  19 C  px        

 Vector   87  Occ=0.000000D+00  E= 1.809507D-01
              MO Center= -2.8D-01,  1.1D+00, -8.6D-02, r^2= 2.3D+01
   Bfn.  Coefficient  Atom+Function         Bfn.  Coefficient  Atom+Function  
  ----- ------------  ---------------      ----- ------------  ---------------
   344     -6.035239  21 C  s               235     -5.753153  15 C  pz        
   149      5.709749   9 C  pz              276     -5.543029  17 N  s         
   226      5.090609  15 C  s               147      5.007955   9 C  px        
   174     -4.920683  11 C  s                56      3.804857   5 C  s         
    64     -3.789576   5 C  py               37     -3.689945   3 H  s         

 Vector   88  Occ=0.000000D+00  E= 1.852314D-01
              MO Center= -6.1D-01, -1.5D-01,  4.7D-01, r^2= 3.7D+01
   Bfn.  Coefficient  Atom+Function         Bfn.  Coefficient  Atom+Function  
  ----- ------------  ---------------      ----- ------------  ---------------
   234     -6.459078  15 C  py              130      6.124988   8 H  s         
   276     -5.843971  17 N  s               106      4.654371   7 N  s         
    13     -4.459696   2 C  s                56      4.248508   5 C  s         
    64      4.081033   5 C  py               21      3.634115   2 C  py        
    46     -3.616335   4 H  s               334     -3.358158  20 H  s         

 Vector   89  Occ=0.000000D+00  E= 1.863072D-01
              MO Center= -1.1D+00,  8.9D-01, -1.1D-01, r^2= 3.2D+01
   Bfn.  Coefficient  Atom+Function         Bfn.  Coefficient  Atom+Function  
  ----- ------------  ---------------      ----- ------------  ---------------
    56      7.284966   5 C  s               226     -6.940724  15 C  s         
   276      6.462833  17 N  s               148     -5.653946   9 C  py        
   317     -5.306457  19 C  px              344     -4.920149  21 C  s         
   386      4.387604  24 H  s               233     -4.140366  15 C  px        
   234      4.151926  15 C  py                3     -4.099978   1 H  s         

 Vector   90  Occ=0.000000D+00  E= 1.906496D-01
              MO Center=  3.3D-02,  3.6D-01, -4.2D-01, r^2= 2.6D+01
   Bfn.  Coefficient  Atom+Function         Bfn.  Coefficient  Atom+Function  
  ----- ------------  ---------------      ----- ------------  ---------------
   396     10.061317  25 C  s                13     -8.109190   2 C  s         
   318      7.997145  19 C  py              317     -5.720936  19 C  px        
   148      5.438144   9 C  py              233      5.393539  15 C  px        
    64      5.246908   5 C  py              368     -5.214477  22 H  s         
   147     -4.936865   9 C  px              386      4.186078  24 H  s         

 Vector   91  Occ=0.000000D+00  E= 1.925623D-01
              MO Center= -1.7D-01,  6.5D-01, -4.7D-01, r^2= 3.3D+01
   Bfn.  Coefficient  Atom+Function         Bfn.  Coefficient  Atom+Function  
  ----- ------------  ---------------      ----- ------------  ---------------
[...]
   344      5.719222  21 C  s                13     -5.189974   2 C  s         

 Vector  138  Occ=0.000000D+00  E= 4.254220D-01
              MO Center= -6.7D-01, -6.7D-01,  2.4D-01, r^2= 1.8D+01
   Bfn.  Coefficient  Atom+Function         Bfn.  Coefficient  Atom+Function  
  ----- ------------  ---------------      ----- ------------  ---------------
   276     13.883023  17 N  s               226     -9.748952  15 C  s         
   140     -7.334650   9 C  s               317      6.023011  19 C  px        
    64     -5.179929   5 C  py              173     -5.183066  11 C  s         
   396     -5.107146  25 C  s               225     -4.521282  15 C  s         
   234      4.491937  15 C  py              318     -4.460429  19 C  py        

 Vector  139  Occ=0.000000D+00  E= 4.300491D-01
              MO Center=  2.4D-01,  1.1D-01, -1.5D-01, r^2= 1.7D+01
   Bfn.  Coefficient  Atom+Function         Bfn.  Coefficient  Atom+Function  
  ----- ------------  ---------------      ----- ------------  ---------------
   226     11.963674  15 C  s               396    -11.148658  25 C  s         
   106     -7.616055   7 N  s               284     -6.607071  17 N  py        
    56      6.347156   5 C  s               140      5.833521   9 C  s         
   164     -4.785975  10 H  s               149     -4.603193   9 C  pz        
   163     -4.000121  10 H  s                55      3.571403   5 C  s         

 Vector  140  Occ=0.000000D+00  E= 4.376184D-01
              MO Center= -7.1D-01,  1.5D+00,  2.0D-01, r^2= 2.6D+01
   Bfn.  Coefficient  Atom+Function         Bfn.  Coefficient  Atom+Function  
  ----- ------------  ---------------      ----- ------------  ---------------
   396     22.381143  25 C  s               318     14.890529  19 C  py        
   446     -6.619863  27 N  s               226     -5.990766  15 C  s         
   113      5.766694   7 N  px              317     -5.126870  19 C  px        
    13      4.963667   2 C  s               276     -4.632024  17 N  s         
   234      4.428240  15 C  py              163     -4.319092  10 H  s         

 Vector  141  Occ=0.000000D+00  E= 4.414028D-01
              MO Center=  1.3D-01,  9.5D-01,  3.2D-01, r^2= 1.9D+01
   Bfn.  Coefficient  Atom+Function         Bfn.  Coefficient  Atom+Function  
  ----- ------------  ---------------      ----- ------------  ---------------
    56     21.100973   5 C  s               226    -17.525259  15 C  s         
   276     15.480424  17 N  s               114    -12.898839   7 N  py        
   140    -10.190623   9 C  s               149    -10.123206   9 C  pz        
   318     -8.688870  19 C  py              234     -7.365982  15 C  py        
    13     -6.700861   2 C  s               148     -6.657832   9 C  py        

 Vector  142  Occ=0.000000D+00  E= 4.450176D-01
              MO Center= -8.5D-01, -5.1D-01, -4.0D-01, r^2= 2.1D+01
   Bfn.  Coefficient  Atom+Function         Bfn.  Coefficient  Atom+Function  
  ----- ------------  ---------------      ----- ------------  ---------------
   344     29.485140  21 C  s               396    -16.217818  25 C  s         
   317     11.998223  19 C  px              226    -10.708865  15 C  s         
   376    -10.261390  23 H  s               343      9.634645  21 C  s         
    56      9.197292   5 C  s               385     -8.814162  24 H  s         
   148     -7.334591   9 C  py              234      6.518887  15 C  py        

 Vector  143  Occ=0.000000D+00  E= 4.492466D-01
              MO Center=  2.5D-02,  2.2D+00, -3.6D-01, r^2= 2.0D+01
   Bfn.  Coefficient  Atom+Function         Bfn.  Coefficient  Atom+Function  
  ----- ------------  ---------------      ----- ------------  ---------------
   148     17.513454   9 C  py              396     15.072532  25 C  s         
    56    -12.802038   5 C  s               106    -10.490090   7 N  s         
   284     10.131595  17 N  py              149     -7.451829   9 C  pz        
   318      6.145011  19 C  py              174      5.815401  11 C  s         
   235      4.878941  15 C  pz              113     -4.831019   7 N  px        

 Vector  144  Occ=0.000000D+00  E= 4.504289D-01
              MO Center= -3.4D-01,  2.6D+00, -3.5D-01, r^2= 2.0D+01
   Bfn.  Coefficient  Atom+Function         Bfn.  Coefficient  Atom+Function  
  ----- ------------  ---------------      ----- ------------  ---------------
   344     10.756316  21 C  s               284      8.322638  17 N  py        
   148      7.617262   9 C  py              149     -5.952094   9 C  pz        
   396     -5.337028  25 C  s               276      4.607518  17 N  s         
    22     -4.260945   2 C  pz              317      4.195556  19 C  px        
     2     -4.035689   1 H  s               319      3.943895  19 C  pz        

 Vector  145  Occ=0.000000D+00  E= 4.604303D-01
              MO Center=  3.5D-01, -4.5D-01,  1.4D-01, r^2= 1.8D+01
   Bfn.  Coefficient  Atom+Function         Bfn.  Coefficient  Atom+Function  
  ----- ------------  ---------------      ----- ------------  ---------------
   396     23.820407  25 C  s                56     20.550344   5 C  s         
   344    -19.914479  21 C  s                13    -19.107032   2 C  s         
   276    -15.196238  17 N  s               174    -13.630652  11 C  s         
   310     10.406848  19 C  s               140      9.787911   9 C  s         
   148     -9.157073   9 C  py              226      8.623384  15 C  s         

 Vector  146  Occ=0.000000D+00  E= 4.653178D-01
              MO Center=  5.5D-03, -7.9D-01, -1.1D-01, r^2= 2.3D+01
   Bfn.  Coefficient  Atom+Function         Bfn.  Coefficient  Atom+Function  
  ----- ------------  ---------------      ----- ------------  ---------------
    56     27.924250   5 C  s                13    -18.452021   2 C  s         
   226    -15.520546  15 C  s               148    -14.662004   9 C  py        
   310     -9.993537  19 C  s               396     -9.596949  25 C  s         
   344      9.454325  21 C  s               106      7.243994   7 N  s         
   446      6.760458  27 N  s               114     -6.675103   7 N  py        

 Vector  147  Occ=0.000000D+00  E= 4.663539D-01
              MO Center=  6.1D-02, -6.5D-01, -2.1D-01, r^2= 2.0D+01
   Bfn.  Coefficient  Atom+Function         Bfn.  Coefficient  Atom+Function  
  ----- ------------  ---------------      ----- ------------  ---------------
   396     31.126183  25 C  s               226    -22.139197  15 C  s         
   344    -19.551190  21 C  s               174     17.833949  11 C  s         
   446    -13.346276  27 N  s               140     -9.922057   9 C  s         
    13      9.676532   2 C  s               148     -9.309687   9 C  py        
   367      7.848255  22 H  s               276      7.075203  17 N  s         

 Vector  148  Occ=0.000000D+00  E= 4.678005D-01
              MO Center=  3.5D-01,  6.0D-01,  2.9D-01, r^2= 2.0D+01
   Bfn.  Coefficient  Atom+Function         Bfn.  Coefficient  Atom+Function  
  ----- ------------  ---------------      ----- ------------  ---------------
   174      9.952550  11 C  s               344      8.815124  21 C  s         
   396     -7.741531  25 C  s               215     -6.718136  14 H  s         
   310     -5.545129  19 C  s               106     -5.317858   7 N  s         
   163      5.336336  10 H  s               173      4.927983  11 C  s         
   309      4.561424  19 C  s               147     -4.388124   9 C  px        

 Vector  149  Occ=0.000000D+00  E= 4.722281D-01
              MO Center=  3.4D-01,  3.3D-01,  7.7D-02, r^2= 1.8D+01
   Bfn.  Coefficient  Atom+Function         Bfn.  Coefficient  Atom+Function  
  ----- ------------  ---------------      ----- ------------  ---------------
   226     36.592600  15 C  s               174    -23.373525  11 C  s         
   140     18.111726   9 C  s               148     17.675838   9 C  py        
   310     11.918595  19 C  s                56    -11.308106   5 C  s         
   396    -11.245412  25 C  s               276     -9.592204  17 N  s         
   147      9.237969   9 C  px              106     -7.149974   7 N  s         

 Vector  150  Occ=0.000000D+00  E= 4.756524D-01
              MO Center= -8.7D-01, -1.6D+00, -7.0D-01, r^2= 2.2D+01
   Bfn.  Coefficient  Atom+Function         Bfn.  Coefficient  Atom+Function  
  ----- ------------  ---------------      ----- ------------  ---------------
    56     19.811754   5 C  s                13    -16.385262   2 C  s         
   174     12.818676  11 C  s               234    -12.819310  15 C  py        
   226     -9.283422  15 C  s               148     -8.166329   9 C  py        
    12     -6.444256   2 C  s               376      6.323836  23 H  s         
   233     -5.715853  15 C  px              106      5.490270   7 N  s         

 Vector  151  Occ=0.000000D+00  E= 4.812715D-01
              MO Center=  1.1D-01, -8.1D-01,  2.1D-01, r^2= 2.3D+01
   Bfn.  Coefficient  Atom+Function         Bfn.  Coefficient  Atom+Function  
  ----- ------------  ---------------      ----- ------------  ---------------
   226    -18.558519  15 C  s                56     17.075761   5 C  s         
   114    -13.748409   7 N  py              276     10.162984  17 N  s         
   140     -9.989907   9 C  s               174      9.654270  11 C  s         
   148     -8.629633   9 C  py              318     -6.155443  19 C  py        
   234     -5.976713  15 C  py              310     -5.792274  19 C  s         

 Vector  152  Occ=0.000000D+00  E= 4.847562D-01
              MO Center=  6.9D-02, -7.7D-01,  3.6D-02, r^2= 2.1D+01
   Bfn.  Coefficient  Atom+Function         Bfn.  Coefficient  Atom+Function  
  ----- ------------  ---------------      ----- ------------  ---------------
    13     20.248244   2 C  s                56    -19.450040   5 C  s         
   344    -12.254796  21 C  s               343    -11.381305  21 C  s         
   367     10.187548  22 H  s                12      9.953817   2 C  s         
   446     -9.668585  27 N  s               234     -9.581203  15 C  py        
   276     -9.173630  17 N  s               226      8.909149  15 C  s         

 Vector  153  Occ=0.000000D+00  E= 4.890457D-01
              MO Center= -2.0D-01,  2.8D-01,  1.4D-01, r^2= 2.5D+01
   Bfn.  Coefficient  Atom+Function         Bfn.  Coefficient  Atom+Function  
  ----- ------------  ---------------      ----- ------------  ---------------
   174     29.509250  11 C  s                13    -22.834440   2 C  s         
    56     19.386349   5 C  s                64     11.792364   5 C  py        
   173     10.042501  11 C  s               147     -9.767201   9 C  px        
   206     -8.887410  13 H  s               226     -8.872091  15 C  s         
    12     -8.820819   2 C  s               318     -8.751695  19 C  py        

 Vector  154  Occ=0.000000D+00  E= 4.984014D-01
              MO Center= -2.8D-01,  1.8D+00,  1.2D-01, r^2= 2.0D+01
   Bfn.  Coefficient  Atom+Function         Bfn.  Coefficient  Atom+Function  
  ----- ------------  ---------------      ----- ------------  ---------------
    56    -40.923765   5 C  s                13     37.738346   2 C  s         
   174    -18.240957  11 C  s                64    -14.619775   5 C  py        
   173    -11.382015  11 C  s               226     11.199433  15 C  s         
   234     10.966654  15 C  py              114     10.543028   7 N  py        
    63     10.343945   5 C  px                2     -8.462854   1 H  s         

 Vector  155  Occ=0.000000D+00  E= 5.017198D-01
              MO Center= -2.0D-02,  1.5D+00,  3.6D-01, r^2= 1.8D+01
   Bfn.  Coefficient  Atom+Function         Bfn.  Coefficient  Atom+Function  
  ----- ------------  ---------------      ----- ------------  ---------------
   226     21.123750  15 C  s                56     17.510999   5 C  s         
   396    -16.566011  25 C  s               234    -14.278982  15 C  py        
   114    -13.676805   7 N  py              344    -10.147948  21 C  s         
   251     -9.946985  16 O  s               276     -8.725840  17 N  s         
   174     -8.195308  11 C  s               318     -7.390593  19 C  py        


 center of mass
 --------------
 x =   0.03138315 y =  -0.01467523 z =  -0.01260187

 moments of inertia (a.u.)
 ------------------
        6749.035421561061          -0.000000000000           0.000000000000
          -0.000000000000        1075.875802991703           0.000000000000
           0.000000000000           0.000000000000        7170.744232297533

  Mulliken analysis of the total density
  --------------------------------------

    Atom       Charge   Shell Charges
 -----------   ------   -------------------------------------------------------
    1 H    1     0.80   0.76  0.06  0.01  0.03 -0.06
    2 C    6     6.66   2.01  0.66  0.34  0.40  2.06  1.05 -0.04  0.06  0.13
    3 H    1     0.81   0.76  0.07  0.01  0.03 -0.07
    4 H    1     0.94   0.76  0.19  0.01  0.03 -0.06
    5 C    6     4.83   2.01  0.68  0.10 -0.27  1.90  0.31 -0.15  0.24  0.02
    6 O    8     8.72   2.01  0.82  0.99  0.15  2.79  1.82  0.15  0.01 -0.02
    7 N    7     7.54   2.01  0.72  0.84 -0.13  2.46  1.44  0.10  0.05  0.04
    8 H    1     1.02   0.75  0.24 -0.00  0.06 -0.03
    9 C    6     6.51   2.01  0.66  0.16  0.14  2.00  1.42 -0.15  0.14  0.13
   10 H    1     1.12   0.78  0.32  0.00  0.03 -0.00
   11 C    6     5.47   2.01  0.66  0.16  0.09  2.04  0.46 -0.02  0.07 -0.01
   12 H    1     1.02   0.77  0.29 -0.00  0.03 -0.06
   13 H    1     0.90   0.77  0.17  0.00  0.03 -0.07
   14 H    1     0.91   0.77  0.16  0.01  0.03 -0.07
   15 C    6     4.98   2.01  0.68  0.02  0.26  1.88  0.08  0.09  0.23 -0.26
   16 O    8     8.80   2.01  0.82  1.02  0.16  2.79  1.86  0.14  0.01 -0.01
   17 N    7     7.42   2.01  0.72  0.85 -0.24  2.45  1.47  0.07  0.05  0.04
   18 H    1     1.03   0.75  0.25 -0.00  0.06 -0.03
   19 C    6     6.45   2.01  0.66  0.25  0.06  2.00  1.29 -0.10  0.14  0.15
   20 H    1     1.11   0.78  0.30  0.01  0.03 -0.00
   21 C    6     5.50   2.01  0.66  0.16  0.13  2.04  0.48 -0.04  0.07 -0.02
   22 H    1     0.91   0.77  0.17  0.01  0.03 -0.07
   23 H    1     0.93   0.78  0.19  0.00  0.03 -0.06
   24 H    1     0.98   0.76  0.25 -0.00  0.03 -0.06
   25 C    6     4.74   2.01  0.68  0.07  0.12  1.89 -0.11 -0.01  0.23 -0.13
   26 O    8     8.76   2.01  0.82  1.02  0.15  2.79  1.84  0.13  0.01 -0.00
   27 N    7     7.18   2.01  0.72  0.82 -0.19  2.47  1.27  0.08  0.04 -0.03
   28 H    1     0.98   0.76  0.22 -0.01  0.05 -0.04
   29 H    1     0.98   0.75  0.20 -0.01  0.06 -0.02

       Multipole analysis of the density wrt the origin
       ------------------------------------------------

     L   x y z        total         open         nuclear
     -   - - -        -----         ----         -------
     0   0 0 0     -0.000000      0.000000    108.000000

     1   1 0 0     -1.243353      0.000000      0.000000
     1   0 1 0     -1.755949      0.000000     -0.000000
     1   0 0 1      0.886149      0.000000      0.000000

     2   2 0 0    -67.861865      0.000000    436.891120
     2   1 1 0      1.016897      0.000000     12.211560
     2   1 0 1      4.795306      0.000000     17.618900
     2   0 2 0    -51.111022      0.000000   3521.298257
     2   0 1 1      2.370382      0.000000     17.833030
     2   0 0 2    -65.813983      0.000000    194.585791


 Task  times  cpu:     2086.5s     wall:     2501.9s


                                NWChem Input Module
                                -------------------


 Summary of allocated global arrays
-----------------------------------
  No active global arrays


MA_summarize_allocated_blocks: starting scan ...
MA_summarize_allocated_blocks: scan completed: 0 heap blocks, 0 stack blocks
MA usage statistics:

	allocation statistics:
					      heap	     stack
					      ----	     -----
	current number of blocks	         0	         0
	maximum number of blocks	        16	        14
	current total bytes		         0	         0
	maximum total bytes		    102160	  24147800
	maximum total K-bytes		       103	     24148
	maximum total M-bytes		         1	        25


                                     CITATION
                                     --------
                Please cite the following reference when publishing
                           results obtained with NWChem:

          E. Apra, E. J. Bylaska, W. A. de Jong, N. Govind, K. Kowalski,
       T. P. Straatsma, M. Valiev, H. J. J. van Dam, Y. Alexeev, J. Anchell,
       V. Anisimov, F. W. Aquino, R. Atta-Fynn, J. Autschbach, N. P. Bauman,
     J. C. Becca, D. E. Bernholdt, K. Bhaskaran-Nair, S. Bogatko, P. Borowski,
         J. Boschen, J. Brabec, A. Bruner, E. Cauet, Y. Chen, G. N. Chuev,
      C. J. Cramer, J. Daily, M. J. O. Deegan, T. H. Dunning Jr., M. Dupuis,
   K. G. Dyall, G. I. Fann, S. A. Fischer, A. Fonari, H. Fruchtl, L. Gagliardi,
      J. Garza, N. Gawande, S. Ghosh, K. Glaesemann, A. W. Gotz, J. Hammond,
       V. Helms, E. D. Hermes, K. Hirao, S. Hirata, M. Jacquelin, L. Jensen,
   B. G. Johnson, H. Jonsson, R. A. Kendall, M. Klemm, R. Kobayashi, V. Konkov,
      S. Krishnamoorthy, M. Krishnan, Z. Lin, R. D. Lins, R. J. Littlefield,
      A. J. Logsdail, K. Lopata, W. Ma, A. V. Marenich, J. Martin del Campo,
   D. Mejia-Rodriguez, J. E. Moore, J. M. Mullin, T. Nakajima, D. R. Nascimento,
    J. A. Nichols, P. J. Nichols, J. Nieplocha, A. Otero-de-la-Roza, B. Palmer,
    A. Panyala, T. Pirojsirikul, B. Peng, R. Peverati, J. Pittner, L. Pollack,
   R. M. Richard, P. Sadayappan, G. C. Schatz, W. A. Shelton, D. W. Silverstein,
   D. M. A. Smith, T. A. Soares, D. Song, M. Swart, H. L. Taylor, G. S. Thomas,
            V. Tipparaju, D. G. Truhlar, K. Tsemekhman, T. Van Voorhis,
      A. Vazquez-Mayagoitia, P. Verma, O. Villa, A. Vishnu, K. D. Vogiatzis,
        D. Wang, J. H. Weare, M. J. Williamson, T. L. Windus, K. Wolinski,
        A. T. Wong, Q. Wu, C. Yang, Q. Yu, M. Zacharias, Z. Zhang, Y. Zhao,
                                and R. J. Harrison
                        "NWChem: Past, present, and future
                         J. Chem. Phys. 152, 184102 (2020)
                               doi:10.1063/5.0004997

                                      AUTHORS
                                      -------
  E. Apra, E. J. Bylaska, N. Govind, K. Kowalski, M. Valiev, D. Mejia-Rodriguez,
       A. Kunitsa, N. P. Bauman, A. Panyala, W. A. de Jong, T. P. Straatsma,
   H. J. J. van Dam, D. Wang, T. L. Windus, J. Hammond, J. Autschbach, A. Woods,
    K. Bhaskaran-Nair, J. Brabec, K. Lopata, S. A. Fischer, S. Krishnamoorthy,
     M. Jacquelin, W. Ma, M. Klemm, O. Villa, Y. Chen, V. Anisimov, F. Aquino,
     S. Hirata, M. T. Hackler, E. Hermes, L. Jensen, J. E. Moore, J. C. Becca,
      V. Konjkov, T. Risthaus, M. Malagoli, A. Marenich, A. Otero-de-la-Roza,
        J. Mullin, P. Nichols, R. Peverati, J. Pittner, Y. Zhao, P.-D. Fan,
        A. Fonari, M. J. Williamson, R. J. Harrison, J. R. Rehr, M. Dupuis,
     D. Silverstein, D. M. A. Smith, J. Nieplocha, V. Tipparaju, M. Krishnan,
     B. E. Van Kuiken, A. Vazquez-Mayagoitia, M. Swart, Q. Wu, T. Van Voorhis,
     A. A. Auer, M. Nooijen, L. D. Crosby, E. Brown, G. Cisneros, G. I. Fann,
   H. Fruchtl, J. Garza, K. Hirao, R. A. Kendall, J. A. Nichols, K. Tsemekhman,
    K. Wolinski, J. Anchell, D. E. Bernholdt, P. Borowski, T. Clark, D. Clerc,
   H. Dachsel, M. J. O. Deegan, K. Dyall, D. Elwood, E. Glendening, M. Gutowski,
   A. C. Hess, J. Jaffe, B. G. Johnson, J. Ju, R. Kobayashi, R. Kutteh, Z. Lin,
   R. Littlefield, X. Long, B. Meng, T. Nakajima, S. Niu, L. Pollack, M. Rosing,
   K. Glaesemann, G. Sandrone, M. Stave, H. Taylor, G. Thomas, J. H. van Lenthe,
                               A. T. Wong, Z. Zhang.

 Total times  cpu:     2086.5s     wall:     2502.2s
